LAMMPS data file via write_data, version 29 Oct 2020, timestep = 200000

4608 atoms
1 atom types

0.03421634588719158 53.36578365411269 xlo xhi
0.02982274214025793 50.87729725785534 ylo yhi
0.02982274214025793 50.87729725785534 zlo zhi

Masses

1 18.015

Atoms # atomic

172 1 0.30001737847707943 42.90155973032681 25.441133442854234 0 -1 0
4166 1 0.18507919341227064 2.1297693229946417 12.313236192956241 0 0 1
2147 1 8.477538387825696 0.48664772447956817 5.048394664101332 0 1 1
3643 1 3.597598332630369 16.558171703487215 2.176451430053296 1 0 1
2802 1 1.8069979968417005 17.865657241574606 25.198233699372654 1 0 0
2206 1 12.45796611431316 1.2509892471159856 7.941460265920847 1 0 0
1552 1 6.490628626766288 33.745713675186295 0.13041871368649632 0 -2 0
247 1 3.6214735935763773 4.032825808940641 3.7699408672502943 0 -1 -1
2651 1 7.1702567572506775 3.795733640903194 1.7683317275474868 0 1 1
2291 1 0.4239455915418105 13.511969213624143 18.97929840724353 2 1 0
605 1 3.8670856829948805 28.015845752456467 14.58357903055156 -1 0 1
4186 1 7.694847891724228 39.827324176490634 2.7724957899030067 0 -1 1
4183 1 12.781299676557065 8.991107162839608 1.0285162188081358 1 0 2
2351 1 0.9382274082303862 36.89446196457118 24.405765867903316 1 1 -1
3862 1 9.056456859216265 49.608764850188706 24.82081871237672 1 -1 0
1361 1 4.6729857562880674 6.374026075995036 0.1367264294025739 1 0 2
2083 1 6.220502486904687 7.186526762233215 2.333276779481912 1 0 -1
1137 1 11.52994028903772 6.691432315172082 2.1961791207363013 0 -1 1
4020 1 2.241797718543928 19.648849669497007 22.83028939331536 0 1 1
4360 1 15.389827504548787 42.47364590421331 1.2419367451549237 -1 1 0
4124 1 3.1463698806146563 12.237757989946402 4.872372000351208 1 0 1
3749 1 0.49182638905921144 49.765215690151166 23.5799616754213 0 1 0
2534 1 8.934957548159566 14.017527436044656 2.5228347946250036 1 0 1
3227 1 0.13882219309563015 27.47681683988968 21.0278767467986 1 0 -1
1545 1 3.5254316668403503 39.979397933606776 1.2157465749747294 0 -1 0
308 1 4.387612614790034 35.96724710676061 22.50670561434835 -1 1 0
1635 1 3.1661895487802623 43.538681344050886 0.05152814179878877 1 -1 0
2135 1 1.6047570806739324 27.82553224113235 23.336038549025133 1 -1 0
1810 1 2.273876184586716 15.151107834266984 4.901464586633008 0 0 0
957 1 0.8644557115178171 26.312012541324872 12.662878349409924 0 0 0
3729 1 1.382243055683292 25.11877698049906 20.417962790499605 1 0 0
2724 1 11.872927811776206 13.796573774912698 1.7847953560144514 0 1 1
1818 1 6.010852531886069 19.904832166847328 3.385187977974096 0 0 0
898 1 8.619244175512732 20.63532373342049 2.9526400382138784 0 1 0
3904 1 10.936979578371142 14.899823370879707 4.949075053513224 0 0 0
3861 1 14.627077343280554 19.357021651134772 4.0437384467787805 1 0 0
4585 1 10.502968124146165 19.28512470378671 1.0804888459627222 1 -1 1
4382 1 3.141241234590975 30.534836612681058 5.304336988376393 1 0 2
2940 1 3.728814756884142 27.023378180470132 24.75013727596576 0 0 0
2515 1 0.1775854356661084 11.86340122072113 4.5010963140239975 0 0 0
3612 1 0.24703941081939268 32.31353016009142 3.8945490683378936 0 0 1
3783 1 13.13037917628262 20.73961641650895 6.483806755759438 0 2 0
3004 1 12.91020235110338 20.5659089023791 1.908504670871832 1 -1 0
2699 1 0.4578237483416425 27.35831334681435 0.7775747864200754 1 1 1
1669 1 11.592834282618739 16.872703662731602 0.4852706750487993 -1 1 2
701 1 2.2319964190206996 33.09454217695877 15.665769114171823 0 -1 0
982 1 5.520676688476969 24.22142844991303 1.4402264180420004 0 0 2
4372 1 0.6966685647848654 7.957855839975139 15.868511346055204 0 -1 1
4507 1 8.516705950030993 24.590770796901495 1.101031977277744 0 -1 1
390 1 0.8307054931239035 22.505638313777276 1.9251858944438098 -1 1 0
4427 1 15.724533372413651 12.80269325534084 24.496677288920328 1 0 0
2595 1 14.48637073815961 25.704137947326277 1.218403474389312 2 -1 1
1875 1 2.968748279453337 28.206718629051114 2.04771064195548 1 0 1
2985 1 2.5884294423193484 23.870612126774862 24.730786375822674 0 -1 0
3466 1 3.4399505810459163 1.9248760890177115 13.973858654610874 0 1 0
1957 1 1.132132034296567 6.329384910580932 6.09761658842937 1 0 0
1992 1 10.719011939331605 32.62497088391753 3.3171287745481175 0 -1 1
1806 1 9.95057272272044 36.63036955444687 0.962559383166741 1 0 0
3829 1 15.117711524768202 9.18218786776287 2.759652720316205 0 1 0
4567 1 9.841981567490643 33.80178447155383 0.6676822846403513 1 1 1
3335 1 15.985621533384624 50.151434297400755 5.828372894427214 0 0 0
3988 1 1.2892473187428 18.29362157986703 3.0333108989229234 1 0 0
3134 1 10.158477872418414 34.68740604735082 5.080676482512368 2 0 1
3778 1 0.8302811224768679 25.13648493549075 4.228217891868216 1 1 1
3351 1 17.229838394477717 4.239852555027908 7.447875845386462 0 0 -1
2193 1 5.759094335609678 31.309903583525923 1.7958008050988579 1 -1 0
4391 1 0.6349531482666336 3.8009436812789312 0.46777501876477784 1 1 1
1009 1 6.1185177414730045 34.93529496832846 2.9193538138648143 0 -1 1
1684 1 14.450939403062211 30.769901853722683 5.912491058482311 0 -1 0
2252 1 0.08891065988671071 47.74773283411632 1.512482490234716 2 -1 0
3463 1 1.2437835850829484 5.837211488666704 9.9573174930654 1 0 0
2843 1 9.116047914186462 41.39612389877257 0.9277702482207782 0 0 1
2060 1 7.420191712811933 37.432001203809065 5.816666077641227 0 -1 1
154 1 5.426624297660029 45.43030999890489 3.3429127855461713 -1 -2 0
3994 1 10.31977764031975 38.84400338202727 3.657815439301908 1 1 1
2610 1 15.645270433080663 37.979093727561434 1.7379856155403681 0 0 1
450 1 16.19150305251159 2.6522498357710034 20.936569173876375 0 0 0
2876 1 4.041208525336359 42.68701678600917 2.5036469496265537 0 -1 1
4330 1 4.6376327152094 38.14022482193502 4.740827702894813 1 -1 0
2082 1 13.041295998917253 44.18527594428669 1.4537364764971472 0 0 0
727 1 17.544973533370726 5.927261343547425 24.535587786143203 0 1 0
3317 1 16.717149965470448 26.632262983953847 9.099071970588982 1 0 -1
136 1 3.2448258178873215 30.534496800095692 0.6472548756768018 1 0 0
649 1 11.963804049247399 40.591679940096896 1.810569872358973 0 0 -1
1737 1 0.3789861990006177 4.762469358316213 19.441805729748733 1 1 0
2810 1 7.732079315974712 44.13460850208966 4.6530733542377245 2 0 1
2991 1 17.463776048866045 25.65965022737528 13.90776801432922 0 -1 0
1866 1 11.498489653481561 46.578858275928766 3.021209431319254 1 0 0
2377 1 2.376671163023024 48.576716832718546 2.3410438605641044 1 0 2
244 1 16.641453267886366 31.874725887753826 10.442625538404881 0 -1 0
3759 1 8.802017970680462 45.78499519871414 2.1577541150165414 0 -1 1
2528 1 0.5863093070507274 15.174637946041019 23.354466441828002 1 0 1
2027 1 2.917903952870121 0.7049742957622572 1.9346236561472863 1 0 2
1854 1 5.541376462154616 49.95154893674206 1.807492703385151 0 0 1
2126 1 8.786375014641452 48.49235435084957 2.8692786072009544 1 1 1
123 1 8.310143202631307 48.71969387981348 5.598205977194053 0 0 2
3870 1 0.9727066765995303 14.939385974534343 16.37561272242133 1 0 1
3116 1 11.962000375304308 43.43831120037319 4.350387719553264 1 0 0
2605 1 1.1121755439048366 0.1571800185810265 14.852137370386059 0 1 1
3832 1 7.336881196908907 1.0878093532783224 2.622595360596714 1 0 1
2306 1 13.890374363563575 3.4341940884938174 6.2881230671246975 0 1 1
979 1 15.099759933124004 50.858144684624484 2.568604939415843 1 -1 1
2460 1 6.207720451918632 5.40752101551333 4.191087034580452 0 1 1
4407 1 3.8885698729800104 7.091464993891149 5.713689053079705 1 1 0
574 1 1.8410772780489462 28.986453877012195 12.808521600834352 0 0 0
1488 1 9.509446673371695 4.471363986511748 4.605086363845027 0 1 1
601 1 9.969121421941457 3.630996647061411 2.1129791087625858 0 0 1
3969 1 13.230274198027985 5.846576716251169 4.560952389238402 -1 0 1
176 1 3.7643325302286232 9.755830841528352 7.039852368476991 0 0 0
4182 1 6.496815578020652 8.731712139136421 6.62746101957276 1 1 1
1548 1 7.771877957164228 11.191134120338743 3.3049475788051503 0 1 -1
946 1 8.694872419112123 8.687535268247165 2.582878337361257 -1 1 1
3401 1 10.955972533518054 6.059945669471041 6.444890451135976 0 1 0
2401 1 0.4604848165609618 17.713296324621794 21.98892850759076 0 -1 2
586 1 4.613031972347587 12.736889826286497 7.260427839566004 0 1 0
1932 1 4.70439013031023 11.494350891345821 2.948170676710166 0 1 0
4370 1 7.111362583481054 11.83997168790176 6.082171511610281 0 0 1
1693 1 14.36520933418126 11.88895593098333 2.5219398036543237 1 -1 1
2912 1 1.0265466578747082 35.5507762595836 5.6459419707782645 1 0 1
3091 1 15.876328508622425 16.258240342002367 1.4182970449716774 2 1 0
2684 1 2.081532652436631 14.215710672416623 7.742470403745142 1 0 1
3554 1 5.767739739719173 17.18664801535399 3.8864486812715144 0 0 0
2459 1 13.165509693797226 16.37583145065517 3.1601613261736596 1 0 2
2380 1 14.528917010640278 14.08158075132733 4.64442130577972 0 1 1
3610 1 17.00111845509454 15.867209808241219 5.945980400221567 0 1 1
624 1 3.4688946051258784 17.414150595300033 8.035150546116224 1 0 2
3183 1 5.332052476167969 45.05144694169395 22.787792199975176 0 0 1
2314 1 0.30028247358703725 30.62851493920824 24.452499274445206 0 0 0
3109 1 6.835629184429242 16.52721598462921 6.552989816857627 2 0 -1
3052 1 11.73732642447083 18.347547553548633 5.116201169986057 1 1 0
1883 1 8.242868324611136 23.13021213520071 4.274978689896397 1 0 0
621 1 9.391112597944783 19.96730261261216 5.695295633217079 0 0 -1
1498 1 16.14053460487215 18.87408896677013 6.361399934411097 1 1 0
1053 1 2.3160256662220737 20.670976179834785 3.980811315798025 -1 0 0
3768 1 5.653821092259322 23.615999401565766 5.196302142429952 0 0 0
2490 1 5.499891801740302 21.381316949305162 0.9328889819308258 1 0 -1
4008 1 10.557345543112845 24.568709572969933 3.4747224549183593 0 1 1
126 1 9.879181828987525 22.507125531572118 6.6612131650181965 0 0 1
1340 1 16.02975105934297 21.827015879392565 5.786170384499881 -1 0 0
3788 1 17.05819550477525 18.10970382176976 3.119106458096387 0 0 -2
4000 1 4.4713370940405825 21.028275008498333 5.360831795675534 1 1 2
1632 1 0.8481437403569109 30.490677380285533 7.424887495372643 1 0 -1
3306 1 3.4175733665251236 25.523385518553702 2.9722974535482813 1 0 -1
3490 1 7.940567361044214 26.674304272191048 3.22355564475865 1 0 1
2345 1 3.387067232010134 10.011898260899759 10.061143960219514 -1 0 1
2654 1 16.248443535548997 22.054341144665425 2.6300263917754916 0 0 1
549 1 14.569003192801055 45.493756599398154 25.03738470793484 0 0 -1
3833 1 5.994479867382136 28.284258034854506 1.8348779226741383 1 -1 0
3909 1 12.59238192952024 29.25930620241823 4.08378337622539 1 0 1
1960 1 17.047002047179323 24.673900839596833 2.3399087088560373 1 0 0
4022 1 14.201307020753116 26.80132998902071 3.715711105333546 0 -1 0
1433 1 0.4040028265481782 36.70447936669832 18.930017172781874 -1 -2 0
1559 1 1.1474421763080587 28.136661755181876 4.553148266342933 0 1 0
3901 1 15.958792489981013 1.0096009223687201 14.855419574729057 0 -1 -1
4200 1 5.705347637740288 29.43972031558911 4.974175620474803 0 1 2
3855 1 8.811553311497013 30.69916019442987 1.5792072364767786 0 1 2
228 1 12.312082927776872 36.80555164002415 4.760286489211589 0 0 0
2538 1 11.808877955359579 32.108059545155186 6.213463716198852 1 0 1
1007 1 14.61258231635855 22.547405493581785 0.5387919242584059 -1 1 0
320 1 10.775199396785828 25.755596528151848 24.595723400946778 1 1 1
3044 1 3.3816845929620745 32.60245283858396 3.369876996901865 1 -1 -1
3430 1 3.786518894407476 32.73540461472277 7.05296150225842 1 0 0
835 1 6.47525525294416 32.569766486785085 4.811078628461973 0 0 1
1591 1 13.00112809258249 34.57915689341654 7.090256486684056 0 0 0
2398 1 8.573432309383778 36.378878531205075 3.644458106355022 0 0 2
749 1 3.8447587669237406 35.393744528183404 4.858187111937503 -1 -1 0
4574 1 2.6701945905578146 12.13612564009242 24.635664591957674 1 0 1
4493 1 6.045550124224664 37.842979765052675 2.1769552320963697 1 1 1
8 1 8.41984536770704 36.198808943889134 8.24902076745521 0 1 0
2132 1 14.178505458422825 38.209113964373586 6.39455042476486 -1 0 -1
3455 1 14.600345655755834 40.30571677310901 2.636408667522329 0 -1 0
2822 1 3.303211862328984 47.004766879256934 20.7216921204219 0 0 0
273 1 15.986525360621602 48.87873385860391 21.237179398101723 0 -1 0
4308 1 1.3661500199581087 40.44951472146988 3.8497978073138803 1 -1 -1
739 1 11.13073499292933 39.678511183610524 6.116077389887707 0 -1 0
2775 1 6.677356271221811 41.68380288267812 4.486621647036812 1 -1 1
3462 1 0.4231875492311489 22.4787426436922 14.317006617924267 1 0 0
2328 1 3.7407154585045927 40.65085724740416 5.155785209580289 1 -1 0
1283 1 1.4900903115433242 42.69638274633995 6.239348146706179 0 0 1
2556 1 9.554430888512714 43.2555814892511 2.833804209923978 -1 -2 1
71 1 17.38989565491138 44.29588271467779 6.48948340684334 1 -1 -1
560 1 3.417759490128166 27.73721282902866 20.566371327361498 0 0 0
3069 1 2.108186047693849 47.375162524854204 4.963589167411323 1 -1 0
1896 1 5.840930969331494 48.033522873037796 4.132562865272865 1 0 0
204 1 3.334552657045044 44.761745813344504 5.0478004063408 -1 -1 1
2995 1 6.267177299945819 45.359030939766285 7.160458191469201 1 1 0
4494 1 13.000494236044343 41.080577951896956 5.011605297832562 0 0 0
1699 1 13.518335375895077 47.2171633013382 9.644560566956889 0 -1 0
3812 1 2.3083235497509795 8.110161338600614 1.508230098485754 1 0 0
4168 1 2.852642828461312 14.073311332475013 0.7727850356135837 1 0 2
1134 1 2.499891929029283 1.5714915570811279 4.55780874605307 1 1 1
1139 1 4.28493244757544 47.64288700775947 6.594628659128847 1 0 2
3558 1 6.259819335223606 1.044840884047258 6.85773614283379 2 1 0
484 1 8.425922451634104 47.84740196248865 9.935865120313421 0 -2 2
4246 1 13.209262772535586 1.1860939730640172 4.391325657961228 1 0 2
1808 1 5.786998974862433 32.216838280860216 23.368905754599265 1 0 0
830 1 17.693236033582018 22.436027015083706 24.105155253369173 -1 -1 0
1359 1 8.400443476365755 30.73359182194395 23.778578313442935 0 0 1
3985 1 6.414499194212164 3.871400483158189 6.36547252028598 1 -1 1
1237 1 7.785896107092356 4.335507083209619 10.518183509143741 0 1 1
243 1 10.558457941403455 2.154417269851582 5.573786846804594 0 1 0
296 1 15.82248176677227 1.5745161160054701 7.558642454670385 -1 1 -1
2707 1 12.01937062468818 11.847647555338975 4.319505479520193 1 1 2
1852 1 3.8746764633119564 3.355628778150922 7.844640127078224 1 0 0
2178 1 8.366617851139818 8.511228136251875 11.975624160097867 0 0 1
1520 1 8.355315367918305 5.170019853721319 7.859258993899813 0 1 1
3136 1 10.287872824600784 3.164328341601968 8.258514411949491 1 0 0
3826 1 12.451983372878711 5.105375846816064 8.497794560022987 2 1 0
2131 1 13.170210804998558 2.2355128797075663 11.52202166647778 0 1 -1
2969 1 4.194336964790322 6.2265014362387605 8.995334522076206 1 2 1
1394 1 1.5679026307360477 5.587295272656856 2.47649990473418 1 0 2
1786 1 6.782733685131624 7.422006840911786 8.886525696279204 0 0 1
2012 1 9.658382034542164 8.434651030551969 9.34299911336499 1 1 1
452 1 8.578735176528996 7.501831080636333 5.115761090039698 0 0 1
1110 1 13.459139049620727 10.413830248745501 6.280430747073832 0 1 1
2199 1 11.822127001263826 7.115473837471448 10.575689073260165 0 0 0
4605 1 5.035555355798212 12.217356004691533 10.1483461707882 2 0 1
2090 1 7.745652812571397 12.301505570785231 10.3747239024459 0 0 1
845 1 11.263423624390322 10.55332027644466 10.26433682416753 0 0 1
1556 1 16.593565740394276 12.210139678134485 9.403964646208674 1 1 0
4354 1 5.530182789319894 15.37862124537192 8.612703748293882 0 0 0
2960 1 8.830879076734108 14.432036303028577 6.744257283768797 -1 0 1
579 1 7.915934806781905 15.37250983082233 10.222396989023302 -1 0 0
3891 1 10.490878810155575 12.852878363526257 8.543355949113714 1 0 1
66 1 12.16043450787934 14.635497447850824 13.032272976799147 0 0 0
1882 1 13.082724800067794 13.893777554903037 6.968643416436032 2 0 0
541 1 8.129736666001 18.72426734957829 7.808558787052466 0 0 0
1348 1 14.265775994327342 18.343451777832424 8.708847881154798 -1 1 2
2604 1 12.183646455956783 16.68906753167148 7.560913715811554 0 1 0
2998 1 0.4393182856531391 7.407156587557854 23.45970532025508 1 0 1
3363 1 2.7065059767709703 23.77827585976753 5.697960030715741 1 -1 0
2532 1 4.806161959532207 19.72953679132734 7.705974635832181 -1 0 1
316 1 7.744289419244302 20.563097675286997 9.560247236844452 1 0 0
2578 1 11.721979061944205 22.282742491236554 8.636319475965392 0 -1 -1
806 1 15.261015341678581 22.77539773577822 8.334973103684408 1 1 1
2589 1 0.8528560691893796 43.28834535458191 3.353204290796646 2 -1 1
2894 1 0.3541521305378707 16.50630086012293 19.43860450693071 1 0 -1
348 1 5.104387296713053 24.519412574670834 8.197517787262285 1 0 -1
778 1 4.9715021300838895 27.1492423349197 7.413149179705286 -1 0 -1
2283 1 5.233933506596118 26.241253214808193 4.760132530820184 0 -1 0
561 1 9.456466312006892 28.983181080485625 3.5138754401532832 0 -1 0
3053 1 11.874740187391781 22.115910811350147 4.278838622153467 2 0 0
1576 1 13.246169339968528 4.894285990050763 24.518021035158593 1 0 0
2905 1 2.2082238126078146 23.973821598759425 11.527152487680661 1 1 1
2952 1 8.481074866133389 29.65088308706643 6.059735700686223 1 0 0
3318 1 6.282633636289767 29.495738471396614 8.06115240636426 0 0 0
1964 1 10.273050051805864 27.654671973815912 7.431013767608916 0 1 0
3931 1 13.788046144033364 25.940658290406937 8.923909256598373 0 0 1
3765 1 12.251342704085848 29.779671634104556 8.370391525456585 1 0 1
1998 1 11.714648076541751 26.142829641659752 5.367250522934095 1 0 0
4263 1 9.592331840924407 32.00919304043003 8.965998008439612 1 0 0
4185 1 8.835040636425598 32.49391713673279 6.236592372254772 2 0 1
4043 1 8.548090472159188 3.426639483261969 24.641835544093738 0 0 0
3301 1 16.91502556068048 26.902342601111005 4.468729284252398 1 0 -1
190 1 5.49523092858976 31.949486779910984 8.924426087114428 -1 0 -1
291 1 11.98608081506874 33.22323720476204 9.70337313276419 1 1 -1
372 1 16.78082494247229 30.880713913158544 7.676701825890542 0 0 -2
3295 1 15.720714242243977 34.89008854849375 7.424028161188647 1 0 0
3701 1 5.553025733032848 35.12335511392298 6.8433428723816885 1 0 1
1745 1 3.1931273261810573 36.409620469060954 8.135642686637945 0 0 0
4171 1 8.576534417920328 37.75978993514117 11.09535433025733 -1 -1 1
1059 1 11.40147131246238 37.068160813348214 7.96395834165693 1 0 1
286 1 13.259995624011792 38.688005301126594 9.228163541907083 0 0 1
76 1 16.533213072281217 37.13969577125091 6.310996312756534 -1 -1 0
703 1 14.942123423514131 33.0147770089029 19.567997095863298 0 0 0
3298 1 2.143420464026972 37.541774662885786 3.103034607306218 1 0 -1
2914 1 4.9809399121066775 41.224350559682435 8.173138655053753 -1 -1 0
3086 1 7.131498344685904 39.80108212832266 7.100133460259554 0 -1 -1
1516 1 16.658770674820985 41.733534104461086 8.202139934996536 0 -1 0
1607 1 3.241501436663721 39.12177214822066 9.277365330149772 1 -1 0
4529 1 5.099134972665169 12.454651206288455 0.47117738795066927 1 0 1
3132 1 3.658669702370577 43.7388728666224 8.04872154593448 1 1 1
4084 1 7.204272633747386 42.673467776910044 9.330364727858806 0 0 0
3191 1 9.662025286958823 41.545472652305435 8.078803363748229 1 1 0
3118 1 13.859219897935382 45.529900685981076 4.836115287700114 0 0 0
50 1 14.049629030448443 41.083152452785214 7.682719759969777 0 1 1
233 1 14.98839808328116 39.544178010940115 25.09832221991818 -1 0 -1
2628 1 1.5197036205293066 50.359095889647776 7.922972005217569 0 0 2
3623 1 1.230344374284695 48.52190111193396 10.029551662278198 0 0 1
1026 1 9.064592233456754 46.71824515920815 7.358126463163136 -1 0 1
2347 1 11.460713072893027 45.02181375604077 8.816926666984871 0 0 1
3293 1 15.83248592178061 43.18181173195828 10.481675111537367 1 -1 0
4475 1 3.8761328238674935 46.554434588198816 1.1431866204186334 0 -1 0
138 1 1.6138356825366909 1.766056122614482 9.693745393002224 0 0 1
1249 1 3.857665585143102 50.42935999089458 6.20867211160868 0 0 2
4361 1 4.096429713433431 48.31093138401086 9.388154344863462 1 -2 1
512 1 6.175629227740842 45.56195347809397 9.859147505760216 1 0 -1
2426 1 12.902982507635697 49.32854597063722 11.342082714797408 0 -1 0
625 1 5.951997634018352 49.661296845109405 10.487859871103769 1 1 0
3176 1 6.023556527160472 19.97118530700469 23.65218798185731 1 -1 1
4532 1 4.578321054874022 2.7048460305929436 10.777136908345694 1 1 1
801 1 5.324412046460628 5.264489909705757 11.691066818852816 1 0 1
1370 1 9.277283397835845 5.819145194059449 12.7196694495204 1 1 0
4476 1 2.4338749263681043 48.76310491931187 12.740063080482578 0 -1 1
4276 1 9.215182499876132 1.5033179683397067 10.485822552820789 1 -1 0
162 1 11.70150167735707 49.32837887639214 7.893510372579567 1 0 -1
824 1 14.840178645864627 0.788132434629925 9.735903273462103 0 0 1
2981 1 2.5033630507885825 4.354690333541471 12.486773967592084 2 0 1
4511 1 11.381667964023379 4.472673434694756 11.228672477103979 1 1 0
1342 1 16.142729355416755 3.403662700668069 11.568782587356926 1 0 1
304 1 5.75755224575135 8.013174393300371 12.516169673398913 0 1 0
2857 1 9.146398377921733 10.474985151471211 7.447707414073357 -1 0 0
1689 1 9.724165468311305 9.301456980597377 14.791017921226128 2 0 -1
2357 1 14.014183738832564 8.485930356319605 10.059415503249962 -1 0 1
1242 1 15.658350254273651 13.753358426819897 15.815453903025404 0 -1 0
552 1 4.172566948320108 8.767637499855704 3.3651811137610337 0 0 0
2409 1 2.9517093877253866 11.071344240571051 12.605818619975999 1 1 0
3364 1 5.396304625284974 10.421334894902875 13.737366722613904 2 1 -1
1235 1 6.327147374627284 12.913002204641739 13.195940187041034 0 0 1
2034 1 11.043217682586347 9.207927494792337 6.018285038354576 -1 1 1
2599 1 13.751945949691255 11.2515477856571 8.810356476759443 0 0 0
1738 1 15.978019072072536 11.929216043010863 12.06827342072618 0 0 1
657 1 17.06308273900642 8.30363156736034 22.852911981933804 0 1 0
2820 1 15.152846079151168 6.321956192729084 7.673956886824948 0 0 1
4082 1 1.2285826527635109 12.577132777630608 14.733856080570833 0 0 1
1735 1 5.046254954318185 15.099442484488902 14.319899619477324 0 -1 0
3320 1 9.64850368194473 16.788604818897205 8.691861171352212 1 0 0
4393 1 9.781566207285254 15.613596910545562 12.629991651011501 1 0 2
3220 1 12.068327791052697 10.78522118317113 14.53380970500487 0 0 0
2241 1 15.543050039140258 14.484097683045924 12.998022410736093 0 0 -1
3024 1 0.6503863612506584 40.41750511931971 9.719526948400576 0 -1 0
1685 1 3.8704228750347607 19.54623437638549 11.684222371014155 1 0 0
2720 1 10.631750622405354 10.857639212846728 1.9244950343211182 -1 0 -1
4056 1 8.313210164480838 19.783351686525656 12.014209460289239 1 1 1
2754 1 4.505925550989883 16.724508401839543 10.967822966936144 0 -1 1
2557 1 10.65198236517767 17.94254109418293 11.47668094752046 1 -1 0
4482 1 15.808183698626951 17.931080409324863 14.088239828017006 1 0 0
3100 1 15.437558731862728 17.345682105180643 11.125223693369707 0 0 1
2143 1 16.46188424848803 32.814189132138196 22.13732444431473 0 0 -1
1901 1 2.6961817912834256 24.334432707168325 14.51513829718632 -1 -1 0
2089 1 5.079374357786879 21.739037303252275 10.150093456476089 0 1 0
4442 1 7.760721082434241 23.34595715610806 8.404950153184025 0 -1 0
2394 1 0.43888236814413056 22.019665999735977 8.939036544121787 0 0 0
1012 1 17.503018169719237 22.269867314689957 13.983499086199776 1 0 0
4104 1 8.48507595828631 16.481232714826437 2.9952350267094885 0 0 1
3115 1 17.26846414372854 1.3718839233709001 3.964484412118917 2 0 0
2575 1 5.045675572587961 24.417430960875848 11.38567798770373 0 1 0
496 1 10.253632099660592 23.323576786334495 13.032105508947293 0 0 -1
4123 1 12.411922172566477 25.485765642972353 13.506107275054909 1 0 0
3248 1 11.850397810420494 24.598644826030075 10.436140403548954 0 -1 -1
1824 1 13.349323555073388 24.17951481429904 7.168537462876187 0 0 0
2742 1 2.142415654851549 27.979931984799226 7.191570044491102 1 -1 0
1262 1 8.8938714505952 25.5617406938035 9.15251927030661 2 0 0
2831 1 11.654031724886881 29.942544729023464 11.473771611945672 1 0 1
3992 1 16.68863703344565 27.418013338906256 11.769535903646878 0 -1 0
309 1 0.05103138511010741 41.899578592433244 13.984988465151782 0 0 1
2840 1 7.5924901578689745 33.81249377591715 9.537947120437023 0 -1 0
4148 1 9.180864542664121 29.323286610362313 9.946287859768299 1 0 0
1355 1 13.804838959310167 31.698498904680292 11.32772308014022 0 -1 1
1420 1 14.859395041367106 22.099942730231596 24.743965517693223 0 -1 0
517 1 1.7908045616226793 33.76925131065748 8.674245303697713 0 -1 -1
1551 1 7.112136095894987 29.367140370551407 12.404718753686879 0 1 0
901 1 9.245887023541277 34.32666828092482 13.827975085731147 0 0 1
2139 1 13.888718814041198 34.906012283390496 11.504568931851843 0 -1 0
2014 1 14.695220543689947 29.31114417385249 9.748003503839328 1 0 -1
4243 1 3.6895042559949225 15.278559370050008 24.21087113315707 0 0 1
1446 1 1.160262209974663 34.823051956658375 11.994872033728944 1 0 2
4105 1 7.31922030641688 35.2052891177118 12.104276330477692 0 0 0
3923 1 6.350488305255692 37.98719711031326 9.286382801603215 1 1 0
436 1 11.50542079083767 38.884646673130916 11.5554013089669 0 1 1
428 1 16.231181587707088 34.670800706793656 10.105285844457201 1 1 0
195 1 15.172719437242138 37.56296552032043 11.384739034974727 -1 0 1
3667 1 4.443586998498419 38.675776240703456 11.898400137225401 1 0 -1
3221 1 5.283437389204222 40.958116297869765 12.802906668149285 1 0 0
1401 1 6.766907014385955 38.13708582315988 13.26570795324374 0 0 1
3390 1 14.244736660305046 40.02748018614251 12.563444214878452 1 -1 -2
2194 1 1.4263531979315889 3.7653492131789092 6.1189769982007345 1 -1 0
1897 1 0.0667475758537186 10.088571378125827 1.4981207302542627 1 0 1
3896 1 2.5870643251621783 42.44874708046413 12.610623954751219 0 0 0
446 1 7.850567402705937 42.46911644609931 11.88183087473451 -1 0 1
2428 1 12.07824449181127 42.498999311047086 9.362119171570924 0 1 0
4209 1 16.8751990909769 41.10810709419464 12.56343632535315 0 -1 0
4396 1 7.909931097511932 25.49898652811553 24.179707947009543 1 0 -2
580 1 0.15280734309239222 45.653243564695586 9.638733060586405 0 0 0
4111 1 1.6043099636182785 48.12203428957069 15.227221452419297 1 0 1
665 1 2.666417491187343 44.531601463138216 10.221600757105618 0 0 1
351 1 9.884655277322091 44.08836933806971 6.41175311691384 0 0 -1
1768 1 4.279063963918097 46.362419636969676 11.609071751465454 0 -1 0
3959 1 8.349481947666039 46.76261469788756 12.659635629433488 0 0 0
761 1 10.0322527533314 44.757376954437674 11.444854980957908 -1 0 0
1755 1 12.60796656636446 45.709845310469746 12.297702964789615 -1 0 0
4508 1 13.899680670771756 30.884956195100735 2.224181320016104 1 0 2
55 1 6.62174534316569 1.5700747321971278 9.50520601285847 0 1 1
2368 1 5.445043494713832 48.9099783093868 13.122912448823396 1 0 0
3432 1 10.467358440789734 49.608662809648706 10.2585410525837 0 -2 0
841 1 15.956745271328913 45.90350161011084 11.1752897941065 1 -2 1
3962 1 3.5571493531429392 0.2310759049727255 11.706954884543972 1 -1 0
2572 1 7.172574334836983 4.926841018423436 15.017023604449276 1 1 1
2870 1 5.445659721788068 1.8419782068790733 17.58270629170717 1 1 1
1399 1 9.433582992455657 2.508330750731225 17.447734172626113 0 1 1
2646 1 9.350730289454654 2.0163881824206986 13.166185595106345 1 1 0
1021 1 12.1113409733096 0.5229231736723614 13.368606437710374 0 0 1
3196 1 14.792443019030404 4.799873508773618 14.19102739848965 1 0 0
1410 1 1.5370639861684086 32.33649887797765 12.81359268282748 0 0 0
3864 1 7.092409524413006 4.723724543969723 18.13266688817067 1 0 1
4017 1 9.675561316666244 5.335665250155459 16.10562074626014 0 0 1
4543 1 14.371862513951434 7.371286278551794 13.089581464867296 0 1 2
2231 1 17.27106088612902 3.295905136576493 15.378390982507291 0 2 0
1140 1 5.240159733234297 7.244773063035159 15.119883506158788 0 -2 0
618 1 2.6638092386601255 5.688472545887145 15.054214246217457 0 1 0
2645 1 11.585230605992791 7.032546731762126 13.93620490974649 2 0 2
3180 1 6.146869422064647 9.645807391687365 16.89712947562806 0 1 0
3341 1 12.068386395895086 3.9275163602284695 14.426894768966664 1 1 0
588 1 5.172260216264842 9.333813908243876 19.502763356254736 0 1 0
1463 1 10.479580109700867 12.46940673443576 12.18403384559744 0 2 1
3836 1 7.488422984573416 8.6617360309834 20.96841330938132 0 -1 1
1267 1 17.615946788071327 47.02119457265563 19.752622964085244 -1 -1 0
668 1 0.1669431169810025 2.473483661328171 24.266216867182855 0 2 0
1991 1 8.475871895174485 11.309116319437338 17.08453938462336 1 -1 -1
3411 1 13.712315332098996 10.487248070637431 12.083409171970533 1 1 1
2270 1 8.830489215788804 12.436314815023875 14.403374010657654 1 1 0
1956 1 17.725934797359542 32.99946582380946 6.391956762964118 1 0 1
4304 1 5.615586183905748 17.245862213118738 25.00099340265577 0 2 1
944 1 10.036525698832646 14.383786124648676 16.150057241091293 0 -1 0
2968 1 15.73329785556773 18.248543228305046 18.72149016896427 -1 0 1
2723 1 14.412062334188462 50.02963512476656 24.138786001799154 0 1 0
432 1 0.4107719908109998 14.82100001325738 12.989709894152421 0 0 1
2689 1 1.064053620217538 21.224424842241444 11.594197688437067 0 0 0
4236 1 9.273107432301872 23.73648879791497 15.892707924869898 1 0 0
1300 1 6.9980771437694544 17.30662868820827 12.195568645011946 0 0 2
526 1 12.990492713269159 17.482883968353875 13.163121999831821 1 0 -1
1859 1 13.147330894027114 15.236405440443981 15.791043263214885 0 0 1
378 1 13.33730844478357 18.031841318894564 16.403539612225142 0 0 0
1119 1 1.6573739167657235 47.419723437483896 24.559743989095704 0 1 1
3964 1 0.21889216930163785 43.697636542458 18.511288501327833 1 0 1
3851 1 3.4124977187530954 18.94518854335516 14.292768369327685 1 0 0
1127 1 11.528335566719432 20.654836254263202 12.926241853721459 0 0 -1
2950 1 14.877185883661006 21.82071476644196 11.007709808828471 1 0 1
3548 1 15.995087116042628 22.768920217789656 16.442692111079214 1 0 0
3834 1 12.661588678864076 20.159272636680036 10.001997059674347 1 0 0
2576 1 10.158869490941614 35.67053054310432 24.591223745737302 1 -1 -1
4462 1 17.241887392073213 3.113272775346303 1.4738986955513516 0 2 0
118 1 7.778579940161823 24.801977477000996 11.935605942096268 0 0 -1