

read_data data.ice_${TEMP}K_${PRES}atm_ML group ice
read_data data.ice_293K_${PRES}atm_ML group ice
read_data data.ice_293K_1atm_ML group ice
Reading data file ...
  orthogonal box = (0.00939857 0.0083542844 0.0083542844) to (57.261111 50.898766 50.898766)
  3 by 1 by 2 MPI processor grid
  reading atoms ...
  4608 atoms
  reading velocities ...
  4608 velocities
  read_data CPU = 0.032 seconds
read_data data.liq_${TEMP}K_${PRES}atm_ML add append shift ${X_HI} ${YZ_LO} ${YZ_LO} group water
read_data data.liq_293K_${PRES}atm_ML add append shift ${X_HI} ${YZ_LO} ${YZ_LO} group water
read_data data.liq_293K_1atm_ML add append shift ${X_HI} ${YZ_LO} ${YZ_LO} group water
read_data data.liq_293K_1atm_ML add append shift 50.8987657155523 ${YZ_LO} ${YZ_LO} group water
read_data data.liq_293K_1atm_ML add append shift 50.8987657155523 -0.00835428444437269 ${YZ_LO} group water
read_data data.liq_293K_1atm_ML add append shift 50.8987657155523 -0.00835428444437269 -0.00835428444437269 group water
Reading data file ...
  orthogonal box = (0.00939857 0.0083542844 0.0083542844) to (104.26455 50.898766 50.898766)
  3 by 1 by 2 MPI processor grid
  reading atoms ...
  4608 atoms
  reading velocities ...
  4608 velocities
  read_data CPU = 0.017 seconds

write_data data.icewater_test
System init for write_data ...
WARNING: Communication cutoff is 0.0. No ghost atoms will be generated. Atoms may get lost. (../comm_brick.cpp:167)

# Define potential
#
pair_style sw
pair_coeff * * /data/emrosky-sim/Freezing_Simulations/Melting/MLmW_fancy/ML_mW.sw mW
Reading sw potential file /data/emrosky-sim/Freezing_Simulations/Melting/MLmW_fancy/ML_mW.sw with DATE: 2019-02-27

# Delete water and ice atoms that are overlapping
#
delete_atoms overlap 2.5 water ice
System init for delete_atoms ...
Neighbor list info ...
  update every 1 steps, delay 10 steps, check yes
  max neighbors/atom: 2000, page size: 100000
  master list distance cutoff = 6.0032907
  ghost atom cutoff = 6.0032907
  binsize = 3.0016454, bins = 35 17 17
  2 neighbor lists, perpetual/occasional/extra = 1 1 0
  (1) command delete_atoms, occasional, copy from (2)
      attributes: full, newton on
      pair build: copy
      stencil: none
      bin: none
  (2) pair sw, perpetual
      attributes: full, newton on
      pair build: full/bin/atomonly
      stencil: full/bin/3d
      bin: standard
Deleted 708 atoms, new total = 8508

# set timestep
#
timestep 10.0

# Define output
#
compute 1 all msd
thermo 50
thermo_style custom step temp press vol etotal ke pe c_1[4]

# Neighbor lists
#
neigh_modify delay 0 every 1 check yes

# Set fixes
#
fix 1 all momentum 10 linear 1 1 1 rescale
fix 2 all nph iso ${PRES} ${PRES} ${PCOUPL}
fix 2 all nph iso 1 ${PRES} ${PCOUPL}
fix 2 all nph iso 1 1 ${PCOUPL}
fix 2 all nph iso 1 1 10000.0
fix 3 all temp/csvr ${TEMP} ${TEMP} ${TCOUPL} 837492
fix 3 all temp/csvr 293 ${TEMP} ${TCOUPL} 837492
fix 3 all temp/csvr 293 293 ${TCOUPL} 837492
fix 3 all temp/csvr 293 293 5000.0 837492


# Fix ice atoms in place
#
velocity ice set 0.0 0.0 0.0
fix 4 ice setforce 0.0 0.0 0.0

# Run 1.0 ns equilibration of water
#
dump 1 all atom 1000 eq.all.${NAME}.dump
dump 1 all atom 1000 eq.all.coexist_293K_1atm_ML.dump
run 100000
Neighbor list info ...
  update every 1 steps, delay 0 steps, check yes
  max neighbors/atom: 2000, page size: 100000
  master list distance cutoff = 6.0032907
  ghost atom cutoff = 6.0032907
  binsize = 3.0016454, bins = 35 17 17
  1 neighbor lists, perpetual/occasional/extra = 1 0 0
  (1) pair sw, perpetual
      attributes: full, newton on
      pair build: full/bin/atomonly
      stencil: full/bin/3d
      bin: standard
Per MPI rank memory allocation (min/avg/max) = 4.590 | 4.598 | 4.604 Mbytes
Step Temp Press Volume TotEng KinEng PotEng c_1[4] 
       0    134.66783   -907.72533    270003.53   -84170.471    3414.8733   -87585.345            0 
      50    159.33114   -112.89628    268744.69   -83800.313    4040.2794   -87840.593   0.86452337 
     100    165.60612    349.26591    266998.58   -83485.189    4199.3988   -87684.587    1.8335482 
     150    173.05836    492.28636    266522.73   -83158.024    4388.3709   -87546.395    2.8760535 
     200    178.43635    231.41681    267464.07   -82860.762    4524.7446   -87385.507    3.8690135 
     250    184.34884   -319.93096    268525.96   -82576.725     4674.672   -87251.397    5.0655584 
     300    188.39645   -25.034843    268656.04   -82287.312    4777.3103   -87064.622    6.3127049 
     350    193.05155    117.84558    268419.71   -81972.516    4895.3533    -86867.87    7.8096573 
     400    198.82662    277.99206    268472.14   -81778.544    5041.7961    -86820.34    9.2586307 
     450    199.35765    201.45257    268807.03   -81553.719    5055.2616    -86608.98    10.767191 
     500    205.59137     49.97574    269184.83   -81341.462    5213.3348   -86554.797    12.443938 
     550     206.0102   -154.97313    269567.36   -81150.364    5223.9555   -86374.319    14.047294 
     600    214.58208    289.51127    269650.67   -80944.688     5441.319   -86386.007    15.483163 
     650    215.21538   -24.915766    269969.42    -80774.32     5457.378   -86231.698    17.052293 
     700    222.06226   -291.52083    270132.89   -80545.688    5630.9996   -86176.687    18.952319 
     750     222.3254    250.70091    269900.83   -80389.371    5637.6722   -86027.044    20.718878 
     800    226.69134    -113.4161    270144.53   -80225.511    5748.3826   -85973.893    22.472735 
     850    224.79101   -170.80372    270524.24   -80086.058    5700.1944   -85786.252    24.491857 
     900    230.88224    120.38682    270456.24   -79946.644    5854.6543   -85801.298    26.591714 
     950     235.8776    294.92087    270340.37    -79805.52    5981.3255   -85786.846    28.631335 
    1000    238.31489   -115.89634    270757.01   -79619.775    6043.1298   -85662.905    30.750261 
    1050    237.85745   -226.56613    271272.25   -79504.632    6031.5299   -85536.162    33.358658 
    1100    243.68635    -355.8323    271642.85   -79344.632    6179.3377    -85523.97    35.691854 
    1150    247.25008   -197.89886     271478.1   -79185.424    6269.7059    -85455.13    38.177113 
    1200    251.68718    3.9643312    271186.07   -79104.907    6382.2209   -85487.128    40.533936 
    1250    252.22155    53.074168    271134.52   -78997.938    6395.7713   -85393.709    43.027745 
    1300    248.83085    276.19085    271356.13   -78927.686    6309.7908   -85237.477    45.674966 
    1350    253.62557    76.145436     271931.9   -78768.692    6431.3741   -85200.066    48.145247 
    1400    256.63893   -126.64723    272474.08   -78663.971    6507.7861   -85171.757    50.864864 
    1450     258.3102   -62.487045    272662.78    -78545.47    6550.1658   -85095.636    53.516005 
    1500     258.3469   -115.64762    272480.44   -78508.354    6551.0963    -85059.45    56.399415 
    1550    257.18958    149.49948    272196.23   -78392.245    6521.7493   -84913.995    59.246377 
    1600    261.71035   -125.56318    272320.13   -78307.363     6636.386   -84943.749    62.090598 
    1650    260.89792    194.33176    272459.37   -78243.395    6615.7844    -84859.18    64.768376 
    1700    264.21852   -146.14044    272756.85   -78174.823    6699.9876   -84874.811    67.206246 
    1750    265.60938    163.96233     272798.9    -78070.28    6735.2565   -84805.536    70.058319 
    1800    264.81117   -157.32079    272617.66   -78034.959    6715.0159   -84749.975    72.941792 
    1850    268.00555    21.350801    272396.08   -77933.174     6796.018   -84729.192    75.840341 
    1900    269.98042   -14.886835    272640.92    -77873.87    6846.0962   -84719.967    79.039184 
    1950    271.22715   -296.45386    272911.05   -77804.763    6877.7104   -84682.473    81.788978 
    2000    271.69535    -266.6034     272962.4   -77697.595    6889.5832   -84587.178    85.001861 
    2050    275.13397   -125.72112    272902.93   -77662.098    6976.7787   -84638.877    88.180682 
    2100    276.10859     278.1676    272726.64   -77622.948     7001.493   -84624.441    91.136457 
    2150    275.46607  -0.47556319    272964.03   -77520.606    6985.2001   -84505.806     94.23948 
    2200     276.9525   -88.286815     273313.1   -77452.222    7022.8925   -84475.115    97.578763 
    2250    276.27788   -86.937486    273400.78   -77429.767    7005.7858   -84435.552    101.03111 
    2300    276.06061    146.19648    273346.19   -77408.632    7000.2762   -84408.908     104.1686 
    2350    276.99027   -78.804375    273439.78    -77339.93    7023.8503   -84363.781    107.16936 
    2400    278.84117   -193.98299    273617.16   -77344.972    7070.7849   -84415.756    109.90008 
    2450    277.95179   -203.49062    273622.85    -77364.96    7048.2322   -84413.192    113.19953 
    2500    281.73145   -67.806604    273389.41   -77373.335    7144.0759   -84517.411    116.46022 
    2550    281.73913    197.16078    273143.08   -77283.472    7144.2707   -84427.743    119.55263 
    2600    278.84099    82.865426    273111.69   -77286.962    7070.7804   -84357.742    123.20747 
    2650    281.38039   -80.608125       273255   -77298.236     7135.174    -84433.41    126.14889 
    2700    279.27104    -162.8727    273606.09   -77248.582    7081.6855   -84330.268    129.34966 
    2750    281.91371   -37.557705    273747.53   -77200.345    7148.6976   -84349.043    131.93728 
    2800    284.35111     33.11356    273509.77   -77237.894    7210.5048   -84448.399    134.52621 
    2850    279.30467    247.75089    273252.81   -77191.799    7082.5384   -84274.337    137.03068 
    2900    283.95809    250.33522    273100.74   -77146.862    7200.5387     -84347.4    139.23927 
    2950    281.94121    190.70411     273303.9   -77132.734    7149.3951   -84282.129    141.71544 
    3000      282.156    73.183417    273697.42   -77131.263    7154.8416   -84286.105    144.46025 
    3050    279.29763   -112.86852    273830.99    -77095.07    7082.3597    -84177.43    147.35709 
    3100    285.21559   -4.2267559    273909.07   -77031.611     7232.426   -84264.037    150.06845 
    3150    286.39658    60.848645    273790.32   -76984.024    7262.3733   -84246.397    152.41817 
    3200    289.55381   -82.958976       273618   -76944.812    7342.4334   -84287.245    155.30677 
    3250    292.53381   -27.138812    273438.79   -76921.814    7417.9996   -84339.813     158.4477 
    3300    284.40445    222.42628    273511.97   -76932.301    7211.8574   -84144.159    161.54503 
    3350    288.86693     323.0717    273787.66   -76955.664    7325.0158    -84280.68    164.51739 
    3400    284.91087   -197.80827    274109.15   -76959.896    7224.6989   -84184.595      167.606 
    3450    280.92331    217.33188    273918.87   -77009.432    7123.5833   -84133.015    170.70593 
    3500    283.80171     16.08055     273517.6   -77006.563    7196.5731   -84203.136    172.75975 
    3550    286.80134    104.19646    273334.98   -76993.087    7272.6371   -84265.724    175.22092 
    3600    282.24736   -120.27206    273681.18   -76970.796    7157.1584   -84127.954    178.42842 
    3650    285.80928    -143.4698    273870.79   -76943.623    7247.4805   -84191.104    181.48681 
    3700    285.04105   -97.027515    273863.28   -76892.514    7227.9999   -84120.514     184.4961 
    3750    289.50443   -101.70174    273805.75   -76786.505    7341.1813   -84127.686    186.61485 
    3800    290.04426   -24.634956    273909.44   -76786.836    7354.8701   -84141.706     189.6058 
    3850    291.89786   -215.88702    274193.34   -76735.464    7401.8734   -84137.338    192.41402 
    3900    292.94239   -126.09156    274139.64   -76705.369    7428.3602    -84133.73    195.47421 
    3950    285.95215    92.325271    274058.72   -76694.489    7251.1036   -83945.593    198.36971 
    4000    291.42326     265.5101    273930.74   -76756.132    7389.8384    -84145.97    201.75524 
    4050    288.80228   -99.560988    274186.07   -76755.172    7323.3763   -84078.548    204.60207 
    4100     290.9997    -262.5024    274095.94   -76739.461    7379.0979   -84118.559    207.43994 
    4150    284.34032    108.91087    273688.02   -76769.315    7210.2311   -83979.546    209.60267 
    4200    290.23767    8.7946488    273287.11   -76742.755    7359.7746    -84102.53    212.37668 
    4250    292.61688     436.6223     273364.1   -76725.639     7420.106   -84145.745      215.854 
    4300    288.04654    126.53328    274164.79   -76710.442    7304.2125   -84014.654    219.99923 
    4350    290.11015   -25.166908    274800.58   -76702.986    7356.5409   -84059.527    223.46562 
    4400    289.02998   -5.6198293    274680.79   -76723.589    7329.1502   -84052.739    226.24475 
    4450    292.06535    87.489661    274194.96   -76706.387    7406.1203   -84112.508    228.21214 
    4500    295.89424   -209.77308    273643.05   -76687.482    7503.2124   -84190.695    230.34108 
    4550     296.0542    239.33203    273373.27    -76682.71    7507.2688   -84189.979    233.15664 
    4600    295.96503    95.081919    273941.43   -76658.346    7505.0077   -84163.354    236.73414 
    4650    281.04326    -16.38966    274608.33   -76654.771    7126.6249   -83781.396    240.35647 
    4700    285.08952   -164.69411    274745.21   -76647.172     7229.229   -83876.401    243.83172 
    4750    295.04617    96.528867    274062.32   -76682.978    7481.7073   -84164.685     246.8545 
    4800    291.24975     64.86735    273513.02   -76654.779    7385.4386   -84040.218    249.32316 
    4850     301.1587    229.78337    273719.64   -76627.605    7636.7074   -84264.312    252.01838 
    4900    290.46236   -2.8985908    274457.24   -76627.253    7365.4722   -83992.725    255.39233 
    4950    288.47859   -146.95957    274935.52   -76632.139    7315.1682   -83947.308    258.29243 
    5000    296.39797   -253.38029    274932.88    -76629.39     7515.986   -84145.376     260.7042 
    5050    293.02979   -319.97216    274336.69   -76638.232    7430.5766   -84068.808    263.36271 
    5100     288.2373    321.07537    273504.88   -76618.792    7309.0496   -83927.842    265.33607 
    5150    292.15008    285.02815    273202.91   -76637.646    7408.2689   -84045.914    267.85467 
    5200    294.92922   -148.00192    273887.11   -76590.264    7478.7418   -84069.006    272.55044 
    5250    293.78338   -244.71049    274530.13   -76566.444    7449.6858    -84016.13    275.50467 
    5300    295.32032   -150.64684    274648.26   -76515.171    7488.6592    -84003.83    278.85937 
    5350    293.09092    125.27046    274269.56   -76503.358    7432.1266   -83935.484    282.15122 
    5400    300.66977    85.146331    274063.93     -76524.8    7624.3093    -84149.11    285.86316 
    5450    299.88669    32.142034    274249.21   -76518.441    7604.4521   -84122.893    289.36404 
    5500    296.19834   -68.518016    274369.35   -76523.402    7510.9239   -84034.325    293.21582 
    5550    296.02536    57.103312    274216.32   -76562.784    7506.5374   -84069.322    296.05451 
    5600    292.62351   -57.012548    274277.69    -76523.01     7420.274   -83943.284    298.85114 
    5650    292.64704   -56.436062    274414.05   -76514.738    7420.8709   -83935.609    301.53978 
    5700    298.67259    55.182823    274408.34   -76469.187    7573.6651   -84042.852    303.67355 
    5750    291.87184   -17.563279    274398.71   -76491.428    7401.2134   -83892.641     307.1839 
    5800     295.8386    85.639364    273964.15   -76519.538    7501.8015    -84021.34    311.12227 
    5850     299.0718   -156.58326    273611.31   -76509.316    7583.7882   -84093.104    314.06161 
    5900     294.9431    258.85534    273697.87   -76476.429    7479.0936   -83955.522    317.26224 
    5950    291.85233    8.5237243    274302.01   -76450.036    7400.7186   -83850.754    320.97251 
    6000    295.40714   -70.965015    274792.19   -76495.158    7490.8608   -83986.019     325.3391 
    6050    296.06192   -208.80889    275130.09   -76543.268    7507.4646   -84050.733    327.96618 
    6100    292.72675    37.298272    274696.67   -76533.304    7422.8921   -83956.196    330.24517 
    6150     292.5195    18.204346    273951.28   -76502.261    7417.6367   -83919.898    332.36614 
    6200    298.00094    220.84369    273703.27   -76504.976    7556.6338   -84061.609    334.81168 
    6250    298.48372    140.38854     274041.3   -76461.616     7568.876   -84030.492    337.78332 
    6300    298.20605    153.36276    274788.11   -76467.412    7561.8347   -84029.247    340.71195 
    6350    294.75158   -424.24024    275136.79   -76495.956    7474.2372   -83970.194    344.67281 
    6400    297.48343    161.68712    274708.04   -76428.404    7543.5107   -83971.915    347.35944 
    6450    302.47899   -38.552606    274049.93   -76427.448    7670.1868   -84097.635    349.11453 
    6500    295.68351   -38.255994     273773.2   -76425.989    7497.8689   -83923.858    351.63247 
    6550    294.81716    225.75678    273915.54   -76426.707       7475.9   -83902.607    354.33797 
    6600    291.46919    68.343878    274505.34   -76514.375    7391.0032   -83905.379    358.47924 
    6650    295.85907   -137.77396    274873.98   -76545.702    7502.3207   -84048.023    361.34056 
    6700    294.75494   -127.29715    274862.32   -76560.304    7474.3225   -84034.626    364.07014 
    6750    289.76838    5.6707908    274439.64    -76589.68    7347.8744   -83937.555    365.48994 
    6800    291.57591    252.78184    273794.91   -76596.423    7393.7093   -83990.132    367.85959 
    6850    296.85444    207.51408    273551.11   -76606.861     7527.561   -84134.422     370.5837 
    6900    297.95822    287.73615    273702.98   -76632.519    7555.5504   -84188.069    373.41779 
    6950    295.16442   -232.68089    274154.19   -76615.598    7484.7058   -84100.304    376.48546 
    7000     295.7327   -216.61731    274503.78   -76598.889    7499.1163   -84098.005    380.85253 
    7050    293.63897   -65.340719    274526.32   -76582.592    7446.0239   -84028.616    383.44117 
    7100    294.82181    15.882244    274370.18   -76533.575    7476.0181   -84009.593    386.14258 
    7150    292.86892    48.482263    274205.63   -76547.061    7426.4972   -83973.558    389.05147 
    7200    295.76641   -8.1242186    274115.33   -76523.343     7499.971   -84023.314    391.79668 
    7250    297.92788   -96.732764    274167.26   -76483.786    7554.7811   -84038.567    394.43823 
    7300    294.11598    176.16267    274148.46   -76476.944    7458.1199   -83935.064    397.79731 
    7350    293.51629    56.106181    274123.75   -76493.071    7442.9131   -83935.984    399.37049 
    7400     298.0664    65.049722    274218.69   -76505.104    7558.2936   -84063.398    402.69392 
    7450    295.44704    48.824867    274401.13   -76478.076    7491.8726   -83969.949     406.5561 
    7500    295.62975   -252.32717    274568.59   -76500.432    7496.5056   -83996.937    408.89638 
    7550    290.19034   -49.211852    274400.24   -76544.778    7358.5745   -83903.353    410.38373 
    7600    294.14106    9.4304639    274343.65   -76548.472    7458.7558   -84007.227    412.94132 
    7650    292.53083   -156.51382     274692.6   -76522.532    7417.9241   -83940.457    416.23352 
    7700     292.3241    157.92885    274819.85   -76516.681    7412.6819   -83929.362    419.64679 
    7750    291.11229     16.56914     274722.2   -76531.764     7381.953   -83913.717    422.96828 
    7800    295.12894   -10.694932    274546.31    -76575.26    7483.8061   -84059.066    425.15305 
    7850    291.70359    5.0246114     274466.7   -76559.677    7396.9471   -83956.625    427.44037 
    7900    292.10277    93.445409    274065.41    -76520.91    7407.0692   -83927.979     430.1675 
    7950    298.30582    286.40655    273795.51   -76541.526    7564.3648   -84105.891    431.95538 
    8000    294.98176    62.406561    274117.77   -76544.798     7480.074   -84024.872    434.41754 
    8050    290.74963    18.145615     274434.2   -76557.346    7372.7567   -83930.102    436.97398 
    8100    296.96104   -129.47356    274451.82   -76594.079    7530.2641   -84124.343      439.736 
    8150    291.05722    209.74535    274027.48   -76634.454    7380.5565   -84015.011    441.75577 
    8200    291.94437    -5.950013    273980.11   -76601.601    7403.0528   -84004.653    445.05337 
    8250    292.64185    147.36075    274275.95   -76599.422    7420.7392   -84020.161     448.1444 
    8300    296.09154   -152.25168     274699.8   -76582.958    7508.2156   -84091.174    450.58186 
    8350    293.11598    105.95862    274793.86   -76651.113    7432.7622   -84083.875    453.67754 
    8400    291.66818   -24.882538    274546.54   -76657.956     7396.049   -84054.005    457.06412 
    8450    296.51255   -150.85318    274168.93    -76656.09    7518.8914   -84174.981     459.7814 
    8500    290.49658    184.88852    273624.39   -76597.123      7366.34   -83963.463    461.03068 
    8550    294.75347    81.107247    273564.11    -76556.29    7474.2851   -84030.575    464.58511 
    8600    290.00607    112.14242    273966.27   -76562.195    7353.9019   -83916.096    468.68575 
    8650    293.16152   -344.69077    274684.41   -76522.417    7433.9169   -83956.334    473.41285 
    8700     294.7304   -187.23663    275015.47     -76488.1    7473.7002   -83961.801    477.28941 
    8750     299.3986   -273.52464     274931.1    -76468.25    7592.0753   -84060.325    480.18752 
    8800    298.76779     67.08238    274393.58   -76447.269    7576.0792   -84023.348    482.08991 
    8850    294.12775    244.62153    274028.63   -76421.766    7458.4184   -83880.184    483.55836 
    8900     298.9679    111.46557    274121.58   -76431.954    7581.1537   -84013.108    486.88969 
    8950    295.33163   -91.984558    274674.25    -76413.73    7488.9459   -83902.675    491.04695 
    9000    295.21912   -231.55411    275238.85   -76419.629     7486.093   -83905.722    494.26956 
    9050    301.93558     94.39927    274994.58   -76393.459    7656.4072   -84049.866    495.84933 
    9100    294.30439    119.87666    274459.67   -76402.585    7462.8974   -83865.482    497.91863 
    9150    295.16029    281.26048    274007.24   -76428.142    7484.6013   -83912.744     500.6937 
    9200    296.80658    134.51295    274171.35    -76383.58    7526.3474   -83909.927    503.52456 
    9250    295.10554    229.96916    274753.89   -76368.954    7483.2128   -83852.166    507.43158 
    9300    297.27997   -462.60003    275154.65   -76429.977    7538.3514   -83968.329    512.62814 
    9350    292.61734   -34.130925    274621.57    -76427.76    7420.1177   -83847.878    515.89893 
    9400     291.6744    191.69173    274007.83   -76467.485    7396.2069   -83863.692    518.02103 
    9450    296.97148    152.63398    273797.69     -76482.6    7530.5289   -84013.128    520.03052 
    9500    299.25824   -23.086593    273995.22   -76473.191     7588.516   -84061.707    522.12292 
    9550    299.30745   -39.100747    274258.45   -76476.969    7589.7637   -84066.733    525.82393 
    9600    294.99681   -245.32804    274485.12   -76473.644    7480.4556     -83954.1    529.05499 
    9650    292.16441   -33.821874    274596.18   -76429.943    7408.6323   -83838.575    531.68396 
    9700    298.31349    193.89538    274601.66   -76434.107    7564.5592   -83998.666    534.70777 
    9750    290.39726     242.7372    274708.72   -76508.989    7363.8213    -83872.81    538.66504 
    9800    296.98007   -228.46298    274619.12   -76486.279    7530.7467   -84017.025    541.99983 
    9850    300.19269   -123.31639    274336.36   -76491.642    7612.2115   -84103.854    544.61191 
    9900    298.58384    203.22794    274107.18    -76446.64    7571.4148   -84018.055    546.32615 
    9950    293.87516    16.125579    274315.63   -76457.637    7452.0131    -83909.65    548.06316 
   10000    296.83426    45.616142    274536.79   -76478.315    7527.0492   -84005.365    551.22226 
   10050    294.87754    36.249239    274543.85   -76479.523    7477.4312   -83956.955    554.45959 
   10100    296.12996    -210.4392    274664.88   -76472.074    7509.1898   -83981.264     556.6717 
   10150    294.05082    68.583152     274564.2   -76472.933    7456.4674     -83929.4    560.30798 
   10200     297.5306  0.020538553    274307.91   -76507.152     7544.707   -84051.859    562.33772 
   10250    293.27934    159.64776    274295.69   -76451.889    7436.9044   -83888.793    565.08664 
   10300     297.4332    -87.79503    274216.13   -76425.838    7542.2371   -83968.076    566.95511 
   10350    295.30451   -282.81861    274077.56    -76447.72    7488.2582   -83935.978    569.68765 
   10400    297.32994    -25.87287    273917.43   -76478.052    7539.6186    -84017.67     572.9087 
   10450    297.24089    99.647425    274171.02   -76456.403    7537.3605   -83993.763     577.0695 
   10500    292.47413   -184.99997    274702.26   -76430.555    7416.4863   -83847.041    580.96235 
   10550    292.02271    234.16359    274957.84   -76403.544    7405.0391   -83808.583    583.02095 
   10600    294.38946   -27.956897    275041.69   -76398.634    7465.0545   -83863.689    585.10465 
   10650    294.86054   -70.273032    274663.03   -76428.734    7477.0002   -83905.734    587.01634 
   10700    297.53803   -5.3366207    274266.31   -76476.476    7544.8953   -84021.371    588.42965 
   10750     298.0964    154.10155    274239.67   -76472.383    7559.0542   -84031.437     591.3284 
   10800    296.06984   -112.10323    274424.23   -76476.207    7507.6652   -83983.872    593.27279 
   10850    297.27136    79.292173    274572.63   -76484.574    7538.1332   -84022.708    596.50873 
   10900    292.04178   -252.75057    274482.88   -76482.638    7405.5228   -83888.161      598.703 
   10950    299.95844   -17.971103    273920.24   -76528.135    7606.2714   -84134.406    599.28813 
   11000    293.69162   -20.449829    273641.37   -76553.886     7447.359   -84001.245    601.50932 
   11050    294.54716    101.09198    273879.81   -76546.263    7469.0536   -84015.317    604.44103 
   11100    292.92095   -113.81258    274382.53   -76582.807    7427.8167   -84010.624    607.08992 
   11150    291.33259    -67.99356    274595.09   -76579.275    7387.5392   -83966.815     609.4994 
   11200    291.38981    250.10596    274351.09   -76591.291    7388.9904   -83980.282    610.91872 
   11250    298.42354   -261.80715    274180.14   -76586.455      7567.35   -84153.805     613.2996 
   11300    295.72718    33.980542    274034.78   -76605.429    7498.9762   -84104.405    615.66155 
   11350    290.84117    21.929908    274172.96   -76613.595    7375.0779   -83988.673     618.7016 
   11400    293.80946    233.84202    274437.93   -76627.075    7450.3472   -84077.422    621.22494 
   11450    292.33922   -148.89153    274898.83   -76583.127    7413.0652   -83996.192     626.2971 
   11500    290.04414    17.848922    274745.24   -76502.904    7354.8672   -83857.771    629.22104 
   11550    297.01505   -46.185057    274045.44   -76497.846    7531.6336    -84029.48    629.92302 
   11600    294.77161    279.80789    273613.77   -76537.489    7474.7452   -84012.234    632.54969 
   11650    298.85329    309.89166    273671.47   -76624.286    7578.2474   -84202.533    634.98561 
   11700    295.95348   -187.46938    274252.53   -76595.378    7504.7146   -84100.093    637.57817 
   11750    293.44343    -248.6695    274630.25   -76638.821    7441.0655   -84079.886    641.00995 
   11800     291.6284   -228.14112    274556.59   -76678.556    7395.0404   -84073.596     643.1508 
   11850    294.37593    20.620805    274084.52   -76693.382    7464.7116   -84158.094    645.16662 
   11900    296.67414    180.46885    273836.62    -76680.99    7522.9889   -84203.979    647.20685 
   11950    292.12606   -111.14541    273910.52   -76663.552    7407.6599   -84071.212    649.19827 
   12000    294.77223   -18.699695    273980.39   -76686.582    7474.7608   -84161.343    651.94088 
   12050    297.47557    67.987747    274030.03   -76713.805    7543.3115   -84257.117    655.81219 
   12100    295.48606   -155.21501    274166.38    -76691.54     7492.862   -84184.402     658.3603 
   12150    294.78572   -158.14458    274117.03   -76637.643     7475.103   -84112.746    660.77887 
   12200    294.46483    195.98492    274092.37   -76598.426    7466.9659   -84065.392    663.91247 
   12250    288.61023    52.867825    274383.84   -76629.022    7318.5064   -83947.528     666.6067 
   12300    292.90192    155.01222    274510.81   -76541.287    7427.3339   -83968.621    668.79611 
   12350       295.67   -389.01941     274633.8   -76581.826    7497.5262   -84079.352    671.60521 
   12400    295.70004   -34.062245    274384.43   -76555.341    7498.2881   -84053.629    675.02376 
   12450    293.96759   -103.43807    274032.95   -76531.598     7454.357   -83985.955    677.43242 
   12500    292.75304    74.723988    273993.65   -76555.087    7423.5588   -83978.646    680.46061 
   12550    297.28082   -75.870507    274133.66   -76549.633    7538.3731   -84088.006    683.58977 
   12600    291.55536   -99.631033    274402.38   -76572.018    7393.1883   -83965.207    687.41605 
   12650    293.55633    49.584803    274600.38   -76579.381    7443.9285    -84023.31    690.57543 
   12700    295.25812     60.20446    274488.05   -76593.548    7487.0819    -84080.63    693.00955 
   12750    295.96057    100.81513    274150.11   -76584.972    7504.8945   -84089.866    692.80747 
   12800    288.74305    126.74977     274015.3   -76605.084    7321.8743   -83926.958    695.44974 
   12850    289.13716   -177.65102    274257.54    -76637.73    7331.8681   -83969.598    699.07078 
   12900    288.52552   -169.19204    274524.26    -76612.59    7316.3584   -83928.949    700.88399 
   12950    292.92756    -216.3589    274633.69   -76604.953    7427.9841   -84032.937    703.61686 
   13000     293.2441   -290.00674    274683.55   -76573.959    7436.0109    -84009.97    707.16771 
   13050     292.7709    222.10871    274349.13   -76553.744    7424.0115   -83977.755    708.72053 
   13100     294.7784   -30.311033     274000.2   -76509.513    7474.9172    -83984.43    711.34904 
   13150    295.72554    162.76112    273881.12   -76530.625    7498.9347    -84029.56     714.4225 
   13200    294.38578   -143.02039    274300.18   -76559.665    7464.9613   -84024.626    718.29796 
   13250    296.58288   -83.452373    274559.82   -76535.917    7520.6748   -84056.592    722.40912 
   13300    289.99113      74.4269    274452.51   -76542.348     7353.523   -83895.871     725.2968 
   13350    292.98552   -126.85591    274300.49    -76539.13    7429.4538   -83968.584    727.72351 
   13400    293.67808   -176.29649    274018.81   -76586.778    7447.0158   -84033.794    729.59161 
   13450    294.47479     80.79293    273858.61   -76558.322    7467.2184    -84025.54    731.92331 
   13500    294.39463   -177.86133    274034.64   -76545.079    7465.1858   -84010.265    735.64328 
   13550     292.3335    87.747672    274239.97   -76526.774      7412.92   -83939.695    738.31722 
   13600    291.80516   -194.68101    274404.06   -76545.333    7399.5226   -83944.856    739.74833 
   13650    294.06607    86.284968    274357.46   -76569.468    7456.8543   -84026.322    741.28719 
   13700    293.08166     -102.362     274358.4   -76580.229    7431.8917    -84012.12    743.34267 
   13750     294.9034   -157.09934    273965.73   -76569.455    7478.0871   -84047.542    746.47965 
   13800     297.0201    283.98041    273371.78   -76548.856    7531.7617   -84080.618    747.80112 
   13850    296.85934    149.98405    273600.58   -76542.549    7527.6853   -84070.235    750.44549 
   13900    289.68994    26.403481    274490.36   -76560.032    7345.8855   -83905.918    756.54302 
   13950      292.877   -691.75598    275247.81   -76574.229    7426.7021   -84000.931    761.51655 
   14000    293.84166   -75.762614    274791.58   -76582.848    7451.1637   -84034.012     763.3551 
   14050    292.89998    283.83524    273893.55   -76594.728    7427.2849   -84022.013    763.83888 
   14100    298.65252     3.683105    273554.15   -76560.858    7573.1564   -84134.014    767.02803 
   14150    293.05475    373.28111    273913.15   -76575.982    7431.2094   -84007.192    771.72145 
   14200    297.28945   -233.39638    274611.73   -76617.127    7538.5919   -84155.719     776.4844 
   14250    290.20156    1.3976065    274679.68   -76650.269    7358.8589   -84009.128    778.85352 
   14300    287.98236   -80.888382    274298.78   -76641.895     7302.585    -83944.48    780.25058 
   14350    295.97775    334.82186    273845.38   -76670.704    7505.3302   -84176.034    781.73752 
   14400    291.53983    165.05976    273921.56   -76654.867    7392.7945   -84047.662     784.7178 
   14450    292.08809   -74.038446    274164.46   -76647.833     7406.697    -84054.53    786.96652 
   14500    297.17151   -229.57357    274577.22   -76605.338    7535.6012   -84140.939    789.80655 
   14550    293.69861   -124.07187    274744.55   -76617.471    7447.5362   -84065.007    793.15668 
   14600    290.74858   -120.57682    274660.49   -76628.758    7372.7301   -84001.488    794.49396 
   14650    291.71822    159.10043    274330.83   -76605.264     7397.318   -84002.582      796.165 
   14700    293.58947    164.75332    274198.46   -76554.764    7444.7688   -83999.533    797.99001 
   14750    292.66366    265.07348    274335.03   -76571.303    7421.2923   -83992.595    801.23998 
   14800    294.09263   -145.18499    274591.67   -76569.803    7457.5278   -84027.331    803.95826 
   14850    300.01589   -196.75942    274122.79   -76580.664    7607.7282   -84188.392     805.3535 
   14900    293.15055    213.67173    273512.97   -76576.495    7433.6388   -84010.133    807.53367 
   14950    294.90713    157.62023    273663.21    -76645.07    7478.1815   -84123.252    810.87799 
   15000    291.89744   -97.801414    274227.12   -76646.821    7401.8627   -84048.684    814.51095 
   15050    288.30861   -57.540929     274289.9   -76680.488    7310.8581   -83991.346    817.76647 
   15100    296.14372    25.053717    273910.71   -76689.619    7509.5388   -84199.158    819.02806 
   15150    290.67666   -115.53834       273852   -76717.881    7370.9063   -84088.787     820.5684 
   15200    293.30841   -226.38974    274013.83   -76752.852    7437.6416   -84190.494    824.05262 
   15250    295.51023   -135.08439    274109.41   -76735.729    7493.4748   -84229.204    827.08137 
   15300    291.41571   -336.60221    274314.22   -76739.943     7389.647    -84129.59    830.31606 
   15350    288.28463    35.912406    274008.52   -76739.157    7310.2499   -84049.407    831.85198 
   15400    290.50059   -49.927258    273610.92   -76766.035    7366.4416   -84132.476    833.39523 
   15450     289.4892    51.855153    273265.58   -76866.357    7340.7951   -84207.152    835.61659 
   15500    292.27631    76.686028     273574.8   -76881.764    7411.4699   -84293.234    838.79293 
   15550    285.94412   -32.821127    273938.43   -76893.495    7250.8999   -84144.395    841.68009 
   15600    285.88768    59.243788    274209.86   -76839.968    7249.4686   -84089.437    843.46166 
   15650    290.66322    1.9373272    274286.38   -76791.455    7370.5656   -84162.021    846.52156 
   15700    292.70879    47.122933    274071.39   -76748.537    7422.4367   -84170.974    847.94232 
   15750    291.24469    -16.65134     273665.2   -76705.758    7385.3104   -84091.068    849.80811 
   15800    289.82167     97.45653    273564.44   -76723.116    7349.2257   -84072.342    852.17402 
   15850    292.93522    10.630691    274063.87   -76734.547    7428.1785   -84162.725    855.47095 
   15900    286.47897   -332.31885    274678.44   -76737.756    7264.4624   -84002.218    860.66781 
   15950    289.64138   -135.99251    274512.68   -76754.925    7344.6541    -84099.58      864.006 
   16000    294.62226   -32.044938     273954.8   -76727.432    7470.9581    -84198.39    864.90342 
   16050    290.41079    261.19627    273310.89   -76743.253    7364.1644   -84107.417    866.23792 
   16100    290.94893    182.35788    273142.16   -76744.328    7377.8106   -84122.139    868.52519 
   16150    292.09705   -256.16566    273770.31   -76733.209    7406.9243   -84140.134    873.30785 
   16200    293.55099   -215.37213     274376.4   -76645.453     7443.793   -84089.246    878.32366 
   16250    290.47064   -66.739247    274561.62   -76637.854    7365.6822   -84003.536    883.35927 
   16300    294.11056    240.84305     274469.3   -76612.324    7457.9823   -84070.306    886.93695 
   16350    290.09443    2.7611446    274431.31   -76567.339    7356.1424   -83923.482    889.51346 
   16400    292.37894   -172.61658    274466.69   -76610.205    7414.0725   -84024.277    893.58151 
   16450    293.05974   -241.30148    274327.01   -76596.613    7431.3359   -84027.949    897.61061 
   16500    295.51673    286.82813    274021.91   -76608.677    7493.6396   -84102.317    899.84822 
   16550    291.52751   -7.5048891    274146.71   -76676.073     7392.482   -84068.555    902.57143 
   16600    291.40652   -59.111695    274282.67   -76659.651    7389.4141   -84049.066    906.20622 
   16650    293.19377   -380.47681    274240.54   -76698.104    7434.7347   -84132.839    907.90834 
   16700    293.22914    172.16987    273912.73   -76671.048    7435.6317    -84106.68    909.37352 
   16750    293.55308    48.535495    273844.38   -76643.304     7443.846    -84087.15    912.74866 
   16800    292.99034   -446.15615    274234.59   -76607.393    7429.5762   -84036.969    915.22585 
   16850    295.19428   -15.942755    274489.97   -76589.685    7485.4631   -84075.148     919.0284 
   16900    295.01954    208.94456    274669.29   -76605.934    7481.0321   -84086.966    922.18622 
   16950    290.95874   -264.51477    274534.06   -76597.019    7378.0594   -83975.079    923.90033 
   17000    294.78645    -65.93995    273974.94    -76608.29    7475.1215   -84083.412    925.48904 
   17050    291.47401    81.041008    273738.94   -76580.006    7391.1254   -83971.132    926.64111 
   17100    292.82594     102.5197    274006.37    -76575.48    7425.4074   -84000.888    929.95234 
   17150    292.20316   -73.416038    274580.07   -76590.316    7409.6149   -83999.931     934.2109 
   17200    294.15094   -188.09472    274903.98   -76613.013    7459.0062   -84072.019    937.58457 
   17250    294.91979   -149.73063    274504.12   -76623.746    7478.5026   -84102.248     937.3494 
   17300    295.12357    223.09757    273633.16   -76655.775    7483.6701   -84139.445    937.33698 
   17350    291.20904    171.69259    273382.43   -76677.577    7384.4064   -84061.984      938.502 
   17400    291.19212   -15.679071    273761.43   -76693.751    7383.9773   -84077.728    941.18845 
   17450    294.19477    33.492183     274251.2   -76689.093    7460.1177   -84149.211    944.46259 
   17500    291.20153   -150.27665    274581.09   -76748.979     7384.216   -84133.195    947.97308 
   17550    294.47711    -57.93553    274262.72   -76749.299    7467.2772   -84216.576     949.7571 
   17600    290.34516   -76.919784    273915.81   -76753.366    7362.5002   -84115.866     950.2064 
   17650    290.01096    337.72344    273685.96   -76729.955    7354.0257   -84083.981    954.10215 
   17700    286.00813   -45.467229     273873.9   -76756.468    7252.5229   -84008.991    956.31407 
   17750    286.88347    189.71266    274202.93   -76772.513    7274.7195   -84047.232    960.47509 
   17800    285.14248    -19.77237    274584.65   -76781.645    7230.5721   -84012.217    961.77047 
   17850    285.12086   -140.79615    274557.29   -76809.373    7230.0237   -84039.397    964.23523 
   17900    293.69872    26.003676    273907.09   -76757.497    7447.5391   -84205.036    964.13013 
   17950    293.00436    107.12832    273384.02   -76792.342    7429.9316   -84222.274    964.85641 
   18000    290.81318    245.29567    273432.15    -76791.37    7374.3683   -84165.739    967.06837 
   18050    289.81042    218.59976    274014.14   -76828.684    7348.9406   -84177.625    970.87753 
   18100    288.91265   -343.79159     274703.9   -76830.594    7326.1751   -84156.769    974.42466 
   18150    290.29194   -415.65583     274509.2   -76836.596    7361.1507   -84197.746    975.22523 
   18200    285.57207    123.65323    273733.95   -76831.027    7241.4655   -84072.492    976.09527 
   18250    288.63831    -65.45334    273342.63   -76871.119    7319.2185   -84190.338    976.91255 
   18300     292.0697    211.87281    273488.79   -76847.883    7406.2307   -84254.114    979.03446 
   18350    284.51166    82.963808    274028.94    -76812.46    7214.5757   -84027.036    981.27141 
   18400    288.32401    18.579638    274383.45   -76846.981    7311.2486    -84158.23    985.75425 
   18450    288.92302   -172.18965    274290.31   -76831.705     7326.438   -84158.143    987.04958 
   18500    285.68631    249.87378    273707.75   -76794.718    7244.3625    -84039.08    988.47336 
   18550    291.92343    260.63848    273837.54   -76775.519    7402.5217   -84178.041    989.91515 
   18600    288.51883   -295.17548    274236.96   -76777.533    7316.1886   -84093.721    994.42311 
   18650    290.40833   -177.55603    274225.98   -76746.945    7364.1022   -84111.047    996.94135 
   18700    296.83436    52.095497    273879.09   -76690.739    7527.0519   -84217.791    998.35823 
   18750    294.80326    74.913051     273598.6   -76687.202    7475.5477    -84162.75    998.92155 
   18800    295.33853    268.73574    273668.42   -76623.489    7489.1209   -84112.609    1002.7088 
   18850    296.32578   -41.663021     274085.7   -76635.775    7514.1553    -84149.93    1005.7516 
   18900    291.50454    68.636144    274537.81   -76669.983    7391.8995   -84061.883    1008.5863 
   18950    294.62274   -208.36416    274556.16   -76725.338      7470.97   -84196.308    1012.8993 
   19000      285.264    -120.5077    274234.67   -76693.751    7233.6535   -83927.405    1015.0972 
   19050     289.9442    392.79606     273629.8   -76719.358    7352.3328   -84071.691    1015.2365 
   19100    298.37076   -11.137885    273668.85   -76713.457    7566.0115   -84279.469     1019.173 
   19150    289.88381    132.16567    274147.06   -76694.616    7350.8015   -84045.418    1024.5358 
   19200    291.65144   -290.97699    274731.67   -76678.841    7395.6246   -84074.466      1028.47 
   19250    295.09039   -111.70465    274612.98   -76666.232    7482.8288   -84149.061    1029.4563 
   19300    290.97406    231.44391    273973.03    -76666.95    7378.4477   -84045.398    1029.8555 
   19350    295.95451    78.895648    273623.79   -76657.902    7504.7407   -84162.642    1031.5164 
   19400    290.71127    30.597694     274081.6   -76639.611    7371.7839   -84011.395    1034.6522 
   19450    294.49538   -127.40678    274710.33   -76607.335    7467.7406   -84075.076    1039.6495 
   19500    292.79731   -3.4830547    274589.87   -76599.061    7424.6814   -84023.742    1042.2427 
   19550    294.49474   -150.85941    273770.61   -76642.302    7467.7244   -84110.027    1042.3504 
   19600    290.55068    409.67406    273096.03   -76655.538    7367.7117    -84023.25    1043.4555 
   19650    294.54264    270.05372    273420.39   -76656.225    7468.9388   -84125.163    1045.9459 
   19700    292.37078   -47.687445    274226.88   -76665.136    7413.8654   -84079.001    1050.9553 
   19750    292.90676    -165.5845    274743.49   -76644.722    7427.4567   -84072.179    1056.5001 
   19800    294.96734   -86.754451    274406.36   -76638.258    7479.7085   -84117.967    1058.9772 
   19850    294.68895   -278.68188    273959.95   -76639.511    7472.6491    -84112.16    1062.0152 
   19900    292.55197    253.09906    273700.08   -76623.196      7418.46   -84041.656    1065.1846 
   19950    294.66724    200.22584    273902.47   -76635.633    7472.0985   -84107.731    1068.6422 
   20000    293.26043    57.141593    274459.44   -76637.185    7436.4249    -84073.61    1072.6767 
   20050    295.79083   -118.83072    274731.93   -76650.817    7500.5902   -84151.407    1077.7004 
   20100    290.27264    -373.2246     274320.5   -76669.979    7360.6614    -84030.64    1080.3735 
   20150    287.40071    136.76729    273525.12     -76715.6    7287.8357   -84003.436    1081.8668 
   20200      296.051    52.868536    273277.56   -76709.993    7507.1876   -84217.181    1084.3404 
   20250    290.97355    -121.7706    273670.41    -76706.63    7378.4349   -84085.065    1088.4592 
   20300    293.66451    86.375114    274196.74   -76704.437    7446.6716   -84151.109     1092.594 
   20350     284.0904    204.64062    274594.71   -76660.705    7203.8937   -83864.599    1095.5093 
   20400    286.47139   -181.05125    274817.61   -76653.347    7264.2701   -83917.617    1098.0753 
   20450    294.90124   -201.39893    274550.95   -76666.546    7478.0321   -84144.578    1099.3866 
   20500    296.74782   -172.64442    273930.58   -76685.547    7524.8574   -84210.404    1099.8703 
   20550    298.55804     261.1347    273329.64   -76665.793    7570.7604   -84236.554     1099.371 
   20600    297.24655    40.229417    273435.11   -76664.145     7537.504   -84201.649    1102.6455 
   20650    292.08398    70.416103    274312.93   -76688.252    7406.5929   -84094.845    1109.0528 
   20700    290.96008   -161.16909    274991.46   -76700.635    7378.0932   -84078.728    1115.0236 
   20750    294.36089   -296.90964    274972.68   -76658.044    7464.3301   -84122.374    1116.9381 
   20800    294.14283   -165.54279    274367.08   -76692.855    7458.8007   -84151.656    1116.9168 
   20850    292.37571    31.165952    273789.81   -76666.964    7413.9904   -84080.955     1117.386 
   20900    293.32754   -43.304844     273493.6   -76660.377    7438.1266   -84098.504    1118.6841 
   20950    293.90938    203.08174    273473.24   -76696.258    7452.8808   -84149.139    1121.5582 
   21000    292.88673    48.376478    274056.01   -76676.121    7426.9489    -84103.07    1124.1609 
   21050    288.31168   -65.783045    274538.56   -76686.346    7310.9358   -83997.282    1127.4797 
   21100    293.61407   -85.534896    274158.43   -76693.841    7445.3924   -84139.233    1130.2578 
   21150    291.95327    214.13092    273703.17   -76680.736    7403.2783   -84084.014    1132.2237 
   21200    293.28044   -17.912661    273806.15   -76653.542    7436.9323   -84090.474    1136.3741 
   21250    288.15394    128.79926    273900.44     -76659.2    7306.9358   -83966.136    1139.0929 
   21300    287.78492    94.571046    274034.74   -76646.939    7297.5785   -83944.518    1141.6577 
   21350    290.96773    109.58216    274134.59   -76653.566    7378.2872   -84031.853    1146.6484 
   21400    296.16512   -174.91433    274326.78   -76648.051    7510.0814   -84158.133    1151.0195 
   21450    299.62623   -29.622188    274243.15    -76605.31    7597.8473   -84203.158    1153.8124 
   21500    289.64444    9.3071832    274138.19   -76609.673    7344.7315   -83954.404    1155.2115 
   21550    287.18101    77.367236    274272.25   -76586.556    7282.2646    -83868.82    1156.8122 
   21600    296.35855   -176.38927    274555.47   -76566.515    7514.9863   -84081.501    1160.3257 
   21650    294.49558     163.9561    274444.23   -76526.245    7467.7457    -83993.99    1162.8164 
   21700    296.54202   -143.83564    274528.11   -76493.014    7519.6389   -84012.652    1165.1451 
   21750    296.38591    124.98906    274460.57   -76533.523      7515.68   -84049.203    1168.6524 
   21800    290.33567   -129.76081    274384.52   -76495.998    7362.2595   -83858.258    1170.1711 
   21850    294.52321    141.69172    274270.83   -76478.649    7468.4463   -83947.096    1170.7515 
   21900    294.79178    362.59234    274341.43   -76495.983    7475.2566   -83971.239    1174.4159 
   21950    294.30834    55.736537    274250.19   -76502.304    7462.9976   -83965.302    1176.3451 
   22000    294.35385    26.937124     273911.3   -76499.119    7464.1516   -83963.271    1178.5047 
   22050    297.97795    62.185936    273829.97   -76470.775    7556.0507   -84026.826    1182.8125 
   22100    296.30378    92.284195    274192.12   -76463.443    7513.5975   -83977.041    1188.2715 
   22150    295.00335   -10.997993    274675.77   -76483.464    7480.6214   -83964.085    1192.0014 
   22200    296.36351    -98.06037    274826.09   -76426.313     7515.112   -83941.425    1193.6344 
   22250    300.30725   -59.247759    274502.56   -76431.568    7615.1164   -84046.685      1195.09 
   22300    299.05447    245.12313    273895.24    -76362.28    7583.3488   -83945.629    1197.4349 
   22350    297.25307    22.407406    273808.85   -76383.318    7537.6693   -83920.987    1200.2802 
   22400    299.82691   -169.32259    274278.09   -76423.185    7602.9361   -84026.122     1202.477 
   22450    300.95681    151.08649    274550.26   -76428.729    7631.5879   -84060.317    1203.0425 
   22500    298.08507   -301.84119    274776.25   -76399.654     7558.767   -83958.421    1207.1131 
   22550    295.08336    49.479943    274564.75   -76410.944    7482.6504   -83893.595    1209.4535 
   22600    294.33819    -38.20479    274501.32   -76469.727    7463.7545   -83933.482    1211.4502 
   22650    294.48193    82.192083       274434   -76426.672    7467.3994   -83894.072    1212.2084 
   22700    296.38948    70.821344    274209.12   -76455.665    7515.7705   -83971.435    1213.7543 
   22750    297.89804   -59.341696    274151.78   -76452.365    7554.0243   -84006.389    1214.2055 
   22800    296.13573    40.594081    274158.73   -76466.844    7509.3361    -83976.18    1215.7578 
   22850    299.24592   -94.082843    274384.09    -76471.33    7588.2036   -84059.534    1218.2123 
   22900    290.83524    26.401682    274846.36   -76502.143    7374.9277   -83877.071    1221.5702 
   22950    292.25023    -202.6742    274928.86   -76506.302    7410.8087   -83917.111    1226.0928 
   23000    293.19406   -239.39756    274439.75   -76539.556     7434.742   -83974.298    1228.7938 
   23050     298.0532    495.28619    273765.83   -76490.507    7557.9588   -84048.466    1228.4444 
   23100    293.94443    140.79665    273930.81   -76467.901    7453.7696   -83921.671    1232.4687 
   23150    294.12309    32.220782    274620.15   -76474.509       7458.3   -83932.809    1236.0565 
   23200     297.4702   -473.94374    274976.29   -76476.493    7543.1752   -84019.668    1239.3633 
   23250    291.22297    152.42568    274580.88   -76491.566    7384.7595   -83876.325     1240.651 
   23300    296.06122    217.93142    273956.72   -76505.022    7507.4468   -84012.469    1241.9553 
   23350     297.9389    66.021514    273495.24   -76516.396    7555.0604   -84071.457    1239.7129 
   23400    298.37172    57.905266    273712.76   -76539.419    7566.0358   -84105.455    1243.3292 
   23450    302.35106    297.15971    274149.44   -76547.864     7666.943   -84214.807    1246.5053 
   23500     288.9766   -192.56149    274861.73   -76589.314    7327.7967   -83917.111    1251.1049 
   23550    294.35911   -605.18653    274892.27   -76587.995     7464.285    -84052.28    1253.0504 
   23600    292.64675    200.52924    274186.79   -76555.446    7420.8633    -83976.31    1252.1556 
   23650    296.45147    167.96853    273842.76   -76533.506    7517.3425   -84050.849    1255.7709 
   23700    294.27311    73.651044    274083.96   -76483.618    7462.1044   -83945.722    1259.6273 
   23750    296.78117    71.216818    274620.25   -76480.133    7525.7029   -84005.836    1263.0543 
   23800    296.74726   -171.73491       275109   -76447.122    7524.8433   -83971.965    1267.9638 
   23850    294.25852   -150.46074    274870.66   -76474.336    7461.7342   -83936.071    1268.4159 
   23900    296.81074    314.78261    274241.36   -76482.937    7526.4529    -84009.39    1267.9225 
   23950    291.30362    94.837978    274045.99   -76528.103    7386.8046   -83914.907    1270.5572 
   24000    296.60367    -26.91989    274012.41   -76549.813    7521.2019   -84071.015      1272.76 
   24050    295.74201    32.407632    273925.14   -76509.599    7499.3522   -84008.951    1275.6074 
   24100    296.71738   -34.735942    274270.04   -76469.214    7524.0854   -83993.299    1277.6501 
   24150    294.28489    105.10902    274697.97   -76486.653    7462.4029   -83949.056    1279.6819 
   24200    293.68353   -91.944827    274783.67   -76510.272    7447.1538   -83957.425    1281.8048 
   24250    298.39455   -101.82285     274226.9   -76537.332    7566.6147   -84103.947     1282.316 
   24300    297.18076    35.442394    273581.77   -76516.471    7535.8359   -84052.307    1283.5331 
   24350    302.59486    66.598287    273551.32   -76533.568    7673.1252   -84206.693    1286.8935 
   24400    297.46779   -121.81859    273917.71   -76504.604    7543.1142   -84047.718    1291.0415 
   24450    292.60392    230.17613    274045.03   -76569.332    7419.7774   -83989.109    1293.1605 
   24500    290.50478   -33.615617    274335.71   -76580.028    7366.5479   -83946.576    1298.3388 
   24550    292.08713   -257.34707    274428.02    -76554.55    7406.6728   -83961.223    1303.2382 
   24600     292.1581   -32.571573    274181.72   -76543.558    7408.4723   -83952.031    1304.7036 
   24650    294.58881    289.70513     274058.3   -76529.867    7470.1096   -83999.977    1305.4302 
   24700     298.1659   -64.163932     274088.9   -76491.332    7560.8168   -84052.148    1307.1544 
   24750    296.98813    54.412676    274218.53   -76482.204     7530.951   -84013.155    1311.4905 
   24800     297.8151   -147.31586    274351.66   -76408.645    7551.9211   -83960.566    1315.2307 
   24850    292.12511    92.171315    274381.68   -76380.864    7407.6358   -83788.499    1319.4453 
   24900    298.31351   -82.792123    274458.25    -76359.67    7564.5596    -83924.23    1321.5734 
   24950    294.95062   -106.87505    274653.03   -76397.436    7479.2844    -83876.72     1324.708 
   25000    296.42327    241.04188    274502.17   -76431.734    7516.6274   -83948.361    1328.2011 
   25050    301.96658   -321.32021    274256.38   -76464.307    7657.1933   -84121.501    1328.2415 
   25100    300.48467    350.20888     273871.3   -76419.732    7619.6154   -84039.347    1327.1992 
   25150    300.22515     136.8143    274008.02   -76458.539    7613.0346   -84071.574    1330.4243 
   25200    299.64136     4.640269    274413.92   -76481.497    7598.2311   -84079.728    1334.6794 
   25250    297.23224   -194.19605    274588.29   -76530.033    7537.1411   -84067.174    1339.0356 
   25300    291.73062   -21.449708    274235.35   -76574.042    7397.6324   -83971.674    1340.6224 
   25350    295.78393    202.64132    273880.72   -76619.768    7500.4153   -84120.183    1340.5148 
   25400    294.03623    298.83819    273779.64   -76635.633    7456.0976   -84091.731    1342.8859 
   25450    295.21754    -44.63661    274259.24   -76594.126    7486.0529   -84080.179    1345.8436 
   25500    295.56187   -288.17734    274911.17   -76590.447    7494.7844   -84085.231    1351.1969 
   25550    291.74368   -125.04983    274860.02   -76621.816    7397.9637    -84019.78    1354.7821 
   25600    294.02441    187.86237    274177.45   -76635.522    7455.7977    -84091.32    1353.5211 
   25650    290.80678    264.88939     273491.7   -76638.809     7374.206   -84013.015    1353.5261 
   25700    296.99078   -36.596979    273603.92   -76629.483    7531.0183   -84160.501    1356.8969 
   25750    289.89442    50.034449    274115.69    -76614.69    7351.0705   -83965.761    1362.7327 
   25800    291.65839    46.533134    274381.93   -76612.768    7395.8009   -84008.568    1366.3061 
   25850    292.17577   -42.225253     274277.9   -76600.595    7408.9205   -84009.515    1369.1013 
   25900    291.06433     -34.4521    273974.02   -76545.818     7380.737   -83926.555    1370.0829 
   25950    293.80925    137.85264    273897.64    -76582.98    7450.3418   -84033.322    1371.6716 
   26000    291.50782   -47.669615    274146.54   -76562.914    7391.9828   -83954.896    1374.0074 
   26050    289.27395   -30.318476     274567.4   -76647.804    7335.3368    -83983.14    1378.8358 
   26100    296.00281   -37.879653    274573.17   -76683.737    7505.9657   -84189.703     1383.259 
   26150    291.57202   -156.20402    274090.78   -76681.461    7393.6106   -84075.072    1384.5495 
   26200    291.16434   -176.71075    273723.55   -76661.456    7383.2728   -84044.728     1386.709 
   26250    295.23888    257.42311    273679.45   -76659.103    7486.5939   -84145.697    1388.2803 
   26300    291.14987    237.41783    273912.04   -76680.194    7382.9059     -84063.1     1391.896 
   26350    293.52774   -318.64683    274290.68   -76693.308    7443.2033   -84136.511    1395.4336 
   26400    287.86223    42.073307    274518.41   -76683.488    7299.5388   -83983.026    1398.4287 
   26450    288.90058   -128.65698    274543.36   -76637.328    7325.8689   -83963.197    1401.0733 
   26500     294.2759      137.361    274139.55   -76645.927    7462.1751   -84108.102    1402.4545 
   26550    295.22168    150.84338    273776.87   -76634.247     7486.158   -84120.405    1403.0384 
   26600    288.40584    188.10349    273961.68   -76642.927    7313.3234    -83956.25    1405.2254 
   26650    292.75806   -54.053688    274355.31    -76629.16     7423.686   -84052.846    1409.0738 
   26700    289.56235   -7.5444927    274376.09   -76590.968    7342.6501   -83933.618    1410.9725 
   26750    293.44418   -184.98846    274373.46    -76603.84    7441.0844   -84044.925    1412.8494 
   26800    290.83805    -67.35748    274188.29   -76652.217     7374.999   -84027.216    1412.9293 
   26850    291.35015    163.69091    273863.27   -76650.542    7387.9846   -84038.527    1412.4846 
   26900    299.25013    63.968983    273642.79   -76613.838    7588.3103   -84202.149    1414.7312 
   26950     296.4471    100.57141    273847.59   -76646.963    7517.2317   -84164.195    1416.6058 
   27000      296.034     37.45803    274224.36   -76654.895    7506.7564   -84161.651    1420.7201 
   27050    289.38141   -262.44805    274535.47   -76665.666    7338.0617   -84003.727    1424.1745 
   27100    292.15963    258.08784    274479.15   -76632.873    7408.5113   -84041.384    1427.9679 
   27150     292.0008    130.68873    274528.59   -76655.664    7404.4835   -84060.148    1433.0673 
   27200    295.91345   -228.65348    274268.34   -76635.643    7503.6995   -84139.343    1435.4358 
   27250    291.25021    -51.23625     273898.5     -76611.2    7385.4503    -83996.65     1436.328 
   27300    292.61092   -31.946151    273951.37   -76618.035     7419.955    -84037.99    1442.2857 
   27350    298.74743   -163.78505    274178.69   -76585.592    7575.5629   -84161.155    1445.6916 
   27400    296.78955    -64.01467    274084.73   -76545.045    7525.9154    -84070.96    1448.1183 
   27450    293.85608    166.27298    274135.02   -76576.401    7451.5293   -84027.931    1450.6976 
   27500    292.27676    77.053998    274294.54   -76554.307    7411.4814   -83965.788     1453.501 
   27550    292.67894    163.14122    274305.18   -76552.891    7421.6797    -83974.57    1456.5467 
   27600    296.73746    12.005493    274156.49   -76558.619    7524.5948   -84083.213    1458.0512 
   27650    290.71741    85.845594    274177.36    -76576.08    7371.9397   -83948.019    1458.1636 
   27700     289.1571   -28.134044     274303.8   -76589.851    7332.3738   -83922.225     1461.072 
   27750    296.01385    -110.8501    274334.73   -76563.527    7506.2456   -84069.773    1464.3069 
   27800    289.86077     197.6969    274358.94   -76577.237    7350.2174   -83927.454    1466.5792 
   27850     293.3663    253.33726    274262.17   -76532.659    7439.1097   -83971.769    1470.0611 
   27900    294.05651   -45.199753    274195.85   -76550.922    7456.6118   -84007.534    1472.6704 
   27950    291.37437    110.60266    274178.18   -76573.915    7388.5988   -83962.514    1474.5935 
   28000    291.98688   -2.1664219    274271.58   -76568.882    7404.1306   -83973.012    1476.6552 
   28050    293.08702   -66.536044     274371.4   -76555.104    7432.0277   -83987.132    1477.0249 
   28100    287.88878    143.88883       274383   -76574.388    7300.2121     -83874.6    1476.9966 
   28150    292.18659    77.202419    274186.44   -76556.504    7409.1947   -83965.699    1477.5081 
   28200    291.16026    185.77547    273916.18   -76565.937    7383.1695   -83949.106    1477.7967 
   28250    295.79214   -2.1522515    273979.33   -76626.313    7500.6234   -84126.936    1480.1795 
   28300    295.06496   -139.94246    274250.05   -76626.927    7482.1837   -84109.111    1485.0883 
   28350    292.28739    32.404308    274384.02   -76616.931     7411.751   -84028.682    1487.1284 
   28400    290.48687   -285.12761    274484.77   -76569.508    7366.0937   -83935.601    1489.2769 
   28450    291.73502   -330.69983    274251.52   -76568.517    7397.7439   -83966.261    1489.7285 
   28500    295.10062    34.597473    273899.23   -76577.923    7483.0882   -84061.011    1489.8846 
   28550    295.78308    129.47704     273725.2   -76599.848    7500.3937   -84100.242    1491.3291 
   28600    296.54613    66.121958    273846.22   -76588.016    7519.7429   -84107.759    1493.0641 
   28650    297.39005    164.82214    274152.13   -76606.992     7541.143   -84148.135    1496.9423 
   28700    294.00053    26.901056    274560.54   -76618.232    7455.1921   -84073.424    1502.4345 
   28750    294.33302   -447.78626    274695.61    -76619.25    7463.6234   -84082.873    1505.4273 
   28800    291.19379   -241.24563    274338.25   -76627.585    7384.0196   -84011.604    1506.6922 
   28850    289.37736    461.41382    273589.58   -76603.797    7337.9592   -83941.756    1507.9659 
   28900    295.24269    148.33243    273691.82   -76658.069    7486.6906    -84144.76    1513.3885 
   28950    288.78495    172.28369    274327.91   -76674.422     7322.937   -83997.359    1518.3255 
   29000    287.37151   -232.95039    274693.69    -76701.31    7287.0952   -83988.405    1522.5318 
   29050    289.77038     111.7345    274345.87   -76685.813    7347.9253   -84033.738    1523.1068 
   29100    297.09916   -200.95059    273859.37   -76719.123    7533.7664   -84252.889    1522.7046 
   29150    291.63727    194.44633    273606.19    -76713.58    7395.2653   -84108.845    1524.1266 
   29200    289.34799    123.56115    274037.48   -76726.668    7337.2142   -84063.882     1529.967 
   29250    290.25774    -109.5214    274419.96   -76744.533    7360.2834   -84104.816    1535.2169 
   29300    289.61628    257.82124     274238.6   -76775.276    7344.0176   -84119.294    1536.5308 
   29350    289.36873    126.93351    273852.34   -76764.984    7337.7402   -84102.724    1533.4119 
   29400    289.78222    99.058844    273521.57   -76738.967    7348.2253   -84087.192    1536.9266 
   29450    291.51631    229.41784     273479.8   -76712.765    7392.1981   -84104.963    1539.6121 
   29500    292.24196    65.019447    273962.67   -76694.776     7410.599   -84105.375    1543.4617 
   29550    291.00325    -228.2758    274450.26   -76638.998    7379.1879   -84018.186    1548.2839 
   29600    288.23193   -26.524796    274454.35   -76636.017    7308.9136    -83944.93    1551.1682 
   29650    292.01074      276.541    274166.38   -76613.925    7404.7357   -84018.661    1551.7357 
   29700    290.63835    266.31075    273902.42   -76613.273    7369.9349   -83983.207    1553.9266 
   29750    295.44761    197.31389    274163.74   -76574.535    7491.8871   -84066.422    1557.6047 
   29800    291.40345   -152.83831    274513.68   -76541.022    7389.3363   -83930.358     1559.738 
   29850    293.62596     35.60559    274521.29   -76509.178     7445.694   -83954.872    1559.6978 
   29900    299.13108   -416.43653    274639.48   -76517.033    7585.2914   -84102.324    1560.0732 
   29950    297.37799   -206.28838    274608.92   -76518.788    7540.8371   -84059.625    1561.8448 
   30000    292.78511   -184.65199    274417.59   -76495.053    7424.3719   -83919.425    1563.8417 
   30050    295.41169    82.142126    273896.38   -76489.244    7490.9762    -83980.22    1564.8001 
   30100     295.3478    348.74077    273772.97   -76500.866    7489.3559   -83990.222    1566.7779 
   30150    298.55444    17.303484    274440.02   -76491.033    7570.6692   -84061.702    1573.4216 
   30200    295.31548   -168.88267    274974.13   -76517.842    7488.5363   -84006.378    1579.0492 
   30250    294.25243    95.600819    274744.27   -76534.543    7461.5798   -83996.123     1579.859 
   30300    293.41398    234.20232    274304.51   -76586.162    7440.3187   -84026.481    1580.5149 
   30350    291.28301   -114.67994    274243.49   -76609.041     7386.282   -83995.323    1583.1391 
   30400    296.67574   -23.010838    274328.54   -76642.094    7523.0296   -84165.123    1588.1279 
   30450    290.75783    138.49899    274293.06   -76671.829    7372.9647   -84044.794    1591.4785 
   30500     291.6933    148.16645    274305.91   -76660.051     7396.686   -84056.737    1592.3268 
   30550     294.5477   -299.32967    274327.73   -76593.094    7469.0672   -84062.161    1594.7249 
   30600    298.11537   -139.16654    274111.41   -76568.353    7559.5353   -84127.888    1594.7203 
   30650    298.64091     30.09651    274073.21   -76529.936    7572.8618   -84102.798    1596.3445 
   30700    297.06343   -12.979168    274220.81   -76528.131    7532.8605   -84060.991    1599.5091 
   30750    297.24748   -223.31484    274450.09   -76518.262    7537.5277    -84055.79    1600.8302 
   30800    296.78754   -77.075905     274536.6   -76522.053    7525.8645   -84047.918    1601.6264 
   30850    294.65783   -271.70398    274538.54   -76484.105    7471.8598   -83955.964    1603.9999 
   30900     298.0935    -2.835254    274319.69   -76463.189    7558.9807   -84022.169     1605.128 
   30950    290.34041    67.403168    274174.16   -76498.207    7362.3799   -83860.587    1606.3317 
   31000    293.45383   -80.535612    274399.06   -76506.255    7441.3292   -83947.585    1609.3986 
   31050    295.72623    28.529734    274601.19   -76532.515    7498.9522   -84031.467     1612.636 
   31100     301.1408    66.850488    274655.11   -76508.853    7636.2534   -84145.107    1615.8421 
   31150    296.27711    107.97094    274481.17    -76480.26    7512.9212   -83993.181    1616.2185 
   31200    297.03635      74.5332    274187.14   -76513.638    7532.1739   -84045.811    1616.8717 
   31250     295.1283    226.19268    274103.11    -76542.21    7483.7899   -84025.999    1619.5172 
   31300    293.76073   -45.116934    274203.78   -76531.922    7449.1114   -83981.034    1622.2007 
   31350    294.43187    2.7548499    274374.16   -76547.634      7466.13   -84013.764    1627.4824 
   31400    293.64406    -285.9607    274527.31   -76552.051    7446.1531   -83998.204    1630.8636 
   31450    294.89752    4.7086809    274215.88   -76556.017     7477.938   -84033.955    1632.1605 
   31500    294.98284    24.258372    273788.59   -76606.923    7480.1014   -84087.024    1630.8221 
   31550     292.8696    97.650933    273752.29   -76674.529    7426.5143   -84101.043    1633.3568 
   31600     294.2452    23.296729    274118.08   -76626.166    7461.3965   -84087.562    1636.6711 
   31650    290.07427   -205.31057    274428.74   -76599.452    7355.6312   -83955.084    1642.5463 
   31700    296.45943   -18.598599    274311.73   -76569.093    7517.5445   -84086.638    1644.0991 
   31750    295.74381    2.7748171    273990.83   -76541.192     7499.398    -84040.59    1645.2569 
   31800    296.92818    98.184509    273777.63   -76599.457    7529.4308   -84128.888    1646.9495 
   31850    295.32383     263.1893    274012.55   -76580.446    7488.7481   -84069.194    1651.1318 
   31900    296.32068   -146.36919    274613.86   -76567.305    7514.0261   -84081.332    1659.0696 
   31950     291.7818   -33.639944    274606.99   -76549.775    7398.9303   -83948.705    1662.1911 
   32000    294.82686    42.029898    274417.33   -76540.039     7476.146   -84016.185    1664.9318 
   32050    291.44956    120.73135    274127.53   -76560.994    7390.5055   -83951.499    1666.4287 
   32100    292.37229     125.7223    273944.05   -76577.292    7413.9038   -83991.196    1666.3304 
   32150     289.7084    42.807854    273991.11    -76609.46    7346.3536   -83955.814    1668.4517 
   32200    293.21067    114.52059    274436.73   -76618.499    7435.1632   -84053.662    1672.0012 
   32250    297.51276   -92.079525    274636.98   -76550.284    7544.2544   -84094.539    1675.9128 
   32300    294.94261   -55.126997    274393.47   -76545.034    7479.0813   -84024.115    1677.9292 
   32350    286.74012    273.72069    273928.96   -76590.228    7271.0846   -83861.312    1677.0561 
   32400    289.20463    152.11809    273820.98   -76627.823    7333.5791   -83961.402    1679.3651 
   32450    294.01854    102.30332    274010.35   -76581.009     7455.649   -84036.658    1683.0097 
   32500    294.91815    221.99048    274213.33   -76555.876     7478.461   -84034.337    1685.9491 
   32550      294.938    -168.6591    274460.19   -76543.511    7478.9645   -84022.475    1690.3118 
   32600    293.76518   -304.43373    274497.81   -76556.201    7449.2243   -84005.425    1692.7241 
   32650     299.9532   -166.35396    274342.54   -76555.359    7606.1386   -84161.497    1693.1625 
   32700    290.47009    110.18236    274197.99   -76553.338    7365.6683   -83919.006    1696.3065 
   32750    300.02317    -7.028221     274065.4   -76568.816    7607.9128   -84176.729    1698.9809 
   32800    291.88118   -43.839347    274259.77   -76539.097    7401.4504   -83940.547    1700.5143 
   32850    291.32032   -150.40793    274557.21   -76519.966     7387.228   -83907.194    1703.3244 
   32900    299.99197   -194.69343    274519.97   -76500.904    7607.1218   -84108.025    1705.9172 
   32950    294.08673    55.133829    274367.54   -76523.904    7457.3781   -83981.282    1708.6265 
   33000    297.12515    -59.07642    274362.01   -76526.566    7534.4256   -84060.991    1710.8035 
   33050     289.9669    240.51871    274226.34    -76515.34    7352.9085   -83868.249    1711.8858 
   33100    300.73775   -6.1520369    274328.56   -76524.487    7626.0331    -84150.52    1715.4438 
   33150    294.81504   -35.055874    274333.76   -76513.138    7475.8465   -83988.985    1717.8935 
   33200    297.28179   -17.334186    274247.02   -76543.669    7538.3975   -84082.067    1718.6668 
   33250    291.51303    140.78273    274255.39   -76495.415    7392.1149    -83887.53    1720.4175 
   33300    294.38542    58.616399    274355.43   -76477.975    7464.9522   -83942.928    1721.3024 
   33350    295.06835   -56.267691    274443.15   -76481.839    7482.2697   -83964.109    1722.5209 
   33400    296.35488    64.271376    274348.93   -76488.735    7514.8934   -84003.629    1725.3776 
   33450    299.83479    23.491449    274277.29   -76463.728     7603.136   -84066.864    1728.4864 
   33500    294.05895    88.162514    274318.86   -76420.098    7456.6736   -83876.772    1732.1876 
   33550    304.17204    45.851303    274484.79    -76367.25    7713.1188   -84080.369    1735.6489 
   33600    300.78187   -423.33105    274517.43    -76383.22    7627.1518   -84010.371    1738.6918 
   33650    295.30384    133.40135    274378.09    -76379.03    7488.2414   -83867.272    1740.2856 
   33700    295.83711    16.025848    274495.24   -76393.093    7501.7637   -83894.857    1744.6963 
   33750    298.27729   -185.14624    274571.22   -76430.609    7563.6413    -83994.25    1748.1837 
   33800    291.86359   -185.04018     274406.6   -76455.197    7401.0043   -83856.201    1750.0678 
   33850    296.89434    141.95491    274120.37   -76501.943    7528.5727   -84030.516    1750.8176 
   33900    293.83084    245.43712    274064.89   -76495.938    7450.8893   -83946.827    1749.8045 
   33950    294.96185   -132.08528    274393.37   -76495.865    7479.5693   -83975.434    1752.9033 
   34000    299.29848   -29.089441    274621.95   -76496.088    7589.5362   -84085.624    1754.4327 
   34050    293.67411   -159.90168     274620.1   -76538.226    7446.9149   -83985.141    1755.2905 
   34100    294.29549    186.78174    274014.69   -76542.242    7462.6718   -84004.914    1754.0997 
   34150    295.94135   -81.306751     273771.4   -76570.725     7504.407   -84075.132    1756.7925 
   34200    296.93528    44.452044    273930.47   -76555.661    7529.6108   -84085.272    1759.1809 
   34250    293.69855   -135.12461    274334.36   -76640.036    7447.5348   -84087.571    1763.6218 
   34300    293.54947    54.972922     274363.1   -76665.762    7443.7544   -84109.516    1766.8214 
   34350     291.6709    298.96189    274073.55   -76640.848     7396.118   -84036.966    1766.4087 
   34400    291.97661   -14.659895    274233.54   -76686.089    7403.8703    -84089.96    1768.8179 
   34450    291.23665   -19.409348    274430.66   -76653.422    7385.1064   -84038.529    1771.2935 
   34500    292.03143   -243.92748    274392.12   -76689.654    7405.2604   -84094.914    1775.7404 
   34550    291.03902   -61.692464    274066.32   -76638.693     7380.095   -84018.788    1777.3779 
   34600    298.23974     122.1328    273731.88   -76627.168    7562.6891   -84189.857    1777.0684 
   34650    292.12636   -175.10586    273894.63   -76624.081    7407.6677   -84031.749    1777.9298 
   34700    291.66496   -1.4651781    274144.33   -76601.213    7395.9675   -83997.181    1783.8893 
   34750    290.03308   -127.65714     274569.1   -76696.013    7354.5867   -84050.599     1787.902 
   34800     287.0858   -41.790503    274793.76   -76680.001    7279.8503   -83959.851    1789.6401 
   34850     288.1945   -335.82221    274643.42   -76703.834    7307.9644   -84011.798    1792.6166 
   34900      297.067    121.56783    274084.28   -76683.256    7532.9509   -84216.207    1792.8985 
   34950     286.8343    208.84523     273583.5   -76707.193    7273.4728   -83980.666    1793.2572 
   35000    293.27803    122.93898    273657.36   -76695.584    7436.8714   -84132.456    1796.1678 
   35050     287.7518   -19.126451    274150.53   -76727.595    7296.7386   -84024.333    1800.9341 
   35100    288.30787   -298.07582    274663.74   -76719.248    7310.8391   -84030.087     1807.531 
   35150    286.57309   -95.697345    274789.83   -76713.152    7266.8491   -83980.001    1811.0471 
   35200    289.90484   -185.66552    274253.63   -76683.627    7351.3347   -84034.962    1813.1941 
   35250     293.6087   -12.414461    273611.97   -76688.483    7445.2564    -84133.74    1813.3013 
   35300    290.01423    251.35395    273366.25   -76623.243    7354.1088   -83977.352    1814.7353 
   35350    295.41066    365.27276    273824.57   -76630.234    7490.9499   -84121.184    1819.0685 
   35400    289.94465   -6.3198883    274645.98    -76595.24    7352.3442   -83947.584    1823.8042 
   35450    292.80272   -195.23308    274751.33   -76627.104    7424.8184   -84051.922     1826.707 
   35500    292.18395    293.66683    274273.86   -76625.184    7409.1278   -84034.312    1826.0701 
   35550    295.04513    -172.1618    274090.47   -76637.002    7481.6809   -84118.683    1827.5548 
   35600    291.02501    5.7873586    273782.83   -76573.743    7379.7398   -83953.482    1829.4471 
   35650    295.92246    387.98865    273797.83   -76588.426     7503.928   -84092.354    1831.4897 
   35700    295.33288   -293.47591    274407.82   -76602.092    7488.9777    -84091.07     1836.405 
   35750    293.16513    -262.8242    274812.95    -76579.95    7434.0084   -84013.958    1840.5555 
   35800    295.46374   -94.863596    274595.66    -76571.88     7492.296   -84064.176    1840.5747 
   35850    291.39967    12.537917    274245.36   -76571.371    7389.2404   -83960.611    1841.2159 
   35900      295.119    203.64859    273768.27   -76528.459    7483.5541   -84012.013    1840.3267 
   35950    297.83918    282.44729    273474.17   -76554.183    7552.5318   -84106.715    1843.2386 
   36000    291.70169    221.22417    273723.89   -76551.216     7396.899   -83948.115    1847.8607 
   36050    295.59825    32.165155    274383.37   -76614.323    7495.7068    -84110.03    1852.4788 
   36100    294.92094   -397.80852    275099.84   -76559.832    7478.5318   -84038.364    1857.7512 
   36150    291.79611   -175.55158    275077.84   -76574.624    7399.2931   -83973.917    1862.3632 
   36200    291.87739   -184.13139    274307.41   -76601.044    7401.3542   -84002.398    1862.1993 
   36250    293.05897    110.99423    273559.91   -76615.723    7431.3164    -84047.04    1860.9028 
   36300    295.05179    -77.37969    273502.18   -76631.912      7481.85   -84113.762    1861.5654 
   36350     289.8329   -7.0883144    273928.99   -76651.072    7349.5106   -84000.583    1865.9483 
   36400    292.39198   -92.709917    274449.86   -76647.213    7414.4032   -84061.616    1871.5843 
   36450    294.75872   -18.952253    274593.17   -76596.187    7474.4182   -84070.605    1874.6408 
   36500    296.61046    -10.74108    274380.11   -76536.636    7521.3742    -84058.01    1877.5091 
   36550    297.95899    81.174223    274088.75   -76546.886      7555.57   -84102.456    1878.3299 
   36600    293.59021   -96.003087    274133.23   -76613.124    7444.7876   -84057.912    1880.8601 
   36650    289.98484    38.330066    274248.24     -76624.4    7353.3634   -83977.764    1885.0711 
   36700    287.34864   -170.81021    274403.25   -76655.936    7286.5154   -83942.451     1887.584 
   36750    291.24666    -166.5474    274325.83   -76645.938    7385.3603   -84031.299    1889.4191 
   36800    291.22258   -78.146732    274128.23   -76652.546    7384.7497   -84037.295    1890.7059 
   36850    295.17763   -122.81504    274037.31   -76640.155    7485.0408   -84125.196    1891.3794 
   36900    295.64931   -197.73167    274196.63   -76630.262    7497.0016   -84127.263    1896.1939 
   36950    294.58582   -141.53965    274285.99   -76639.856    7470.0339    -84109.89    1899.3267 
   37000    292.24743   -177.62281    274098.96   -76653.324    7410.7375   -84064.061    1900.7409 
   37050    291.40433    34.499664    273802.73   -76641.892    7389.3585   -84031.251    1901.3892 
   37100    293.54666     264.6422    273855.29   -76578.696    7443.6832   -84022.379    1906.1073 
   37150     297.5696   -332.40466    274254.52   -76563.655     7545.696   -84109.351    1912.1631 
   37200    295.67424    153.32699    274397.25   -76577.228    7497.6338   -84074.862    1916.2986 
   37250    292.71951   -230.77323    274364.76    -76603.37    7422.7086   -84026.079    1918.8231 
   37300    292.84657    387.30126    273920.35     -76633.5    7425.9305   -84059.431    1917.9711 
   37350    290.85588    384.35378    273921.37   -76613.097    7375.4509   -83988.548    1919.5775 
   37400    298.54898   -69.657976    274235.38    -76585.79    7570.5308   -84156.321    1922.6075 
   37450    290.00249    355.27505    274412.38   -76567.358     7353.811   -83921.169    1926.2216 
   37500    297.00287   -180.29277    274762.72   -76533.206     7531.325   -84064.531     1930.066 
   37550    288.97689    -25.83375    274983.36   -76587.629     7327.804   -83915.433     1934.226 
   37600    294.84261   -388.44765    274751.62   -76608.957    7476.5455   -84085.503    1933.0733 
   37650    295.20137   -67.389324    273977.32   -76609.212    7485.6429   -84094.855    1934.0015 
[...]
   90850    292.06179   -120.74366    274166.37   -76705.236    7406.0303   -84111.266    4663.1688 
   90900    288.52995   -27.720472    274492.75   -76696.318    7316.4705   -84012.789    4669.2061 
   90950    290.87035    12.194863     274473.7   -76700.973    7375.8178   -84076.791    4669.2906 
   91000    290.67128     34.97735    273985.31   -76718.987    7370.7699   -84089.757    4668.1537 
   91050    292.43458    273.57815    273429.72   -76754.186    7415.4833   -84169.669    4666.4448 
   91100    292.68813    384.33559    273611.51   -76703.446    7421.9127   -84125.358    4669.6066 
   91150    288.96248    -66.56779    274470.94   -76665.708    7327.4387   -83993.147    4682.2496 
   91200    290.84365   -299.39296    274964.88    -76684.99    7375.1409   -84060.131    4692.1222 
   91250    292.10512   -117.89858    274643.02   -76648.177    7407.1289   -84055.306    4689.0358 
   91300    293.44743   -87.488537    273862.66   -76653.079    7441.1668   -84094.246    4679.3549 
   91350    297.29032    113.58965     273282.3   -76673.147     7538.614   -84211.761    4673.3216 
   91400    291.59517    302.14849    273601.71   -76707.267    7394.1978   -84101.465    4676.9973 
   91450    293.10374   -143.36723    274419.12   -76661.191    7432.4517   -84093.643    4688.0538 
   91500    289.12942   -273.04686    274779.36   -76701.999    7331.6717    -84033.67    4697.3062 
   91550    294.91175   -394.23123    274250.64   -76666.991    7478.2986   -84145.289    4691.0792 
   91600    294.69825    203.47907    273397.08   -76679.165    7472.8849   -84152.049    4682.0742 
   91650    294.48182    61.138331    273268.29   -76650.344    7467.3967   -84117.741    4684.9799 
   91700    296.84766   -77.617532    273812.28   -76675.056    7527.3891   -84202.445    4695.8357 
   91750    294.04337    52.036554    274368.15   -76651.243    7456.2787   -84107.522    4705.0495 
   91800     288.2929   -149.56979    274495.96   -76661.713    7310.4597   -83972.173     4708.171 
   91850    286.85373    117.46775    274371.63   -76661.094    7273.9655    -83935.06    4703.7193 
   91900    287.30997    58.738736    274227.34   -76628.558    7285.5347   -83914.093    4703.8214 
   91950     296.9197    51.835863    274174.49   -76621.206    7529.2159   -84150.422    4702.9447 
   92000    292.04926   -204.91541    274309.89    -76683.45    7405.7125   -84089.163    4708.0374 
   92050    291.78736   -38.123151    274237.54   -76695.696    7399.0713   -84094.767    4709.0855 
   92100    295.67024    107.51173     274205.7   -76670.047    7497.5325   -84167.579    4710.7885 
   92150    287.46038   -159.53797    274162.95   -76700.346    7289.3488   -83989.695    4712.7148 
   92200    297.15131   -183.40205    274035.79   -76677.516    7535.0889   -84212.605    4714.3072 
   92250    292.15696    12.267217    274106.74   -76649.105    7408.4435   -84057.549    4718.2999 
   92300     296.0699   -93.739523     274499.2   -76643.987    7507.6668   -84151.654    4725.3537 
   92350    292.16274   -182.40036    274644.29   -76600.798      7408.59   -84009.388    4730.5252 
   92400    290.96731    272.73744     274367.5   -76620.301    7378.2765   -83998.577    4727.6271 
   92450    287.72635   -315.30666    274276.36   -76627.166    7296.0932   -83923.259    4727.9336 
   92500    294.03255   -227.99673    274278.61   -76676.672    7456.0042   -84132.677    4725.2073 
   92550    291.76229    6.0468107    274447.25   -76713.834    7398.4356   -84112.269    4727.3354 
   92600     292.5699   -193.73364    274638.22   -76687.586    7418.9146   -84106.501    4729.4625 
   92650    289.60709    48.856346    274381.33   -76654.057    7343.7845   -83997.842    4726.2697 
   92700    294.84856     104.6651    273997.72   -76660.552    7476.6965   -84137.248    4723.9969 
   92750    290.91762   -4.0762812     273875.7   -76637.761    7377.0166   -84014.777    4722.6782 
   92800    290.87571   -190.64816    274161.41   -76631.998    7375.9538   -84007.952    4723.8771 
   92850    296.12737   -197.48864    274443.98   -76597.027    7509.1242   -84106.151    4732.2588 
   92900    292.16988    -15.57079    274448.65   -76576.978    7408.7711    -83985.75     4733.921 
   92950    301.99823    8.8453895    274184.47   -76557.714     7657.996    -84215.71    4735.6117 
   93000    298.89751   -19.268093    274241.16   -76492.572    7579.3686   -84071.941    4738.5574 
   93050    291.35151    1.8133433    274423.79   -76462.613     7388.019   -83850.632     4741.077 
   93100    297.10341    74.258702    274515.41   -76505.076    7533.8744    -84038.95    4745.6139 
   93150    294.62164    64.210695     274605.9   -76532.417    7470.9423   -84003.359    4749.4347 
   93200    292.45507   -142.09087    274675.63   -76581.287    7416.0029    -83997.29    4755.3327 
   93250    299.32627   -155.30905     274464.9   -76581.299    7590.2411    -84171.54    4760.2541 
   93300    299.25453    -137.2778    274039.72   -76576.093     7588.422   -84164.515    4759.5109 
   93350    296.48837    443.08162    273933.12   -76591.403    7518.2783   -84109.681    4763.4426 
   93400    292.70238   -74.315344    274442.95   -76545.674    7422.2741   -83967.948    4772.9909 
   93450    290.57224   -132.14982    274672.74   -76555.171    7368.2586   -83923.429    4780.6342 
   93500    291.61928    119.65903    274427.04   -76578.633    7394.8091   -83973.442    4780.1046 
   93550    296.64771   -116.32225    274163.09   -76537.328    7522.3187   -84059.647    4780.4807 
   93600    295.10203    142.01007    274038.74   -76532.538    7483.1238   -84015.662     4784.216 
   93650     293.2229   -51.823718     274429.6   -76510.928    7435.4734   -83946.402    4794.5107 
   93700    294.54441   -19.825203    274827.15   -76472.242    7468.9839   -83941.226    4800.5723 
   93750    295.29434   -230.60669    274874.75     -76518.9    7488.0005     -84006.9    4805.4527 
   93800    295.54904   -121.01508     274512.9   -76545.617     7494.459   -84040.076    4806.2718 
   93850    292.26813    158.46668    273976.54    -76548.52    7411.2625   -83959.783    4798.8278 
   93900    298.40086    299.80907    273767.71    -76538.78    7566.7746   -84105.555    4794.3151 
   93950    297.47366    141.01346    274006.87   -76549.443     7543.263   -84092.706    4799.9689 
   94000    292.99914   -25.998505     274556.2   -76597.161    7429.7991    -84026.96    4806.9718 
   94050    294.58505   -136.54344    274577.73   -76656.392    7470.0143   -84126.407    4811.9098 
   94100    293.33951    136.77822    274155.17   -76669.155    7438.4304   -84107.585    4811.4973 
   94150    287.59011    16.617373    274047.01   -76690.693    7292.6384   -83983.331    4814.9518 
   94200    288.66133   -16.839376    274000.55   -76653.993    7319.8022   -83973.796    4816.2087 
   94250    288.94001    -135.3349    274055.03    -76607.22    7326.8689   -83934.089    4819.5326 
   94300    294.27506   -15.207823    274187.86   -76608.159    7462.1536   -84070.313     4820.304 
   94350    294.07967   -87.111044     274424.6   -76628.042     7457.199   -84085.241    4823.7704 
   94400    289.32547   -5.6812959    274125.47   -76625.527    7336.6432    -83962.17    4822.1294 
   94450    296.12684    155.59921    273736.73   -76622.091    7509.1106   -84131.202    4816.2303 
   94500    292.10299    97.327274    273681.63   -76647.728     7407.075   -84054.803    4817.4536 
   94550    293.17574    111.94197    273889.28    -76632.53    7434.2774   -84066.808     4820.211 
   94600    293.62608   -327.96341    274421.64    -76614.54    7445.6969   -84060.237       4827.2 
   94650    287.74047    -41.70337    274550.16   -76624.162    7296.4513   -83920.613    4829.9064 
   94700    299.42206   -277.32428    274362.57   -76615.456      7592.67   -84208.126     4828.843 
   94750    289.40263    86.853453    274133.35   -76654.984    7338.5999   -83993.584    4826.3873 
   94800    289.17562    193.32602    273931.38   -76702.537    7332.8434    -84035.38    4825.5203 
   94850    288.23289   -191.55332    274032.47    -76733.61    7308.9378   -84042.548    4832.8376 
   94900    292.65139   -38.926347    274045.87   -76739.686    7420.9811   -84160.667    4830.7792 
   94950    288.19884    16.708778    274101.92   -76695.907    7308.0743   -84003.981     4833.013 
   95000    289.89919    189.07122    274110.88   -76767.015    7351.1916   -84118.206    4833.7044 
   95050    289.25969   -82.921336    274293.58   -76780.481    7334.9753   -84115.456    4837.3386 
   95100    291.69232   -187.72981    274335.58   -76743.733    7396.6614   -84140.394    4839.7982 
   95150    292.17359    133.72178    273985.07    -76714.88    7408.8651   -84123.745    4838.7889 
   95200    287.18072    409.35922    273660.28   -76721.395    7282.2572   -84003.652    4836.0292 
   95250    292.26666      38.1164     273745.3   -76741.799    7411.2253   -84153.025    4837.3591 
   95300    294.68741   -131.39553    274126.35   -76781.195    7472.6099   -84253.805    4846.9337 
   95350    288.61401   -107.19976     274487.8   -76772.285    7318.6022   -84090.888    4856.4696 
   95400    290.04369    93.218226    274408.07   -76725.161    7354.8557   -84080.016    4858.9335 
   95450    291.46886    113.07344    274351.32   -76717.442    7390.9947   -84108.437    4864.4756 
   95500    291.05054     123.4159    274423.13   -76691.982    7380.3872   -84072.369    4867.9815 
   95550    295.39194   -115.56179    274424.33   -76635.557    7490.4753   -84126.033    4869.8138 
   95600     293.8719   -91.986243    274408.07   -76645.815    7451.9306   -84097.745     4864.865 
   95650    290.79129   -107.97573    274205.01    -76611.35    7373.8132   -83985.164    4864.5856 
   95700    288.71851   -53.018018    274156.46   -76605.936     7321.252   -83927.188     4868.443 
   95750    290.86296    318.56013    274055.44   -76598.944    7375.6306   -83974.575    4865.9896 
   95800      286.452    87.919596    274325.29   -76581.284    7263.7785   -83845.062    4869.1869 
   95850    292.49786   -53.019433    274517.19   -76575.233    7417.0879   -83992.321     4877.211 
   95900    294.97058   -244.46848    274426.24   -76578.107    7479.7904   -84057.897    4879.1103 
   95950    288.20504   0.74027502    274106.13   -76561.511    7308.2318   -83869.743     4875.222 
   96000    296.49173   -138.48343    273826.33    -76562.37    7518.3636   -84080.733    4874.6061 
   96050    294.74536    306.54172     273800.6   -76550.762    7474.0794   -84024.841    4873.9713 
   96100    293.81614   -97.526577    274556.12   -76622.407    7450.5164   -84072.923     4883.353 
   96150     294.7348   -306.76543    274855.68   -76640.263    7473.8117   -84114.074    4888.7854 
   96200      296.064   -63.068125    274212.68   -76625.198    7507.5173   -84132.716    4883.8079 
   96250    291.42455    134.63192    273698.72   -76649.666    7389.8713   -84039.537    4879.1338 
   96300    293.76994     380.5319    273865.77   -76621.739     7449.345   -84071.084    4881.8452 
   96350    291.19481   -140.51668    274514.26   -76641.083    7384.0456   -84025.129    4890.3956 
   96400    294.03171    -293.2571    274889.88   -76661.072    7455.9828   -84117.054    4897.7992 
   96450    291.91392    24.047696    274689.46   -76626.201    7402.2806   -84028.482    4893.1699 
   96500    295.57441    82.486257    274158.94   -76618.151    7495.1024   -84113.253    4887.1709 
   96550    293.84702    239.39957    273841.03   -76645.159    7451.2995   -84096.459    4886.1893 
   96600    291.17474   -217.18414    274017.48   -76710.102    7383.5367   -84093.638    4887.7248 
   96650    288.07834   -227.38663     274273.3   -76725.961    7305.0187   -84030.979    4890.7106 
   96700    290.91611    251.85416    274195.24    -76739.95    7376.9784   -84116.928    4890.2207 
   96750    292.65102   -79.619175    274026.59   -76778.754    7420.9716   -84199.726    4892.0675 
   96800    289.57578    158.90551    273877.17   -76802.048    7342.9905   -84145.038    4891.8926 
   96850    291.61171   -405.02053    274060.25   -76786.527    7394.6171   -84181.144    4897.9194 
   96900    287.93314    -65.69539    274039.11   -76763.147     7301.337   -84064.484    4897.4049 
   96950     292.2846    1.1883403    274161.12   -76758.916    7411.6802   -84170.596    4899.9702 
   97000    288.43503    155.70581    274275.77     -76680.1    7314.0638   -83994.164    4902.2141 
   97050    290.06937   -50.785269     274386.2   -76675.691    7355.5069   -84031.198    4906.1669 
   97100     294.9947   -18.440657    274390.97   -76687.131    7480.4021   -84167.533    4909.0976 
   97150    293.13742   -472.54544    274465.94   -76724.986    7433.3058   -84158.292    4914.8734 
   97200    293.50927    -306.2496    274190.42   -76704.928    7442.7351   -84147.663    4914.4936 
   97250     295.5517   -29.266279    273991.65    -76704.97    7494.5265   -84199.497    4914.0883 
   97300    289.56005    205.62112    273863.09   -76647.128    7342.5917    -83989.72    4913.7846 
   97350    296.50422    2.5366471     273959.7   -76622.131    7518.6801   -84140.811      4917.38 
   97400    292.27089    177.89521    274167.18   -76600.596    7411.3326   -84011.928    4924.6449 
   97450    297.78101    71.503329    274449.38    -76593.87    7551.0567   -84144.926    4931.4126 
   97500    292.05943   -10.508166    274697.61    -76606.56    7405.9704   -84012.531    4934.2572 
   97550    295.03489   -58.213681     274694.8   -76598.922    7481.4212   -84080.343     4936.645 
   97600    294.55002    118.42763    274465.48   -76581.917    7469.1261   -84051.043    4935.2383 
   97650     295.8994   -51.709056    274136.96   -76563.434    7503.3435   -84066.777    4930.9441 
   97700    299.77926    314.93764    273951.93   -76569.773    7601.7278   -84171.501    4933.0857 
   97750    294.81379    68.677648    274256.47   -76566.513    7475.8148   -84042.328    4935.2046 
   97800    294.46593    214.34556    274549.48   -76588.866    7466.9938    -84055.86    4944.5677 
   97850    291.32052   -337.85397    274785.18    -76608.39    7387.2333   -83995.624    4951.9215 
   97900    290.94401   -6.4493793    274336.98   -76586.419    7377.6859   -83964.105    4949.4092 
   97950    290.80639    355.38527    273657.61   -76576.877    7374.1961   -83951.073     4943.268 
   98000    291.99215     -51.9879    273658.82   -76563.946    7404.2643   -83968.211    4946.3412 
   98050    294.59836    138.22782    273910.07   -76584.911     7470.352   -84055.263    4948.3461 
   98100    296.16301   -17.965226    274384.43   -76591.665    7510.0279   -84101.693    4956.2721 
   98150     291.6144    11.697991     274773.4   -76606.459    7394.6853   -84001.144     4965.654 
   98200       295.07   -530.25372     274797.1    -76577.97    7482.3116   -84060.281    4971.6272 
   98250    294.56109   -71.244305    274242.84   -76518.505    7469.4068   -83987.912     4965.464 
   98300     301.0939    154.56238    273795.89   -76515.333    7635.0642   -84150.397    4961.2041 
   98350    300.15829    13.032198    273942.61   -76468.073    7611.3391   -84079.412    4961.7623 
   98400    297.27511    86.373132    274384.65   -76505.984    7538.2283   -84044.213    4970.6429 
   98450    297.31334   -243.68255    274806.55   -76533.105    7539.1978   -84072.303    4979.4062 
   98500    291.97867    276.01197    274298.82   -76574.451    7403.9225   -83978.374    4976.0789 
   98550    289.56462   -30.656692     273770.7   -76563.573    7342.7077    -83906.28    4973.3818 
   98600    294.53448    230.71987    273726.19   -76561.547     7468.732   -84030.279    4973.3769 
   98650    297.26618   -179.34176    274515.54   -76509.776    7538.0017   -84047.777    4984.7933 
   98700    287.96452   -350.12211    275045.81   -76511.443    7302.1325   -83813.576    4991.8813 
   98750    289.09283   -69.732229    274764.93   -76473.913    7330.7441   -83804.657    4991.1979 
   98800    294.06151    171.02606    274082.64   -76490.651    7456.7386   -83947.389    4988.5689 
   98850    295.78242    25.755712    273742.43   -76506.931    7500.3769   -84007.308    4986.4155 
   98900    294.22592    332.59116    273763.33   -76510.013    7460.9077    -83970.92    4989.3005 
   98950     290.2027   -225.45568    274370.36   -76490.569    7358.8878   -83849.457    4999.4255 
   99000    292.64729   -103.55615    274626.47   -76492.566    7420.8772   -83913.443    5006.5901 
   99050    296.41158    120.20908    274291.46   -76545.732     7516.331   -84062.063    5002.8717 
   99100    291.80978   -35.453964    273996.52   -76495.528    7399.6398   -83895.168    4998.0321 
   99150    300.87702    245.12504    273914.74    -76571.11    7629.5646   -84200.674    4998.6388 
   99200    291.35563    7.9534254    274245.91   -76629.661    7388.1235   -84017.785    5005.7407 
   99250    290.87424   -126.08519    274502.78   -76668.233    7375.9166   -84044.149    5012.1075 
   99300    290.37293   -63.471653    274490.63   -76687.047    7363.2044   -84050.252    5014.2139 
   99350    293.26112   -60.311597    274232.45   -76731.578    7436.4424    -84168.02    5014.7345 
   99400    293.55294    71.998982    273895.03   -76768.348    7443.8423   -84212.191    5013.7548 
   99450    287.93942    271.05293    273709.84   -76752.161    7301.4962   -84053.657    5014.3452 
   99500    293.27572   -126.36092    274071.16   -76753.244    7436.8128   -84190.057    5021.1284 
   99550    288.55577    63.026829    274037.33   -76776.556    7317.1253   -84093.681    5022.1846 
   99600    285.32666    1.0719854    273995.55   -76785.416    7235.2425   -84020.659    5025.3368 
   99650    290.80733   -329.02741    274185.36   -76726.168    7374.2199   -84100.388    5029.8453 
   99700    295.75353   -265.97939    274164.15   -76715.554    7499.6443   -84215.198    5029.7207 
   99750    290.94911   -78.578192    274033.42   -76687.046    7377.8152   -84064.861    5032.6078 
   99800    291.76512    64.198394    273875.19   -76704.426    7398.5073   -84102.933    5034.5686 
   99850    294.35268    135.78865    273957.92   -76748.831    7464.1219   -84212.953    5036.8486 
   99900    290.80946   -152.42796    274266.89   -76721.769    7374.2738   -84096.043    5041.5635 
   99950    292.15591    152.10611    274386.88    -76703.11    7408.4169   -84111.527    5044.7718 
  100000     289.1178    22.398513    274366.15    -76704.72    7331.3772   -84036.097    5044.6602 
Loop time of 251.822 on 6 procs for 100000 steps with 8508 atoms

Performance: 343.100 ns/day, 0.070 hours/ns, 397.107 timesteps/s
99.5% CPU use with 6 MPI tasks x no OpenMP threads

MPI task timing breakdown:
Section |  min time  |  avg time  |  max time  |%varavg| %total
---------------------------------------------------------------
Pair    | 72.959     | 129.81     | 197.8      | 448.1 | 51.55
Neigh   | 31.416     | 36.563     | 40.205     |  60.2 | 14.52
Comm    | 7.369      | 79.015     | 141.04     | 611.5 | 31.38
Output  | 0.14959    | 0.15271    | 0.16623    |   1.5 |  0.06
Modify  | 5.1342     | 5.1767     | 5.2487     |   1.6 |  2.06
Other   |            | 1.102      |            |       |  0.44

Nlocal:        1418.00 ave        1437 max        1396 min
Histogram: 2 0 0 0 0 0 1 2 0 1
Nghost:        2054.00 ave        2074 max        2040 min
Histogram: 1 1 0 2 0 1 0 0 0 1
Neighs:        0.00000 ave           0 max           0 min
Histogram: 6 0 0 0 0 0 0 0 0 0
FullNghs:      39621.7 ave       39883 max       38964 min
Histogram: 1 0 0 0 0 0 1 0 2 2

Total # of neighbors = 237730
Ave neighs/atom = 27.941937
Neighbor list builds = 21014
Dangerous builds = 0

# Create data file for import to other simulations
#
write_data data.${NAME}
write_data data.coexist_293K_1atm_ML
System init for write_data ...

Total wall time: 0:04:11
