
# Define the lattice
#
variable	    lattice_constant equal 6.36339
lattice		    diamond ${lattice_constant} orient x 0 0 1 orient y 0 1 0 orient z -1 0 0
lattice		    diamond 6.36339 orient x 0 0 1 orient y 0 1 0 orient z -1 0 0
Lattice spacing in x,y,z = 6.3633900 6.3633900 6.3633900

# Define region
# multiples of lattice spacing
#
region 		    simbox block 0 9 0 8 0 8

# Create Atoms
#
create_box          1 simbox
Created orthogonal box = (0.0000000 0.0000000 0.0000000) to (57.270510 50.907120 50.907120)
  3 by 1 by 2 MPI processor grid
create_atoms        1 box
Created 4608 atoms
  create_atoms CPU = 0.001 seconds
mass                1 18.015

# Define potential
#
pair_style          sw
pair_coeff          * * /data/emrosky-sim/Freezing_Simulations/Melting/MLmW_fancy/ML_mW.sw mW
Reading sw potential file /data/emrosky-sim/Freezing_Simulations/Melting/MLmW_fancy/ML_mW.sw with DATE: 2019-02-27

# Add velocity/set timestep
#
velocity            all create ${TEMP} 120598 rot yes dist gaussian
velocity            all create 293 120598 rot yes dist gaussian
timestep            5.0

# Define output
#
compute	            1 all msd
thermo              100
thermo_style        custom step temp press vol etotal ke pe c_1[4]

# Neighbor lists
#
neigh_modify        delay 0 every 1 check yes

# Set fixes
#
fix                 1 all momentum 10 linear 1 1 1 rescale
fix                 2 all nve
fix                 3 all temp/csvr ${TEMP} ${TEMP} 500.0 928347
fix                 3 all temp/csvr 293 ${TEMP} 500.0 928347
fix                 3 all temp/csvr 293 293 500.0 928347
fix                 4 all press/berendsen iso ${PRES} ${PRES} 1000.0 modulus 20000
fix                 4 all press/berendsen iso 1 ${PRES} 1000.0 modulus 20000
fix                 4 all press/berendsen iso 1 1 1000.0 modulus 20000

# Run 0.5 ns equilibration
#
dump		    1 all custom 1000 eq.${NAME}.dump id type x y z vx vy vz
dump		    1 all custom 1000 eq.ice_293K_1atm_ML.dump id type x y z vx vy vz
run                 100000
Neighbor list info ...
  update every 1 steps, delay 0 steps, check yes
  max neighbors/atom: 2000, page size: 100000
  master list distance cutoff = 6.0032907
  ghost atom cutoff = 6.0032907
  binsize = 3.0016454, bins = 20 17 17
  1 neighbor lists, perpetual/occasional/extra = 1 0 0
  (1) pair sw, perpetual
      attributes: full, newton on
      pair build: full/bin/atomonly
      stencil: full/bin/3d
      bin: standard
Per MPI rank memory allocation (min/avg/max) = 4.779 | 4.779 | 4.779 Mbytes
Step Temp Press Volume TotEng KinEng PotEng c_1[4] 
       0          293   -623.02534    148418.52   -51873.535    4023.6494   -55897.184            0 
     100    197.84571     124.3018    147705.26   -50244.921    2716.9343   -52961.856   0.10248091 
     200    226.92023    90.096907    147969.82   -49272.911    3116.2029   -52389.114   0.11857346 
     300    244.28471    30.966823    148143.06   -48654.769    3354.6623   -52009.432   0.14556936 
     400    266.86499    35.113705    148271.04   -48247.734     3664.748   -51912.482   0.14634023 
     500    283.00944    57.741379    148383.83   -47956.461    3886.4531   -51842.914   0.13945715 
     600    289.84029    31.248205    148472.48   -47681.855    3980.2584   -51662.113   0.15318693 
     700    293.96401    5.3938641    148520.78    -47630.98    4036.8877   -51667.868   0.14379605 
     800    292.71642    11.409469    148518.62   -47530.118    4019.7552   -51549.873   0.15664121 
     900    291.56889   -10.456563       148535   -47506.414    4003.9966    -51510.41   0.16560763 
    1000    290.47349    10.003152    148510.27   -47557.931    3988.9539   -51546.885   0.14838966 
    1100    291.03192   -25.986576    148522.38   -47504.587    3996.6227    -51501.21   0.15704696 
    1200    295.78591    40.085496    148530.99    -47499.39    4061.9072   -51561.297   0.15113619 
    1300    295.00883   -71.394691    148557.29   -47428.408    4051.2359   -51479.644   0.16395975 
    1400    288.21447   -5.8905002    148532.46   -47515.576    3957.9316   -51473.508   0.16260048 
    1500    290.46952    -25.15864     148538.9   -47550.476    3988.8994   -51539.375   0.14777208 
    1600    293.74638    26.660743    148517.98    -47481.33    4033.8992   -51515.229    0.1638041 
    1700    291.65399   -24.658144    148533.63   -47510.291    4005.1652   -51515.457   0.15288114 
    1800    289.61477   -4.3667071    148532.65   -47504.263    3977.1615   -51481.424   0.16486722 
    1900    295.82707    7.0211074    148574.47   -47419.119    4062.4724   -51481.591   0.15969601 
    2000    303.85123    1.4401282    148609.11   -47364.829    4172.6649   -51537.494   0.14822423 
    2100    292.78582   -6.9601716    148560.18   -47529.266    4020.7081   -51549.974   0.15930891 
    2200    293.29532    1.9751008    148575.56   -47462.875    4027.7049    -51490.58   0.14963551 
    2300    296.66816    26.174204    148589.73    -47400.78    4074.0228   -51474.803   0.16524979 
    2400    293.18071   -8.5569588    148573.37   -47422.331    4026.1311   -51448.462   0.16149217 
    2500    294.33894    25.526505    148593.39   -47472.419    4042.0365   -51514.455   0.14213594 
    2600    296.20242   -5.2638726    148572.51   -47506.112    4067.6269   -51573.739   0.16305115 
    2700    295.69346    49.469961    148543.23   -47468.401    4060.6376   -51529.039    0.1425428 
    2800     295.7383    29.162523    148559.79   -47375.452    4061.2534   -51436.706   0.16712367 
    2900    295.71445    -16.28011    148571.96   -47396.814    4060.9259    -51457.74   0.15939285 
    3000    294.22766    14.788084    148546.12   -47457.828    4040.5084   -51498.337   0.15998481 
    3100    296.56706    19.369466    148585.13   -47431.265    4072.6345   -51503.899   0.15246399 
    3200    293.22859    9.8577589    148557.48   -47541.984    4026.7886   -51568.773    0.1458398 
    3300    288.90049    19.661514    148512.73   -47603.394    3967.3526   -51570.747   0.15099198 
    3400    288.13572    -17.56264    148530.43   -47534.673    3956.8503   -51491.523   0.15645347 
    3500    296.71397   -9.0212896    148535.27    -47502.58    4074.6519   -51577.231   0.15949163 
    3600    287.98593   -22.298686    148520.29   -47506.877    3954.7932    -51461.67   0.16152124 
    3700    294.47255    58.999793    148523.38   -47464.679    4043.8713   -51508.551   0.15534769 
    3800    295.03783   -41.844949    148535.12   -47458.041    4051.6342   -51509.675   0.16050644 
    3900    290.24014   -20.093209    148519.28   -47453.864    3985.7493   -51439.613   0.16092044 
    4000    297.60889   -23.249708    148533.84   -47502.382    4086.9414   -51589.324   0.15153864 
    4100    293.71528    25.496355    148516.08   -47512.779     4033.472   -51546.251   0.15618715 
    4200     294.0031   -5.0722759     148542.7   -47474.996    4037.4246    -51512.42   0.14983085 
    4300    290.41472   -13.710482    148531.35   -47614.045    3988.1468   -51602.192   0.15927731 
    4400    294.04421    15.906911    148540.08    -47498.77    4037.9891   -51536.759   0.14171445 
    4500     291.2274  -0.10568824    148554.52   -47565.427    3999.3071   -51564.735   0.15575023 
    4600    286.41053   -6.8226825    148531.61    -47594.96    3933.1589   -51528.119    0.1507286 
    4700    300.70687    40.870956    148533.87   -47495.433    4129.4847   -51624.918   0.14762338 
    4800    295.06567    17.555909    148563.19   -47387.751    4052.0164   -51439.767   0.16257651 
    4900    293.14632   -54.440262    148587.03   -47362.265    4025.6588   -51387.923   0.15626524 
    5000    289.70372   -34.348388    148556.13   -47489.828    3978.3829   -51468.211   0.16345704 
    5100    293.43852    13.271261    148557.62   -47412.074    4029.6715   -51441.745    0.1536986 
    5200    296.68874    26.830879    148552.82   -47488.704    4074.3054   -51563.009   0.15228853 
    5300    290.75121   -13.716349    148527.71   -47599.139    3992.7677   -51591.907    0.1504343 
    5400    291.79105    16.678559    148507.18   -47555.917    4007.0474   -51562.965   0.14795944 
    5500    293.07273    -23.39309    148517.22   -47525.371    4024.6482   -51550.019   0.15974711 
    5600     293.4972   -7.7072161    148505.26   -47560.121    4030.4773   -51590.599   0.15253483 
    5700    293.31725   -9.7979101    148534.83   -47555.406    4028.0061   -51583.412   0.15216339 
    5800    294.74082    3.0349808    148542.32   -47495.699    4047.5554   -51543.254   0.15145487 
    5900     294.0831   -3.9021459    148522.46   -47571.404    4038.5232   -51609.927   0.14923321 
    6000    288.66406   -1.9597466    148523.68   -47549.882    3964.1057   -51513.988    0.1607437 
    6100    285.85834   -44.807109    148516.57   -47627.204    3925.5759   -51552.779   0.15116778 
    6200    287.60042   -34.541048    148533.24   -47609.774    3949.4992   -51559.273   0.16180792 
    6300    290.17151   -45.934709    148567.71   -47487.454    3984.8069   -51472.261   0.15808549 
    6400    296.05115    17.201837    148567.64   -47543.769    4065.5496   -51609.318   0.14447614 
    6500    293.22334    21.589505    148539.01   -47555.445    4026.7165   -51582.162    0.1505416 
    6600    292.37703    29.000901    148554.62   -47559.542    4015.0945   -51574.637   0.14687046 
    6700    284.58545   -13.759686    148557.75   -47614.498    3908.0958   -51522.594   0.15605778 
    6800    293.89517    44.221929    148566.08   -47570.556    4035.9425   -51606.499   0.15133443 
    6900    295.61084    4.9357054    148610.64   -47490.721     4059.503   -51550.224   0.14577091 
    7000    295.23208   -21.056767    148598.52   -47494.597    4054.3017   -51548.899   0.16076692 
    7100    290.58609    67.787088    148594.71   -47502.893    3990.5002   -51493.393   0.13718788 
    7200    288.51435   -8.7030981    148560.94   -47615.814    3962.0499   -51577.864    0.1528578 
    7300    290.96361    18.729507    148514.85   -47663.684    3995.6845   -51659.369   0.14574591 
    7400    286.12061    4.2212398    148540.17   -47553.638    3929.1776   -51482.816   0.15118452 
    7500    297.29935    40.216363    148551.06    -47482.61    4082.6907   -51565.301   0.15945673 
    7600    289.50494   -18.479819    148556.55   -47457.228    3975.6532   -51432.882   0.15110761 
    7700    290.82636   -13.300008    148559.62   -47557.484    3993.7997   -51551.284    0.1642249 
    7800    294.99924    43.291663    148575.81   -47619.297    4051.1042   -51670.401   0.13817772 
    7900    289.32675   -2.0421014       148570   -47558.803    3973.2062   -51532.009   0.15063414 
    8000    297.33229     45.68887     148581.9   -47456.922     4083.143   -51540.065   0.15297097 
    8100    293.53169    0.3050811    148592.85   -47418.934    4030.9509   -51449.885   0.15496208 
    8200    292.07716   -36.810923    148585.49   -47445.341    4010.9765   -51456.318   0.16190326 
    8300    295.37581    5.2572964    148603.11   -47407.244    4056.2754   -51463.519    0.1600251 
    8400    298.00527    2.3862008    148607.47   -47380.577    4092.3848   -51472.962   0.15457557 
    8500    294.42375  -0.14153757    148595.19   -47470.968    4043.2012   -51514.169   0.15650379 
    8600    299.16479    42.709356    148567.12   -47476.091     4108.308   -51584.399   0.14477511 
    8700    294.33546   -38.339782     148571.7    -47453.79    4041.9887   -51495.779   0.16663896 
    8800    295.26194    54.231926    148602.45   -47494.151    4054.7117   -51548.862   0.14550519 
    8900     292.6152   -1.8802238    148557.03   -47560.121    4018.3652   -51578.486   0.15088287 
    9000    293.30632    52.075884    148565.04   -47477.682    4027.8559   -51505.538   0.15081934 
    9100    295.28252    11.276112    148565.76   -47534.226    4054.9943   -51589.221   0.14694377 
    9200    293.92534    9.1197128    148568.62   -47425.773    4036.3568    -51462.13   0.16423101 
    9300    286.66255   -16.730708    148563.48   -47577.693    3936.6198   -51514.313   0.14954513 
    9400    290.82218   -32.457547    148558.94   -47546.941    3993.7423   -51540.683   0.15642166 
    9500    288.10804   -15.412098    148544.41    -47584.41    3956.4701    -51540.88   0.15062204 
    9600     291.1866    5.9621509    148555.89    -47576.81    3998.7468   -51575.556   0.14358047 
    9700    293.44433   -5.3934361    148572.43   -47450.462    4029.7513   -51480.214   0.15943078 
    9800     296.1126    -56.16638    148621.08   -47408.342    4066.3936   -51474.736    0.1567585 
    9900    300.28416   -5.6615315    148607.75   -47441.417    4123.6798   -51565.096    0.1514112 
   10000    290.16038    -36.96802    148597.15   -47495.205    3984.6541   -51479.859   0.15833467 
   10100    298.29897     31.40929    148599.48   -47445.786     4096.418   -51542.204   0.14266243 
   10200    295.65561   -17.974313    148587.19   -47417.365    4060.1178   -51477.483   0.16160068 
   10300    290.51841   -22.358826    148597.25   -47415.442    3989.5708   -51405.013   0.15119175 
   10400    293.26698    -19.92346    148589.03   -47424.223    4027.3157   -51451.539   0.15783933 
   10500    292.91855    22.970474    148553.61   -47465.663    4022.5309   -51488.194   0.15193302 
   10600    296.68858    37.526427    148540.06   -47486.646    4074.3031   -51560.949   0.15100402 
   10700    291.76103   -5.6000247    148535.25   -47508.402    4006.6351   -51515.037   0.15812078 
   10800    292.17142    -31.55777    148525.09   -47645.205    4012.2709   -51657.476   0.15029003 
   10900    287.45384  -0.65561579    148523.62   -47633.801    3947.4863   -51581.287   0.15271788 
   11000     286.9137   -8.3760471    148510.93    -47642.35    3940.0687   -51582.419   0.14759835 
   11100    292.07112   -14.993264    148528.79   -47544.136    4010.8935   -51555.029   0.14573337 
   11200    286.44365   -2.5583539    148514.52   -47653.918    3933.6137   -51587.531    0.1520574 
   11300    294.19311    34.731939    148533.58   -47565.371     4040.034   -51605.405   0.14462042 
   11400    294.22608    11.780641    148548.97   -47548.786    4040.4866   -51589.273   0.15469757 
   11500    296.18239    28.569187    148579.74   -47443.804    4067.3519   -51511.156   0.14728897 
   11600    294.35894   -6.8552131    148596.92    -47448.16    4042.3112   -51490.471    0.1512314 
   11700    299.89224     24.27567    148620.52   -47310.063    4118.2978   -51428.361   0.16040833 
   11800    297.00955    9.1140424    148620.31   -47387.691     4078.711   -51466.402   0.15004784 
   11900    292.02895    3.1511989    148607.08   -47435.137    4010.3144   -51445.452   0.16066906 
   12000    293.43167    13.431583    148652.17   -47393.626    4029.5773   -51423.203   0.15299418 
   12100    289.80929    18.136201    148628.37    -47453.51    3979.8327   -51433.342   0.15636543 
   12200    299.82941    6.4488269    148613.19    -47453.74     4117.435   -51571.175   0.15007702 
   12300    290.23431    17.897808       148600   -47518.231    3985.6693     -51503.9   0.15307413 
   12400    292.29612   -0.2967293    148585.93   -47507.521    4013.9833   -51521.504   0.15308816 
   12500    297.74007    -3.503926    148610.66   -47442.428    4088.7428   -51531.171    0.1494868 
   12600    293.81797    15.412207    148602.65   -47400.236    4034.8822   -51435.119   0.15269898 
   12700    294.75612    14.864891    148615.92   -47476.261    4047.7655   -51524.027   0.15464858 
   12800    297.70953   -9.6621295    148610.23   -47464.784    4088.3235   -51553.108   0.14798853 
   12900     291.8805     39.17335    148599.38   -47532.394    4008.2758    -51540.67   0.15459543 
   13000    288.48409   -2.4077783     148573.7   -47497.349    3961.6343   -51458.984   0.15165064 
   13100    290.64642    5.7846767    148579.81   -47581.259    3991.3287   -51572.587   0.15433911 
   13200    288.93688  -0.98868236    148555.08   -47605.673    3967.8523   -51573.525   0.15266234 
   13300    285.60584   -25.127937    148560.95   -47692.634    3922.1084   -51614.742   0.14849876 
   13400    289.65092    28.464095    148522.29   -47673.051    3977.6578   -51650.709   0.15536729 
   13500    293.81574    8.2747938    148567.79   -47585.693    4034.8516   -51620.545   0.13889819 
   13600     298.3454    38.328572    148575.48   -47524.786    4097.0557   -51621.841   0.15553332 
   13700     290.3742   -1.0054485    148544.44   -47555.733    3987.5903   -51543.323   0.14891691 
   13800    292.07249   -12.967636    148560.56   -47509.514    4010.9123   -51520.426   0.15485996 
   13900    290.95015    27.661264    148566.39    -47498.98    3995.4997   -51494.479   0.15384142 
   14000    295.79247   -2.1898614    148560.95   -47381.801    4061.9972   -51443.799    0.1568087 
   14100    289.26673   -10.579357    148558.11   -47477.792     3972.382   -51450.174   0.16577512 
   14200     295.2125     23.12507    148578.48   -47481.368    4054.0328   -51535.401   0.15070486 
   14300    294.75535    -23.46086    148583.61   -47515.913    4047.7549   -51563.668   0.15528505 
   14400    298.44854   -23.674845    148569.81   -47573.662     4098.472   -51672.134   0.14893544 
   14500    292.04909     27.20645    148559.39   -47590.355    4010.5909   -51600.946   0.14343883 
   14600    289.49962    35.803307    148574.82   -47538.834    3975.5801   -51514.414   0.15214233 
   14700    295.32191    40.105044    148562.44   -47492.301    4055.5352   -51547.836   0.14896724 
   14800    297.91224   -4.6490478    148589.29   -47473.842    4091.1072   -51564.949   0.15585217 
   14900    294.71235    17.497378     148603.8   -47485.147    4047.1644   -51532.311   0.15144965 
   15000    290.38418   -9.0536993    148578.87   -47546.708    3987.7274   -51534.435   0.14926372 
   15100    287.20943   -30.971768    148589.55   -47565.366    3944.1299   -51509.496   0.15787975 
   15200    292.81709   -9.4508356    148614.06   -47495.932    4021.1376   -51517.069   0.14894874 
   15300    294.00517   -21.536858    148603.46   -47586.507     4037.453    -51623.96    0.1502614 
   15400     290.8696   -1.4657862    148577.27   -47573.308    3994.3934   -51567.701   0.14969709 
   15500    292.78486    6.4057132    148574.02   -47505.189     4020.695   -51525.884   0.15013467 
   15600     296.4782    17.535807    148613.03   -47384.776    4071.4141    -51456.19   0.16113689 
   15700    291.72437   -7.9855195    148610.75   -47393.659    4006.1317    -51399.79   0.15063017 
   15800    294.71242   -40.036955    148591.14   -47401.206    4047.1654   -51448.372   0.16148868 
   15900    295.58044    3.0506649    148622.47   -47419.773    4059.0856   -51478.858   0.14971378 
   16000    294.12735   -5.9256424    148591.68   -47468.007    4039.1308   -51507.138   0.14805709 
   16100    298.62459    19.366802    148579.38   -47499.535    4100.8897   -51600.425   0.15528514 
   16200    295.92184   -5.5347675    148598.35   -47512.813    4063.7739   -51576.587   0.14507952 
   16300    294.10747   -27.930355    148592.05   -47533.541    4038.8579   -51572.399   0.15938752 
   16400    292.41969    -14.92742    148613.34    -47541.72    4015.6803     -51557.4   0.14039827 
   16500    292.64701    10.976278    148628.41   -47463.382    4018.8019   -51482.184   0.15618505 
   16600    292.54457   -30.610723    148631.81   -47384.755    4017.3952   -51402.151   0.15549718 
   16700     295.6542   -33.388521    148622.91   -47432.823    4060.0985   -51492.921   0.15526573 
   16800    295.68197    16.246372    148606.74   -47483.241    4060.4798   -51543.721   0.15120686 
   16900     296.8045    3.3448007    148605.82   -47512.217     4075.895   -51588.112   0.14064293 
   17000    296.35251    18.054969    148579.17   -47559.875     4069.688   -51629.563   0.14594996 
   17100    293.87156    0.3494411    148591.93   -47507.732    4035.6183    -51543.35   0.14980271 
   17200    287.53644   -4.6531012    148557.68   -47567.951    3948.6206   -51516.572   0.15402196 
   17300    283.81719   -26.121074    148526.21   -47665.655    3897.5457     -51563.2    0.1558605 
   17400    285.39022   -10.707987    148523.97   -47647.459    3919.1474   -51566.607   0.15080851 
   17500    293.58609    1.7126401    148562.62   -47539.164    4031.6979   -51570.862   0.14764529 
   17600     288.9096  -0.12243045    148558.36   -47551.071    3967.4776   -51518.548    0.1555193 
   17700    291.22117    39.423428     148541.6   -47611.482    3999.2215   -51610.703   0.14093186 
   17800    292.24503   -4.3534903    148547.89   -47565.783    4013.2818   -51579.064    0.1547978 
   17900    296.93508    21.753859    148555.82   -47505.608    4077.6882   -51583.296   0.13913611 
   18000    295.76327   -5.7618622     148546.9    -47411.68    4061.5963   -51473.276   0.15817707 
   18100    294.31562   -42.158283    148591.02   -47425.233    4041.7164   -51466.949   0.15317816 
   18200    292.06719   -12.982052    148575.42   -47472.435    4010.8395   -51483.274   0.15226834 
   18300    296.00649   -9.5192893    148598.39   -47482.621    4064.9364   -51547.557   0.15404178 
   18400    295.18098   -5.9291609    148579.89   -47578.486    4053.5999   -51632.086   0.14036137 
   18500    294.09381    30.782393     148603.3   -47519.491    4038.6702   -51558.161   0.14738738 
   18600    299.14768    49.103217    148609.41   -47467.299     4108.073   -51575.372    0.1405847 
   18700    297.25323   -1.6918639    148599.96   -47488.304    4082.0573   -51570.361   0.15235371 
   18800     293.8315    27.353977    148584.82   -47507.503     4035.068   -51542.571   0.14889363 
   18900    293.72553   -6.8384444    148590.76   -47461.326    4033.6129   -51494.939   0.14852139 
   19000    294.01423   -44.757983    148605.51   -47499.721    4037.5774   -51537.298   0.15174908 
   19100     294.7612    38.530314    148581.06   -47397.049    4047.8352   -51444.884   0.14946835 
   19200    301.02801    11.272525    148605.73   -47430.187    4133.8949   -51564.082   0.15198512 
   19300    295.43421    11.814142     148661.6   -47318.811    4057.0774   -51375.888   0.14882882 
   19400    292.23638   -7.2660059    148652.59   -47382.455    4013.1629   -51395.618    0.1541406 
   19500    298.27475   -25.510214    148607.92   -47383.613    4096.0854   -51479.698   0.15184401 
   19600    298.41599    -14.87255    148610.35   -47368.724     4098.025   -51466.749   0.15335913 
   19700    295.86342   -19.934461    148625.64   -47429.072    4062.9716   -51492.044   0.15370899 
   19800    303.04569   -1.6270066    148630.37   -47380.973    4161.6028   -51542.576   0.14897115 
   19900    292.21088   -10.477458    148629.57   -47468.868    4012.8127   -51481.681   0.14808457 
   20000    293.08853    25.254556    148598.71   -47491.179    4024.8652   -51516.045   0.14464118 
   20100    292.91894   -15.142949    148581.28   -47534.052    4022.5362   -51556.589   0.14814545 
   20200    294.18208   -3.3373702     148573.8   -47513.119    4039.8825   -51553.001   0.14403804 
   20300    293.89466    58.104601     148603.7   -47476.711    4035.9355   -51512.646   0.14918299 
   20400     293.4388   -6.8704497    148608.54    -47541.17    4029.6753   -51570.846   0.14166998 
   20500    288.43294   -39.138577    148581.96   -47581.111    3960.9318   -51542.042   0.15346003 
   20600    286.40309    8.0818014    148545.11   -47595.278    3933.0568   -51528.335   0.14290398 
   20700    290.18129    6.8922413    148549.31   -47543.579    3984.9413    -51528.52   0.15123764 
   20800    299.03457     51.62711    148561.37   -47398.771    4106.5197   -51505.291   0.14680665 
   20900    291.92968   -4.9634103    148576.27   -47509.635    4008.9511   -51518.586   0.15172973 
   21000     288.2873   -13.118658    148604.01   -47522.153    3958.9318   -51481.084   0.14741605 
   21100    295.09085     13.38211    148600.39   -47396.071    4052.3623   -51448.434    0.1483064 
   21200    296.49144    20.138914    148614.21   -47418.586    4071.5959   -51490.182   0.15259265 
   21300    291.01165   -30.910846    148614.59   -47404.566    3996.3442    -51400.91   0.14766472 
   21400    296.73778     32.33431    148589.58   -47448.731    4074.9789    -51523.71   0.15061881 
   21500       297.68    14.828869     148594.6   -47355.007    4087.9179   -51442.925   0.15047564 
   21600    297.67771   -7.1429361    148612.13   -47363.098    4087.8865   -51450.985   0.15820535 
   21700    295.28816    31.110403     148588.5   -47493.305    4055.0717   -51548.376   0.14328869 
   21800    297.26246    12.551092    148568.43   -47526.056    4082.1841    -51608.24   0.14778186 
   21900    290.67751   -11.568954    148570.36   -47503.442    3991.7556   -51495.198   0.15197919 
   22000    291.37995    9.5181104     148577.4   -47536.926    4001.4019   -51538.328   0.14641483 
   22100    291.29833   -15.387051    148552.32   -47571.929    4000.2811    -51572.21   0.14913469 
   22200    290.94509   -2.8689268    148551.31   -47664.458    3995.4302   -51659.888   0.14435527 
   22300    291.31474   -40.285926     148548.9   -47547.008    4000.5064   -51547.515   0.15249192 
   22400    299.75302    40.496912    148593.77   -47497.944    4116.3859    -51614.33   0.14062941 
   22500    304.87349    36.057684    148578.47   -47446.583    4186.7032   -51633.286   0.15061142 
   22600    288.48535   -20.429804    148575.37   -47487.964    3961.6516   -51449.616   0.15087371 
   22700    293.56567   -7.6285055     148565.5   -47549.741    4031.4175   -51581.158   0.14921444 
   22800    294.32357    5.3242868    148586.42   -47473.137    4041.8255   -51514.963   0.14937124 
   22900     293.4847  -0.47980596    148578.88   -47510.484    4030.3055   -51540.789   0.15075356 
   23000    290.30307    7.6524356     148564.8   -47578.494    3986.6136   -51565.107   0.14552551 
   23100     293.3153    4.2270871     148554.8     -47518.3    4027.9793    -51546.28   0.14543574 
   23200    291.91127   -13.032204    148575.02   -47465.878    4008.6983   -51474.577   0.15324736 
   23300    296.15272    7.9420708    148579.74   -47463.179    4066.9444   -51530.123   0.14783103 
   23400    291.02377   -24.513598    148590.93   -47521.887    3996.5107   -51518.398   0.15198705 
   23500    299.77352    30.552975    148602.35   -47401.026    4116.6674   -51517.693   0.14615272 
   23600    291.78247   -10.875394     148600.7   -47419.318    4006.9296   -51426.247   0.15646437 
   23700    297.74968    26.420662    148606.83   -47406.231    4088.8749   -51495.106   0.14581272 
   23800    294.60143    8.6304647    148581.17   -47415.542    4045.6412   -51461.183   0.15420868 
   23900    292.67872   -4.4046168    148569.99    -47508.54    4019.2374   -51527.777   0.15112419 
   24000     288.2666    -26.01041    148572.57   -47453.984    3958.6476   -51412.632   0.15053342 
   24100    296.89556    9.9841552    148598.12   -47386.704    4077.1456    -51463.85   0.15533265 
   24200    292.48343   -5.2192567    148579.68   -47513.162    4016.5556   -51529.717   0.14434338 
   24300    287.06499    2.5408489     148560.3    -47553.78    3942.1463   -51495.926   0.15232428 
   24400    293.89036   -16.338179    148562.85       -47585    4035.8764   -51620.876   0.14555042 
   24500    289.71813    18.474889    148583.81   -47533.123    3978.5809   -51511.703    0.1517015 
   24600    288.49816   -37.457064    148557.56   -47585.492    3961.8275    -51547.32   0.14784911 
   24700    289.32283    25.075932    148539.51   -47582.471    3973.1524   -51555.623   0.14720782 
   24800    289.91006    15.246481     148567.7   -47525.051    3981.2165   -51506.268   0.14885464 
   24900    293.86006   -6.3518545     148569.4   -47587.888    4035.4602   -51623.348   0.14651044 
   25000    289.43597    4.3136275    148552.31   -47565.137    3974.7061   -51539.843   0.14830682 
   25100    289.49946   -2.4192547    148556.22   -47625.912    3975.5779    -51601.49   0.14365852 
   25200    287.44198   -15.399742    148515.85   -47757.783    3947.3233   -51705.107   0.14261145 
   25300    292.37967     47.98251    148565.46   -47593.449    4015.1307   -51608.579    0.1396939 
   25400    282.52835     -42.1483    148554.68   -47636.585    3879.8466   -51516.431   0.15175161 
   25500    293.35588    24.156373    148560.09   -47515.016    4028.5365   -51543.552   0.14435795 
   25600    295.84672    27.412081    148590.33   -47439.468    4062.7423    -51502.21   0.15217905 
   25700    295.56355    6.0489057    148572.56   -47529.236    4058.8537    -51588.09   0.14054203 
   25800    295.50693   0.94764646    148585.78    -47385.07     4058.076   -51443.146   0.15482169 
   25900    295.92075   -2.0440023    148629.15   -47407.135    4063.7589   -51470.893   0.15075607 
   26000    297.10395   -3.6959008    148612.25   -47459.402    4080.0073    -51539.41   0.14690782 
   26100    290.79568   -25.559441    148609.55   -47441.497    3993.3784   -51434.876   0.15203021 
   26200    289.24717   -32.079514    148574.06   -47547.908    3972.1133   -51520.021   0.14638382 
   26300    292.78178    59.062701    148584.62   -47511.801    4020.6526   -51532.454   0.14533207 
   26400    290.01724    34.836961    148546.56   -47563.627    3982.6885   -51546.315   0.14508387 
   26500     296.6613    5.5370204    148570.85   -47476.323    4073.9285   -51550.252   0.14993954 
   26600    294.79748   -4.8059338    148591.82   -47427.643    4048.3335   -51475.976   0.15584753 
   26700    293.69084   -11.785682    148587.57   -47422.906    4033.1365   -51456.042   0.15257491 
   26800    291.23209   -9.0076316    148574.46   -47474.441    3999.3714   -51473.812   0.15194464 
   26900    293.59679    19.318217    148594.91   -47409.026    4031.8448    -51440.87   0.15384528 
   27000    293.86685   -7.2747755    148590.39   -47441.398    4035.5535   -51476.952   0.14858484 
   27100    299.09634    28.231808    148564.25    -47383.13     4107.368   -51490.498   0.15228867 
   27200    297.03286     23.76967    148580.99   -47457.007     4079.031   -51536.038   0.15090854 
   27300    300.51625    10.965092    148603.57    -47288.68    4126.8671   -51415.547   0.15316243 
   27400    294.09206    28.764587    148591.78   -47415.066    4038.6462   -51453.712   0.15479715 
   27500    287.59861   -27.963777    148578.87   -47528.468    3949.4743   -51477.942   0.14926969 
   27600     287.3907   -10.225237    148530.81   -47574.546    3946.6192   -51521.165    0.1548767 
   27700    292.28372   -3.0968986    148555.76   -47472.294     4013.813   -51486.107   0.15363976 
   27800    293.44867    6.0563874    148588.08   -47448.201    4029.8109   -51478.012   0.14902593 
   27900      292.659   -16.166388    148566.94   -47509.349    4018.9666   -51528.316   0.15402222 
   28000    290.44709    20.830722    148548.97   -47584.783    3988.5913   -51573.374   0.14261297 
   28100    290.75182    25.595039    148534.64   -47551.827    3992.7761   -51544.603   0.14882409 
   28200    290.96761   -1.6125045    148577.35   -47522.312    3995.7395   -51518.051   0.14539553 
   28300    290.28181     -28.9149    148559.52   -47545.246    3986.3217   -51531.567    0.1539211 
   28400     295.3045   -9.6109032    148594.34   -47483.529    4055.2962   -51538.825   0.14665213 
   28500    291.13401     20.16179     148567.3   -47509.409    3998.0246   -51507.433   0.15070652 
   28600    297.25478   -10.257123    148544.71   -47514.544    4082.0786   -51596.623   0.14926247 
   28700    287.91108   -10.795686     148563.6   -47514.116    3953.7654   -51467.882   0.15384721 
   28800    287.22981   -31.535397    148547.04   -47559.519    3944.4098   -51503.929   0.15274336 
   28900    289.76801   -8.1910558     148556.4   -47527.046    3979.2659   -51506.312   0.14974554 
   29000    293.95095    -3.577293     148564.2   -47468.829    4036.7084   -51505.538   0.15288116 
   29100     298.6434    32.248713    148562.92   -47465.176    4101.1479   -51566.324   0.14724809 
   29200    294.49248   -7.3239306    148572.63    -47395.56    4044.1451   -51439.705   0.15710462 
   29300    299.44866    33.814199    148584.74   -47404.603    4112.2063   -51516.809   0.14939517 
   29400    295.16783    8.3030874    148559.11   -47417.262    4053.4193   -51470.681   0.15620036 
   29500    294.58638    24.168677    148574.65   -47464.302    4045.4345   -51509.736   0.14145761 
   29600    296.41445    6.8756795    148549.16   -47427.008    4070.5386   -51497.546    0.1596719 
   29700    293.03856    14.754218     148560.7   -47510.522    4024.1789   -51534.701   0.14774401 
   29800    292.28285    17.253734    148531.69   -47600.034     4013.801   -51613.835    0.1477948 
   29900    290.19991   -11.099164    148535.41   -47581.078    3985.1969   -51566.275   0.15225736 
   30000    288.40299   -27.558712    148541.89   -47543.432    3960.5206   -51503.953   0.15120249 
   30100    289.40814    13.143731    148534.08   -47505.844    3974.3239   -51480.168   0.15435981 
   30200    293.18058   -15.190728    148552.73   -47520.925    4026.1292   -51547.054   0.14728781 
   30300    292.26197   -10.837887    148561.03   -47508.524    4013.5144   -51522.039   0.15233926 
   30400    290.99961   -12.272625    148548.18   -47549.984     3996.179   -51546.163    0.1498142 
   30500    289.08022    4.6551154    148510.23   -47647.359    3969.8207    -51617.18   0.14894692 
   30600    298.62161    58.802183    148512.58   -47519.952    4100.8487   -51620.801   0.14440157 
   30700    292.59253    8.8253177    148510.37   -47547.973    4018.0539   -51566.027   0.15586873 
   30800    289.65579    5.6637401    148521.61   -47477.527    3977.7248   -51455.252   0.15295189 
   30900    290.17722   -10.405221    148574.49   -47456.886    3984.8854   -51441.771   0.15200891 
   31000    293.85906    13.326971    148547.01   -47494.994    4035.4466   -51530.441   0.15374004 
   31100    289.02076   -24.763499    148555.71   -47507.538    3969.0042   -51476.542   0.15130923 
   31200    292.69429    1.6418317     148569.4   -47455.059    4019.4513    -51474.51    0.1574911 
   31300    301.04141    65.851362    148583.85   -47388.782    4134.0788    -51522.86   0.15202622 
   31400     289.7143    -23.70941    148553.31   -47506.833    3978.5282   -51485.362   0.15109188 
   31500    294.21806    14.388595    148564.67   -47454.487    4040.3765   -51494.864   0.15066216 
   31600    296.41729   0.88927625    148572.68   -47479.926    4070.5777   -51550.504   0.15300282 
   31700    294.06616    18.789052    148580.16   -47445.315    4038.2905   -51483.606    0.1515175 
   31800    294.10482        14.29    148570.91   -47513.102    4038.8215   -51551.924   0.15082954 
   31900    289.64505    15.979785    148551.66   -47502.303    3977.5773    -51479.88   0.15375048 
   32000    289.96265    1.0429435    148570.38   -47456.934    3981.9387   -51438.872   0.15184914 
   32100    296.53557    15.864119    148557.36   -47496.478     4072.202    -51568.68   0.15331234 
   32200    288.26343    8.7439062    148544.19   -47620.542    3958.6041   -51579.146   0.14267486 
   32300    289.18656    29.701321    148537.39   -47560.298     3971.281   -51531.579   0.15009082 
   32400    288.52302   -7.6981567    148550.61   -47656.413    3962.1689   -51618.582   0.14451109 
   32500    290.29343   -17.246349    148544.16   -47507.788    3986.4813   -51494.269   0.15286656 
   32600    295.26825    23.846976    148576.52   -47465.787    4054.7984   -51520.586   0.14856492 
   32700    292.73255   -4.1097795    148584.29   -47564.782    4019.9766   -51584.758   0.14874489 
   32800    297.45177    38.988017     148608.1   -47430.292    4084.7838   -51515.076   0.14671663 
   32900    292.72957  -0.74246116    148605.97   -47503.006    4019.9357   -51522.942   0.14913533 
   33000    290.40351   -23.371166    148606.43   -47489.575    3987.9929   -51477.568   0.15709549 
   33100    290.16084    -33.72501    148589.18   -47524.109    3984.6604   -51508.769   0.14491541 
   33200    298.19333   -5.4272666    148599.07   -47501.825    4094.9673   -51596.792    0.1483836 
   33300    294.84357    2.7462216    148573.71   -47497.946    4048.9665   -51546.913   0.14536731 
   33400    293.07019   0.45159549    148577.37   -47522.789    4024.6133   -51547.402   0.14837642 
   33500    293.43964   -18.012234    148545.16   -47541.814    4029.6868     -51571.5   0.14973253 
   33600    289.74667     7.236005    148554.89   -47555.251    3978.9728   -51534.224    0.1468204 
   33700    293.57118     7.835997    148562.91   -47451.844    4031.4932   -51483.338   0.15294262 
   33800    299.25157   -4.0928931    148603.27   -47345.636    4109.4996   -51455.135   0.15280307 
   33900    297.46992   -26.848638    148617.76   -47369.359    4085.0331   -51454.392   0.14865962 
   34000    295.30973   -36.108212    148557.55   -47516.228     4055.368   -51571.596   0.15219037 
   34100    292.96096   -7.6047798     148548.9    -47531.57    4023.1134   -51554.683   0.14993026 
   34200    286.68391   -34.839823    148549.12   -47531.812    3936.9131   -51468.725   0.14967372 
   34300    296.94237    40.792573    148555.96   -47563.078    4077.7884   -51640.867   0.14546178 
   34400    298.23759    10.965891    148568.25   -47494.881    4095.5751   -51590.456   0.14536267 
   34500    301.00475    31.814707    148567.63   -47410.628    4133.5753   -51544.203   0.14991054 
   34600     296.4984   -28.128744    148599.19   -47413.034    4071.6916   -51484.726   0.14940585 
   34700    290.96652   -3.3460985    148567.28   -47531.112    3995.7244   -51526.836   0.14753158 
   34800    289.31238   -2.7327033     148542.7   -47518.008    3973.0088   -51491.017   0.14922907 
   34900    293.77746     22.18456    148552.49   -47503.746     4034.326   -51538.072   0.14829078 
   35000    295.95034   -14.077752    148543.35   -47480.239    4064.1653   -51544.404   0.15106793 
   35100     288.1958   -32.191703    148547.68   -47495.643    3957.6754   -51453.318   0.15278395 
   35200    294.74636   -13.356595    148560.47    -47433.93    4047.6314   -51481.562    0.1544841 
   35300    291.81354   -3.3563923    148569.84   -47520.197    4007.3562   -51527.554   0.14565379 
   35400    294.25059   -6.0912415    148545.71   -47521.475    4040.8233   -51562.298   0.14872897 
   35500    294.04682    2.0593441    148518.04   -47503.752     4038.025   -51541.777   0.14887714 
   35600     295.2612   -19.582486    148526.62   -47477.408    4054.7015    -51532.11   0.14615843 
   35700    294.37502   -16.882234    148527.17   -47489.189    4042.5321   -51531.721   0.15247108 
   35800    298.23135   -24.762398    148576.69   -47321.274    4095.4894   -51416.763   0.15294551 
   35900    297.29706    17.155785    148573.61   -47443.297    4082.6592   -51525.956   0.14695961 
   36000    297.10338    25.830865    148564.79   -47494.092    4079.9995   -51574.092   0.14853363 
   36100    295.80605    23.765248    148551.38   -47542.568    4062.1838   -51604.752   0.14460057 
   36200    288.78527   -28.348424    148549.24   -47577.239    3965.7702   -51543.009   0.14916759 
   36300    297.27302    -11.56261    148556.94   -47511.378    4082.3291   -51593.707   0.14902901 
   36400    290.51292   -25.202486    148550.95   -47569.167    3989.4954   -51558.662   0.14714371 
   36500     291.7834    2.0849214    148543.25   -47537.459    4006.9423   -51544.402    0.1496131 
   36600    293.86038   -13.154929    148536.45   -47533.256    4035.4647   -51568.721   0.14631666 
   36700    294.17484    21.824276    148509.47   -47570.389    4039.7831   -51610.172   0.14594361 
   36800    286.51718   -30.730627    148497.99   -47646.252    3934.6235   -51580.876   0.15085863 
   36900    291.30201    10.849861    148511.52    -47564.07    4000.3316   -51564.402   0.14634039 
   37000    292.96551   -13.526181     148532.1   -47552.725    4023.1758   -51575.901   0.14926547 
   37100    288.53507   -9.2843958     148502.5   -47595.481    3962.3343   -51557.815   0.14770353 
   37200    288.90136     4.840144    148492.07   -47595.256    3967.3645    -51562.62   0.14846064 
   37300      289.435   -7.0462593    148489.73   -47593.341    3974.6927   -51568.034    0.1485386 
   37400    289.51547       42.574    148499.56   -47603.418    3975.7978   -51579.216   0.14574234 
   37500    288.21576    22.354801     148521.7   -47577.935    3957.9494   -51535.884   0.14529673 
   37600    291.23366    34.848767    148515.62   -47626.194    3999.3931   -51625.587   0.14371221 
   37700    288.79185    11.226736    148501.87   -47703.733    3965.8606   -51669.594   0.14112061 
   37800    283.46252   -28.682012    148495.79   -47727.889    3892.6751   -51620.564   0.14473125 
   37900    291.24199    20.153977    148514.93   -47629.364    3999.5074   -51628.871   0.14402839 
   38000    290.87942    2.3902304    148545.02   -47564.007    3994.5284   -51558.536   0.14860109 
   38100    293.07748    30.067292    148568.27   -47499.461    4024.7134   -51524.174   0.14544786 
   38200    296.65686    19.229939    148541.28   -47462.704    4073.8676   -51536.572   0.15335193 
   38300    291.75688  -0.30007547    148552.92   -47520.366    4006.5782   -51526.944   0.14668951 
   38400    294.53655    24.225675    148555.17   -47451.266    4044.7502   -51496.016   0.15283802 
   38500    291.84684    2.2546091     148556.6   -47512.876    4007.8135    -51520.69   0.14968579 
   38600    298.47171   -6.5354775    148563.65   -47475.573    4098.7902   -51574.363   0.14379058 
   38700     289.5682    2.7540033    148577.46   -47439.644    3976.5219   -51416.166   0.15854778 
   38800    295.87769    14.339171    148554.46    -47476.13    4063.1676   -51539.297   0.14657205 
   38900    289.44548   -24.283711    148549.06   -47415.775    3974.8367   -51390.612   0.15751987 
   39000    293.22829   -15.824748    148544.78   -47469.769    4026.7845   -51496.553   0.15323521 
   39100     292.8776    7.6675144    148531.28    -47495.47    4021.9685   -51517.439   0.15047448 
   39200     287.3616   -27.112289    148502.54   -47621.631    3946.2196    -51567.85   0.15287041 
   39300    286.29276   -1.5936343    148469.27   -47632.156    3931.5416   -51563.697   0.15266385 
   39400    289.97157   -29.049692    148511.25   -47508.678    3982.0612   -51490.739   0.15503284 
   39500    293.07992   -4.1667526    148526.58   -47495.115     4024.747   -51519.862   0.15477126 
   39600    291.09054   -24.620693    148509.96   -47490.872    3997.4276     -51488.3    0.1514772 
   39700     295.2673    27.792843    148519.03   -47468.763    4054.7854   -51523.548    0.1500521 
   39800    297.66452    9.6610288    148539.86   -47490.419    4087.7054   -51578.125   0.14760331 
   39900    293.53415   -31.158814    148524.32   -47452.276    4030.9847    -51483.26   0.15570994 
   40000    290.17395   -1.3384477    148519.94   -47529.504    3984.8405   -51514.344   0.14836459 
   40100    291.04055   -8.6052293     148492.2   -47534.925    3996.7411   -51531.666   0.15346791 
   40200    293.04126    17.676289    148497.99   -47506.416    4024.2161   -51530.632   0.15228256 
   40300     290.1217    5.1533332    148523.57    -47523.75    3984.1229   -51507.872   0.14855945 
   40400    290.76768    18.949534    148511.51   -47609.582    3992.9939   -51602.576   0.15209058 
   40500    293.16254    1.6527689    148535.42   -47467.774    4025.8816   -51493.655   0.15156573 
   40600    291.90607   -16.016752    148538.98   -47544.661     4008.627   -51553.288   0.14975097 
   40700    291.43239   -10.194036    148495.56   -47541.466     4002.122   -51543.589   0.15352288 
   40800    289.32558   -29.668105    148503.97   -47519.714    3973.1901   -51492.904   0.15228916 
   40900    291.24792    54.059862    148500.24   -47506.229    3999.5888   -51505.818   0.15357368 
   41000    296.25116    5.1806375    148523.74   -47573.849    4068.2963   -51642.145   0.14562696 
   41100    293.52211    47.707967    148514.31   -47542.671    4030.8193    -51573.49   0.14823865 
   41200    299.23193    20.734855    148535.34   -47428.874      4109.23   -51538.104   0.15473771 
   41300     296.1208    7.0224316    148522.87   -47514.003    4066.5062   -51580.509   0.14804703 
   41400    294.84583    45.027007     148510.5   -47457.044    4048.9974   -51506.041   0.15752626 
   41500    286.52467    3.6640429     148520.6   -47472.716    3934.7264   -51407.442   0.15868112 
   41600    290.66353   -56.571923    148534.29   -47484.417    3991.5637   -51475.981   0.15797482 
   41700    293.98965   -25.668542    148503.22   -47595.468    4037.2399   -51632.708   0.14812573 
   41800    292.52233   -2.6159451    148524.87    -47506.14    4017.0897   -51523.229   0.15615676 
   41900    287.61329    3.5178866    148505.12   -47585.924    3949.6759     -51535.6   0.14729116 
   42000    290.25412    45.351909    148513.17   -47554.752    3985.9414   -51540.694   0.14975433 
   42100    284.62947    3.6744281    148494.82   -47625.091    3908.7003   -51533.791   0.15219169 
   42200    286.32135    29.983868    148491.15   -47587.602    3931.9342   -51519.536   0.15276188 
   42300    293.65545    24.592702    148508.71   -47551.439    4032.6505   -51584.089   0.15376923 
   42400    287.55425    15.679459    148505.57   -47580.069    3948.8652   -51528.935   0.15576969 
   42500    297.05069   -3.8713805    148515.11   -47542.846    4079.2759   -51622.122   0.14957396 
   42600     289.7111   -33.394155    148479.18   -47579.208    3978.4843   -51557.693   0.15780574 
   42700    291.08884   -5.9707056    148496.81    -47644.74    3997.4043   -51642.145   0.15030253 
   42800    293.36226    5.1704774    148495.75   -47552.858    4028.6242   -51581.482   0.15202448 
   42900    293.31568    14.867427     148540.7   -47572.734    4027.9846   -51600.719   0.15302748 
   43000    288.79874    23.422179    148522.27   -47593.817    3965.9552   -51559.773    0.1465177 
   43100    293.86463   -22.426771    148535.66   -47519.732     4035.523   -51555.255   0.15839022 
   43200    290.39453   -34.609953    148543.15   -47532.958    3987.8696   -51520.828   0.15157803 
   43300    295.24688    2.0003518    148540.12   -47530.264    4054.5049   -51584.769   0.15227666 
   43400    296.54857    3.1483713    148539.16    -47458.31    4072.3805    -51530.69   0.15391531 
   43500    293.46319   -33.650097    148547.97   -47513.794    4030.0102   -51543.804   0.15119573 
   43600    287.50926   -33.060323    148503.34   -47556.067    3948.2474   -51504.314   0.15890481 
   43700    286.06576  -0.98810943    148486.23   -47596.847    3928.4243   -51525.272   0.15600192 
   43800    286.40783  0.008596936    148507.24   -47636.966    3933.1218   -51570.088   0.15238028 
   43900    292.28664     19.69377    148517.47   -47550.838    4013.8531   -51564.691    0.1518792 
   44000    289.81229    35.362389    148497.85   -47632.511    3979.8739   -51612.385   0.14824224 
   44100    291.12583    33.202943     148494.9   -47586.418    3997.9123    -51584.33   0.15105812 
   44200     294.3693   -12.137277    148515.09   -47556.682    4042.4535   -51599.135   0.14891748 
   44300    292.21563    42.957851    148500.91   -47550.413     4012.878   -51563.291   0.15120422 
   44400    295.27471   -2.6327757    148524.47   -47566.596    4054.8871   -51621.483   0.15020582 
   44500    293.37704   -5.4710569    148536.34   -47573.651    4028.8271   -51602.478   0.15087297 
   44600    291.41216   -10.944783    148523.67   -47573.855    4001.8443   -51575.699   0.15117999 
   44700    288.78693   -4.2493706    148529.81   -47563.324    3965.7931   -51529.117   0.15292856 
   44800    295.01027   -5.7536209    148544.43   -47517.094    4051.2557    -51568.35   0.15509391 
   44900    302.08288    12.948339    148553.27    -47506.84    4148.3809   -51655.221    0.1479354 
   45000    290.00178    14.283705    148536.96   -47548.734    3982.4761    -51531.21   0.15175195 
   45100    293.02807    -50.26152    148569.06    -47435.43    4024.0349   -51459.465   0.16118062 
   45200    295.96313    25.809472     148578.5   -47473.597    4064.3408   -51537.938   0.14917001 
   45300    292.13889   -1.5815364    148552.04     -47496.3    4011.8241   -51508.125   0.15358586 
   45400    295.20786    10.681363    148542.57   -47563.912    4053.9691   -51617.881   0.14993802 
   45500    293.48308   -23.531173    148536.61   -47499.635    4030.2834   -51529.918   0.15151727 
   45600    295.27653   -20.680119     148540.1   -47495.112     4054.912   -51550.024    0.1603498 
   45700    297.27296   -7.8024697    148504.54    -47437.93    4082.3283   -51520.258   0.15250961 
   45800    290.03432   -29.274296    148500.05   -47519.641    3982.9229   -51502.563   0.16036003 
   45900    300.07893    19.402236    148532.62   -47383.819    4120.8614   -51504.681   0.15220357 
   46000    301.47322    17.374464    148518.42   -47446.869    4140.0087   -51586.878    0.1516296 
   46100    293.63569    26.921653     148508.7   -47345.423    4032.3791   -51377.802   0.16309073 
   46200     293.2138   -1.2901956    148526.66   -47406.602    4026.5855   -51433.188   0.15923787 
   46300    295.85814     13.17429    148536.43   -47401.512    4062.8991   -51464.411   0.15440001 
   46400    294.84152   -6.1823427    148526.63   -47445.898    4048.9383   -51494.837   0.15422482 
   46500    290.48055   -32.839413    148507.27   -47406.136    3989.0508   -51395.187   0.15985582 
   46600    294.13188   -11.837358    148505.41   -47467.242    4039.1931   -51506.435   0.15466658 
   46700    300.39326    29.426552    148518.49   -47403.422     4125.178     -51528.6   0.15289947 
   46800    301.39612    16.988944    148544.69   -47412.696    4138.9498   -51551.646   0.15323383 
   46900    295.37488    15.984545    148521.05   -47466.819    4056.2627   -51523.081   0.15463993 
   47000    289.80718   -42.105532    148519.44   -47501.628    3979.8037   -51481.432   0.15298639 
   47100    291.60375    -23.98804    148511.81   -47514.731    4004.4753   -51519.207   0.15605314 
   47200    293.61558    20.513962    148509.45   -47482.044     4032.103   -51514.147   0.15425092 
   47300    286.40187   -1.1649852    148507.18   -47607.138      3933.04   -51540.178   0.15312973 
   47400    290.97587    39.084048    148519.17   -47538.492    3995.8529   -51534.344    0.1467604 
   47500    289.54949    48.486299    148516.82   -47541.759     3976.265   -51518.024    0.1508092 
   47600    290.90127   -20.078983    148510.29   -47542.813    3994.8284   -51537.642   0.15393547 
   47700    292.93495   -27.928466    148517.22   -47462.324    4022.7562    -51485.08   0.15049126 
   47800    288.54529    9.5565765    148532.63   -47524.202    3962.4747   -51486.677   0.15315331 
   47900    288.26947    13.065177    148524.39   -47576.787     3958.687   -51535.474   0.14856563 
   48000    290.57573    18.155323    148534.71   -47537.386     3990.358   -51527.744   0.14960928 
   48100    289.92937    9.5899115    148552.99   -47584.398    3981.4818    -51565.88   0.14898535 
   48200    283.60539    8.9364465    148537.68   -47563.424     3894.637   -51458.061    0.1501507 
   48300    296.40352     20.24513    148549.16   -47521.772    4070.3885   -51592.161   0.14784961 
   48400    290.95471     11.51299    148551.67   -47556.379    3995.5623   -51551.942   0.14550196 
   48500    287.11748   -3.0618774    148530.19   -47641.862    3942.8672   -51584.729   0.14578946 
   48600    291.87269     3.298784    148537.86   -47639.502    4008.1685    -51647.67   0.14538005 
   48700    295.43039    -3.364723    148543.14   -47527.426     4057.025    -51584.45   0.15115069 
   48800    292.64192   -2.5412484     148576.6   -47521.437    4018.7321   -51540.169   0.14460409 
   48900    290.41686    20.961414     148550.5   -47536.665    3988.1763   -51524.842   0.14974011 
   49000    292.11019       18.635    148559.11   -47578.586      4011.43   -51590.016   0.14634072 
   49100    294.57495   -33.467099    148579.26   -47493.496    4045.2776   -51538.774   0.14920955 
   49200    297.67481     8.377228    148571.17   -47526.943    4087.8467    -51614.79   0.14785933 
   49300     285.1519    2.2831003    148561.51   -47596.169    3915.8746   -51512.044   0.14697946 
   49400    292.95247   -4.8312429    148536.21   -47610.467    4022.9968   -51633.464   0.14831011 
   49500     291.9632    3.4269478    148523.14   -47542.571    4009.4115   -51551.983    0.1509083 
   49600    292.37588    27.511891     148533.4   -47540.815    4015.0786   -51555.894   0.15105987 
   49700     291.4929     42.52677    148541.38   -47546.033     4002.953   -51548.986   0.14568861 
   49800    292.28924   -6.6994551    148545.16   -47568.281    4013.8888    -51582.17   0.15058882 
   49900     293.3579     5.748008    148546.29   -47540.868    4028.5644   -51569.433    0.1441946 
   50000    290.73142    15.304899    148527.22   -47546.716    3992.4959   -51539.211   0.15221135 
   50100    291.60717   -15.695022    148554.18    -47399.51    4004.5223   -51404.032    0.1549779 
   50200    292.96233   -21.400932    148568.47   -47484.427    4023.1321   -51507.559   0.15265518 
   50300    295.96685    4.3997704    148569.52   -47498.839    4064.3919   -51563.231   0.14975216 
   50400    294.32361    9.9598472    148568.79   -47517.162    4041.8261   -51558.988    0.1494247 
   50500     295.3097     5.899757    148586.16   -47426.826    4055.3676   -51482.194   0.15138164 
   50600     295.3764   -6.9297677    148593.71   -47352.575    4056.2836   -51408.859    0.1547744 
   50700    287.41392   -21.840286    148563.12   -47597.923    3946.9381   -51544.861   0.15055753 
   50800    291.80388    27.562992    148548.08   -47571.765    4007.2236   -51578.989   0.14338666 
   50900     289.4506   -31.595778    148544.21   -47596.548    3974.9069   -51571.455   0.15249676 
   51000    293.10706    17.552837    148534.57   -47555.558    4025.1197   -51580.678   0.14581652 
   51100    291.58218   -32.774194    148540.64   -47565.385    4004.1791   -51569.564   0.15221669 
   51200    288.07155   -34.654713    148528.71   -47630.021     3955.969    -51585.99    0.1517693 
   51300    290.30666     3.165475    148519.71   -47634.566    3986.6628   -51621.229   0.14628396 
   51400     289.2742   -11.154154     148533.6   -47573.556    3972.4845    -51546.04   0.15057417 
   51500    289.77794   -22.985347    148542.37   -47634.048    3979.4021    -51613.45   0.14744345 
   51600    291.74462   -9.2234267    148544.17   -47543.856    4006.4098   -51550.266   0.15111972 
   51700    294.49591    6.7867115    148566.75   -47446.361    4044.1922   -51490.553   0.15172464 
   51800    295.48355   -10.378315    148576.78   -47495.007     4057.755   -51552.762   0.14978529 
   51900    291.15882   -23.661542    148553.51   -47557.804    3998.3653   -51556.169   0.15265503 
   52000     292.6753   -18.318103    148579.96   -47542.879    4019.1904   -51562.069   0.14920891 
   52100    290.99689   -12.093973    148568.62    -47620.93    3996.1416   -51617.072   0.14615891 
   52200    291.08716   -4.1863581    148550.56   -47678.048    3997.3812   -51675.429   0.14706713 
   52300    289.86571    20.750142    148545.35   -47653.928    3980.6075   -51634.536   0.14530288 
   52400    287.34447  -0.99137656    148532.82   -47734.745    3945.9844   -51680.729   0.14337364 
   52500    287.53294    9.4937414    148543.76   -47577.972    3948.5725   -51526.544   0.15117666 
   52600    290.79618   -37.522251    148558.16   -47544.387    3993.3853   -51537.772   0.15275552 
   52700    298.36212    30.471531    148573.26    -47487.38    4097.2853   -51584.665   0.14892897 
   52800    298.07918    -42.18681    148600.11   -47452.436    4093.3998   -51545.836    0.1524484 
   52900    292.52767   -30.968043    148597.15    -47475.05    4017.1631   -51492.213   0.15054795 
   53000    296.22821    -2.530891    148597.69   -47433.759    4067.9812    -51501.74   0.14955222 
   53100     291.8773   -2.7300392    148552.15   -47566.027    4008.2318   -51574.259   0.14480506 
   53200    292.36925   -4.5820426    148528.16   -47615.483    4014.9876    -51630.47   0.14537507 
   53300     289.7701    11.083684    148538.65   -47575.461    3979.2945   -51554.756   0.14520842 
   53400    292.54009   -14.488542    148559.99   -47514.397    4017.3337    -51531.73   0.14963323 
   53500    290.94721    21.300657    148566.53   -47498.589    3995.4592   -51494.049   0.14466512 
   53600    287.06106   -1.6669273    148537.71   -47568.359    3942.0924   -51510.451   0.15205338 
   53700    289.53411   -14.725154    148545.28   -47549.878    3976.0537   -51525.931   0.14521667 
   53800     288.5863   -10.726645    148522.96   -47573.337    3963.0379   -51536.375   0.14900777 
   53900    291.37905     26.91678     148505.9   -47573.103    4001.3896   -51574.493   0.14738976 
   54000    289.76124    2.7829115    148517.52   -47581.589    3979.1729   -51560.762   0.14661457 
   54100    288.14515   -6.6342741    148529.47   -47555.338    3956.9798   -51512.318    0.1479199 
   54200    291.59572   0.64379924    148545.32   -47503.781     4004.365   -51508.146   0.14658316 
   54300    293.33695   -8.6627983    148543.05   -47429.907    4028.2766   -51458.184   0.15271642 
   54400    296.18631   -5.9987728    148566.35   -47351.024    4067.4057   -51418.429   0.14975018 
   54500    296.32843    20.069635    148566.98   -47423.611    4069.3573   -51492.968   0.14853574 
   54600    296.05143   -1.1782371       148555   -47440.847    4065.5535     -51506.4   0.14596105 
   54700    288.80747  -0.65241045     148553.2   -47503.622    3966.0751   -51469.697    0.1510069 
   54800     298.2784    -11.24852    148558.82   -47432.179    4096.1355   -51528.315   0.14814611 
   54900    295.99473    32.008108    148567.42   -47449.948    4064.7748   -51514.723   0.14502459 
   55000    292.57474   -12.070061    148585.96   -47483.465    4017.8095   -51501.275    0.1487257 
   55100    294.68807   -8.4240246    148566.91   -47496.935     4046.831   -51543.766   0.14595154 
   55200    289.16582   0.53269012    148552.58   -47611.592    3970.9961   -51582.588   0.14336644 
   55300    286.46953    1.3355409    148533.29   -47655.754    3933.9691   -51589.724   0.14385853 
   55400    286.81964   -14.121321    148555.44   -47622.425     3938.777   -51561.202   0.14513224 
   55500    293.69028    26.036474    148540.71   -47577.772    4033.1287   -51610.901   0.14612348 
   55600    292.88502    32.570481    148555.15    -47472.81    4022.0705   -51494.881   0.14628176 
   55700    301.48695   -8.4441031    148576.23   -47440.796    4140.1973   -51580.993    0.1471454 
   55800    292.93476    20.075974    148563.07   -47418.756    4022.7535   -51441.509    0.1496001 
   55900    295.99885    23.196263    148568.13   -47434.149    4064.8314   -51498.981   0.14810822 
   56000    292.20338   -1.1982638    148581.87   -47445.686    4012.7098   -51458.396   0.15137035 
   56100    291.87152   -47.261682     148576.2   -47434.767    4008.1525    -51442.92   0.15393386 
   56200    291.71742    9.4594878    148587.62   -47471.617    4006.0363   -51477.653   0.14707621 
   56300    290.71608      11.9231    148583.92   -47541.787    3992.2853   -51534.072   0.14422435 
   56400    288.82126    40.227612    148555.25   -47590.452    3966.2644   -51556.716   0.14171629 
   56500    284.54586    13.643951    148520.73   -47634.569    3907.5521   -51542.121   0.14921131 
   56600    289.17164    16.345768    148535.88   -47697.706    3971.0761   -51668.782    0.1413476 
   56700    286.99993    26.272456    148527.83   -47675.919    3941.2529   -51617.172    0.1449122 
   56800    290.68633   -5.2904382    148530.33   -47563.046    3991.8768   -51554.922   0.14784485 
   56900    285.01641   -25.432503    148519.85    -47655.46    3914.0141   -51569.474   0.14405853 
   57000    287.96373    9.2525243    148496.28   -47639.088    3954.4884   -51593.576   0.14995875 
   57100    295.90833    47.003443    148525.34   -47562.085    4063.5883   -51625.673   0.14144248 
   57200    298.55986    26.104493    148516.03   -47509.401    4100.0007   -51609.402   0.15137277 
   57300    286.70772   -9.1841324    148525.34   -47644.987    3937.2402   -51582.228   0.14179153 
   57400     292.7697    2.9383693    148533.93   -47522.116    4020.4868   -51542.602   0.14787771 
   57500    291.04281   -2.9935346    148528.36    -47490.46    3996.7722   -51487.232   0.15272245 
   57600    285.49275   -40.794921    148539.75   -47604.053    3920.5554   -51524.608   0.14619758 
   57700    294.39462    26.789195    148549.94    -47516.84    4042.8011   -51559.642   0.14848215 
   57800    295.62228    8.8614077    148545.83   -47464.493    4059.6601   -51524.153   0.14479563 
   57900    298.00301   -1.5748754     148558.3   -47507.127    4092.3537   -51599.481   0.14604454 
   58000    291.90209   -21.019263    148541.35   -47460.581    4008.5723   -51469.153   0.15694786 
   58100    290.48206   -30.183933    148550.76   -47511.373    3989.0716   -51500.445   0.15004591 
   58200    294.84123   -39.717054     148547.8   -47405.227    4048.9343   -51454.161    0.1558174 
   58300    295.23857    10.514677    148561.46   -47474.613    4054.3908   -51529.004   0.14706947 
   58400    296.84209    24.390641    148553.65   -47515.687    4076.4113   -51592.098   0.14434371 
   58500     289.7751   -1.7954625    148544.48   -47521.479    3979.3632   -51500.842   0.15088803 
   58600    295.87562    33.424874    148532.46   -47558.987    4063.1392   -51622.126   0.14191213 
   58700    294.57771    28.653415    148542.05   -47511.561    4045.3155   -51556.876   0.14623165 
   58800    292.50658    4.0623962    148565.72   -47557.922    4016.8734   -51574.795   0.13893966 
   58900    291.27224   -5.2323897    148561.65    -47470.78    3999.9228   -51470.702   0.14749001 
   59000    291.54752   -57.581622    148576.18   -47439.337     4003.703    -51443.04   0.15123846 
   59100    295.53806    20.530022    148586.16   -47399.407    4058.5036    -51457.91   0.14988699 
   59200    294.40899    -17.21813    148568.64   -47525.138    4042.9985   -51568.136   0.14554999 
   59300    296.07104    12.574614    148556.81   -47506.575    4065.8228   -51572.398   0.13837619 
   59400    292.25747    19.955479    148540.97   -47479.597    4013.4526    -51493.05   0.14976633 
   59500    288.32636   -1.2123148     148525.9   -47596.799    3959.4683   -51556.267   0.14468918 
   59600     289.0148   -23.710792    148531.16   -47571.407    3968.9222   -51540.329    0.1479041 
   59700    293.61801    5.4619662    148537.01    -47500.03    4032.1364   -51532.166   0.15063431 
   59800    291.25421   -2.2327487    148511.78   -47615.018    3999.6752   -51614.693   0.13922635 
   59900    290.52955   -12.216487    148510.29   -47608.644    3989.7238   -51598.367   0.14688282 
   60000    293.48275    14.274146    148547.02    -47574.42    4030.2789   -51604.698   0.14318136 
   60100    286.56324   -34.464656    148549.78   -47538.747     3935.256   -51474.003    0.1486549 
   60200    292.68576    16.012069    148566.41   -47506.204    4019.3341   -51525.538   0.14645889 
   60300    291.60142    21.109148    148595.14   -47467.727    4004.4432    -51472.17    0.1413431 
   60400    293.07589    23.214505    148587.71   -47413.266    4024.6916   -51437.957   0.14648052 
   60500    290.30465   -10.849182    148589.67    -47440.94    3986.6354   -51427.576   0.15395557 
   60600    296.29664    5.9428777    148577.29   -47503.208    4068.9208   -51572.129   0.14415517 
   60700    297.48648     5.426968    148588.82   -47330.306    4085.2604   -51415.566   0.15105045 
   60800    299.29058    13.765204    148594.06   -47350.901    4110.0354   -51460.937    0.1464989 
   60900    293.99951   -13.343398     148587.1    -47449.32    4037.3753   -51486.695   0.14824417 
   61000    294.67175   -34.213628    148569.06   -47491.794    4046.6068   -51538.401   0.15126529 
   61100    293.28032    3.1233595    148562.21   -47471.308     4027.499   -51498.807   0.15058537 
   61200    293.94772    1.3887459    148587.04   -47412.992    4036.6641   -51449.657    0.1505802 
   61300    292.75675   -15.325024    148584.24   -47507.327     4020.309   -51527.636   0.14331252 
   61400    293.41176  -0.34862054    148545.34    -47560.97     4029.304   -51590.274   0.14695319 
   61500     290.7467   -10.891005     148549.8   -47497.618    3992.7058   -51490.323   0.14830337 
   61600     292.2715   0.29911704     148542.5   -47541.887    4013.6452   -51555.532   0.14827487 
   61700    287.89815   -15.444366    148543.83   -47605.425    3953.5879   -51559.013    0.1465918 
   61800    292.35407   -11.919404    148532.47   -47593.114    4014.7791   -51607.893   0.14526875 
   61900    290.84428    4.0568932    148565.17   -47487.817    3994.0458   -51481.863   0.15123266 
   62000    290.84277    15.604962    148570.22   -47503.772    3994.0251   -51497.798   0.14457131 
   62100    288.59443   -12.099504    148549.78   -47572.003    3963.1495   -51535.152   0.14982884 
   62200    293.17487     -7.99959    148582.88   -47472.951    4026.0509   -51499.002    0.1468464 
   62300    292.66556   -14.600694    148541.94    -47512.33    4019.0567   -51531.386   0.14724148 
   62400     290.6585    41.836257    148574.38   -47561.609    3991.4946   -51553.103   0.14575773 
   62500    291.72506    6.0249315    148562.93   -47552.106    4006.1412   -51558.248   0.14402698 
   62600    287.72103    13.010482    148563.34   -47579.936    3951.1556   -51531.091   0.14486755 
   62700    283.53674    9.4194706    148543.74   -47610.948    3893.6943   -51504.642   0.14397292 
   62800    289.12267    1.0464715    148523.97   -47577.595    3970.4036   -51547.999   0.14378615 
   62900    290.75579   -7.4893547     148551.6   -47487.572    3992.8306   -51480.403   0.15152115 
   63000    292.82532   -3.7765191    148568.35   -47527.967    4021.2506   -51549.217    0.1440784 
   63100    288.91272   -2.2844214    148530.15   -47595.129    3967.5205   -51562.649   0.14356694 
   63200    294.60277    27.967669    148585.09   -47475.369    4045.6596   -51521.029   0.14347644 
   63300    294.75197    38.088868    148568.06   -47575.471    4047.7085    -51623.18   0.14016805 
   63400    284.62766   -47.527326    148566.71   -47666.119    3908.6756   -51574.795   0.14308074 
   63500    288.19757   -30.518427    148559.35   -47638.296    3957.6996   -51595.995   0.14476807 
   63600    289.07039    25.914064    148549.12   -47685.271    3969.6857   -51654.957   0.14078518 
   63700    287.23789    75.032385    148567.95   -47652.591    3944.5207   -51597.112   0.13863435 
   63800    282.76311   -15.828909     148544.6   -47720.638    3883.0705   -51603.708   0.14473981 
   63900    290.05287    4.0565634    148555.51   -47609.718    3983.1776   -51592.895   0.14451801 
   64000    290.35894    28.105075    148592.32   -47526.287    3987.3808   -51513.668   0.14594175 
   64100    292.09158   -2.9640738    148587.67   -47476.516    4011.1745   -51487.691   0.15314752 
   64200    294.75636    4.4242614    148605.58   -47469.648    4047.7688   -51517.417   0.14204697 
   64300      286.054   -38.865765    148581.61   -47505.555    3928.2629   -51433.818   0.15387503 
   64400    291.24957    11.488221    148571.03   -47561.707    3999.6114   -51561.319   0.14674684 
   64500    291.38793    24.446006    148583.18   -47557.909    4001.5115    -51559.42   0.14316848 
   64600    287.18467    14.558228    148548.89   -47586.975    3943.7899   -51530.765    0.1467155 
   64700    286.11931   -6.9484903    148564.64   -47591.707    3929.1597   -51520.867   0.14149023 
   64800    294.21127    33.237813    148568.28   -47536.076    4040.2833   -51576.359   0.14851988 
   64900     295.5503    2.5254489    148584.56   -47451.134    4058.6716   -51509.806   0.14794979 
   65000    295.14883    39.274142    148615.11   -47439.957    4053.1584   -51493.115   0.14758638 
   65100    294.65871    4.1421523    148614.51   -47514.532    4046.4278    -51560.96   0.14519647 
   65200    293.00368   -22.805755    148637.25   -47535.622       4023.7   -51559.322   0.14242964 
   65300     297.1505    33.755718    148626.14   -47468.849    4080.6466   -51549.496   0.14321525 
   65400    294.99494    6.4978677    148610.51   -47509.175    4051.0451    -51560.22   0.14578757 
   65500    296.34293   -9.8754384     148637.4   -47441.438    4069.5566   -51510.994    0.1490675 
   65600    295.38678    12.341368    148611.85   -47461.972    4056.4261   -51518.398   0.14600664 
   65700    298.71647    17.220461    148589.31   -47415.177    4102.1513   -51517.329   0.14821047 
   65800    293.18686   0.35504328     148591.5   -47480.388    4026.2156   -51506.604   0.14648728 
   65900    295.12133     12.80667    148592.83   -47496.101    4052.7808   -51548.881   0.14665529 
   66000    290.83405   -3.8450557    148580.07   -47502.506    3993.9053   -51496.411   0.15066042 
   66100    289.77403   -19.175211    148578.37   -47473.731    3979.3485   -51453.079   0.14850472 
   66200    288.38468   -23.037421    148570.43   -47610.329    3960.2691   -51570.598   0.14652809 
   66300     294.2441    23.623829    148563.25   -47533.649    4040.7342   -51574.383    0.1501175 
   66400    293.45875    13.696192     148567.8   -47539.843    4029.9493   -51569.793   0.14622894 
   66500    290.94661   -25.211786    148564.64    -47576.18    3995.4511   -51571.631   0.15075982 
   66600    287.10181   -25.697699    148576.06   -47582.473     3942.652   -51525.125   0.14339884 
   66700    293.72099    -3.259399    148568.33   -47566.522    4033.5504   -51600.073    0.1398565 
   66800    288.36621   -5.8777156    148546.66   -47588.435    3960.0154   -51548.451   0.14595559 
   66900    293.43367    18.550937    148530.72   -47600.099    4029.6048   -51629.704   0.14062525 
   67000    288.74329    2.8636619    148515.46   -47705.937    3965.1937   -51671.131   0.14415822 
   67100    289.18267    -8.839903    148541.29   -47537.972    3971.2276     -51509.2    0.1508067 
   67200    291.56746    -21.26496    148551.69   -47646.877     4003.977   -51650.854   0.14252006 
   67300    292.31697    -16.47407    148567.75    -47561.64    4014.2696    -51575.91    0.1458873 
   67400    295.41531    22.964622    148570.33     -47542.1    4056.8179   -51598.918   0.14264399 
   67500    296.91625   -5.8068553    148576.56   -47531.068    4077.4297   -51608.497   0.14786267 
   67600    297.31181    29.350783    148622.41   -47390.352    4082.8618   -51473.214   0.14465997 
   67700    294.77852    -36.89215    148601.96   -47463.235     4048.073   -51511.308   0.14905278 
   67800     290.9361   -1.5558384    148607.06    -47506.86    3995.3068   -51502.166   0.14538882 
   67900    290.22408  0.028537493    148564.84   -47536.027    3985.5289   -51521.556   0.14930454 
   68000    294.52255    21.433837    148559.11   -47572.666     4044.558   -51617.224   0.14521766 
   68100    294.22606   0.70115372    148565.75   -47578.837    4040.4864   -51619.323   0.14562761 
   68200    293.88611   -10.538089    148571.41   -47546.479     4035.818   -51582.297   0.14720655 
   68300    298.07013    28.851941    148581.97   -47488.691    4093.2754   -51581.967   0.14187656 
   68400    297.12237   -1.4189221    148573.89   -47452.278    4080.2603   -51532.538   0.14749084 
   68500    293.95141   -18.511017    148583.86   -47451.154    4036.7148   -51487.869   0.15412601 
   68600    292.46837   -14.585553    148572.95   -47546.755    4016.3487   -51563.104   0.14335249 
   68700    293.54344    8.1852182    148570.59   -47515.891    4031.1123   -51547.003   0.14809246 
   68800    291.74876   -2.1679236    148576.69   -47511.609    4006.4666   -51518.076   0.14903659 
   68900    288.83031   -12.593354    148589.57   -47518.145    3966.3888   -51484.534   0.14963088 
   69000    290.46017   -12.289984     148580.2   -47511.382     3988.771   -51500.153   0.15126265 
   69100    291.85194   -19.236514    148558.85   -47578.855    4007.8836   -51586.738   0.14544548 
   69200    289.62217    23.304666    148562.25   -47586.615    3977.2631   -51563.878   0.14683687 
   69300    289.72872   -25.079181    148553.28   -47623.991    3978.7263   -51602.717   0.14549428 
   69400    290.79349   -10.081888    148510.52   -47671.063    3993.3484   -51664.411   0.14400329 
   69500    294.20712    4.5724708    148524.86   -47533.132    4040.2263   -51573.358    0.1492023 
   69600     290.8231   -4.4521246    148579.77   -47427.346     3993.755   -51421.101   0.14985746 
   69700    292.86148   -5.6511103    148543.31   -47519.646    4021.7472   -51541.393   0.14807751 
   69800     293.3874   -11.755066    148551.18   -47525.917    4028.9694   -51554.886   0.14603143 
   69900     290.2516   -27.218197    148494.35   -47610.554    3985.9068    -51596.46    0.1485367 
   70000    286.64148    2.0305807    148529.85    -47541.42    3936.3304   -51477.751   0.14985746 
   70100    281.68109   -49.853443    148493.86    -47661.69    3868.2115   -51529.901   0.15054174 
   70200    295.78761    12.801259    148533.52   -47499.466    4061.9305   -51561.397   0.15393918 
   70300    296.35767   -5.2818387    148546.76   -47508.736     4069.759   -51578.495    0.1455045 
   70400    293.84518    8.0532759    148571.27    -47396.47    4035.2559   -51431.726   0.15412632 
   70500    295.62917    13.646452    148582.77    -47475.09    4059.7548   -51534.844   0.14780435 
   70600    295.13909   -10.353383    148563.95   -47539.754    4053.0247   -51592.778   0.14545991 
   70700     292.9173    5.5545808    148547.05   -47505.345    4022.5138   -51527.858   0.15134635 
   70800    288.88395    -17.43821    148544.65   -47541.112    3967.1254   -51508.237   0.14698902 
   70900    295.16141    18.058891       148511   -47526.682    4053.3312   -51580.013   0.14872743 
   71000    290.35153   -11.012504    148521.53   -47550.312    3987.2791   -51537.591    0.1504067 
   71100    293.70872    7.1126798    148495.96   -47536.202     4033.382   -51569.584    0.1484964 
   71200    288.92228   -7.1621995    148502.08   -47572.699    3967.6518   -51540.351   0.15086334 
   71300     291.5599    23.333414    148477.33   -47625.378    4003.8731   -51629.251   0.14619593 
   71400    293.20129    0.9498672    148486.87   -47563.495    4026.4136   -51589.909   0.15147576 
   71500    290.38449   -12.065116    148493.76   -47514.249    3987.7317   -51501.981   0.15085638 
   71600    286.94505     9.251106    148527.69   -47535.918    3940.4993   -51476.418   0.15082755 
   71700    291.87523    11.950081    148513.58   -47527.076    4008.2034    -51535.28   0.15264773 
   71800    284.17473   -18.502089    148473.62    -47695.12    3902.4556   -51597.575   0.14492491 
   71900    286.69257    9.6827263    148455.45   -47630.808    3937.0321    -51567.84   0.15112258 
   72000    289.83245    39.423623    148480.46   -47601.233    3980.1508   -51581.384    0.1441867 
   72100    294.92955    12.406298    148525.47   -47467.864    4050.1471   -51518.011    0.1523754 
   72200    295.47823    3.2615709    148555.78   -47361.984    4057.6819   -51419.666   0.15459609 
   72300    299.22431     12.27548    148585.71   -47335.805    4109.1254   -51444.931   0.15076175 
   72400    292.12265    17.394081    148577.72    -47458.42    4011.6011   -51470.021   0.15200062 
   72500    295.32155    40.129023    148562.14   -47458.451    4055.5303   -51513.981   0.14538405 
   72600    296.14095    23.369359    148566.16   -47401.321    4066.7829   -51468.104   0.14998624 
   72700    293.09839   -15.207894    148539.42   -47564.908    4025.0005   -51589.908   0.15022607 
   72800    294.06331   -36.957319    148532.23   -47487.695    4038.2515   -51525.947   0.14991715 
   72900    294.30843   -30.021436    148548.18   -47499.511    4041.6176   -51541.128   0.15222434 
   73000    291.08368   -18.335859    148520.91   -47505.593    3997.3334   -51502.926   0.14856043 
   73100    294.35568   -17.990954    148530.21   -47459.395    4042.2664   -51501.661   0.14987586 
   73200    289.26467   -41.616811    148552.67   -47441.868    3972.3537   -51414.222    0.1534987 
   73300    292.22634   0.53906799    148571.53   -47423.778     4013.025   -51436.803   0.15013491 
   73400    296.31298  -0.22024535    148560.74   -47406.126    4069.1452   -51475.271   0.15450231 
   73500    298.45526    8.4588943    148575.99   -47412.344    4098.5643   -51510.908   0.14927158 
   73600    294.06343   -1.1694728    148582.51   -47461.077     4038.253    -51499.33   0.15104204 
   73700    289.34245    10.210264    148553.79   -47513.915    3973.4218   -51487.337    0.1455019 
   73800    289.48486    9.2297963    148553.41   -47610.577    3975.3774   -51585.955   0.14545541 
   73900    289.42268   -30.470334    148549.01   -47590.422    3974.5235   -51564.945   0.14850021 
   74000    295.48887    11.313851    148531.99   -47509.687    4057.8281   -51567.515   0.14587003 
   74100    301.92313    35.757718    148586.35   -47341.503    4146.1871   -51487.691   0.15029802 
   74200    294.04277    15.997112    148581.62    -47510.69    4037.9694   -51548.659   0.14799856 
   74300    295.10541    33.722088    148560.97     -47509.3    4052.5621   -51561.863   0.14642361 
   74400    292.17527    22.341571    148567.27   -47542.005    4012.3238   -51554.329   0.14645106 
   74500    291.19948    -9.590495    148554.77   -47556.694    3998.9237   -51555.617   0.14523847 
   74600    290.86844   -47.530155    148541.47   -47561.621    3994.3775   -51555.998    0.1522896 
   74700    292.53577   -9.7773479    148564.91   -47478.696    4017.2744   -51495.971   0.14638728 
   74800    289.50567    29.413904    148525.96   -47534.402    3975.6632   -51510.065   0.14975007 
   74900    292.50505    18.347645    148524.85   -47534.839    4016.8525   -51551.691   0.15267839 
   75000    298.24234    45.135972    148523.52   -47516.542    4095.6404   -51612.182   0.14111371 
   75100    289.67341   -1.4647317    148527.03   -47442.127    3977.9667   -51420.094   0.15807789 
   75200    290.18643   -34.897105    148537.84   -47491.716    3985.0119   -51476.728    0.1495662 
   75300    289.84563   -20.516406    148533.05   -47544.421    3980.3317   -51524.752   0.15341108 
   75400    291.06012    9.0191501    148547.28    -47555.85    3997.0099    -51552.86    0.1464074 
   75500    288.13312    18.060679     148548.6   -47551.405    3956.8145   -51508.219   0.14463935 
   75600    294.99257    17.490608    148559.57   -47473.397    4051.0126    -51524.41   0.15320215 
   75700    296.80251   -2.6807555    148568.85   -47421.349    4075.8678   -51497.217   0.14904449 
   75800    294.51514   -32.011939    148558.19   -47448.562    4044.4563   -51493.018   0.15641196 
   75900    292.13308   -2.5870019    148562.43   -47469.474    4011.7444   -51481.218    0.1514725 
   76000    293.79168   -6.1582215    148565.33   -47480.014    4034.5212   -51514.535   0.15261053 
   76100     291.5543   -8.5296202     148555.5   -47574.287    4003.7962   -51578.083    0.1482125 
   76200    286.60548   -17.348088    148542.15   -47618.429    3935.8361   -51554.265   0.14479263 
   76300    289.51577   -31.479888    148552.92   -47557.439    3975.8019   -51533.241   0.15292819 
   76400    294.24947    42.513183    148564.63   -47558.279     4040.808   -51599.087   0.14183498 
   76500    295.87342    27.740216    148560.77   -47547.519    4063.1089   -51610.628   0.14437363 
[...]
   81900      286.657    4.9698821    148543.76   -47584.893    3936.5437   -51521.437   0.14463047 
   82000    296.55415    30.596495    148563.12   -47490.222    4072.4572   -51562.679   0.15108368 
   82100    295.58266    9.2185365       148599   -47444.851    4059.1161   -51503.967   0.14085954 
   82200    295.09633   -11.393274    148582.46   -47458.076    4052.4375   -51510.514   0.15189827 
   82300    294.74689    24.028609    148574.08   -47533.982    4047.6388   -51581.621   0.14421402 
   82400    294.19152   -27.224192    148590.83   -47408.716     4040.012   -51448.728   0.15179478 
   82500    294.76292    11.423746     148624.8   -47306.464    4047.8589   -51354.323   0.15333038 
   82600    296.91441   -29.842669    148624.98   -47415.348    4077.4044   -51492.753   0.14620183 
   82700    294.12658    3.5189349    148582.67   -47495.226    4039.1203   -51534.347   0.14910806 
   82800    293.35619   -21.492933    148579.02   -47506.127    4028.5409   -51534.667   0.14397469 
   82900    294.13414    66.833844    148580.47   -47459.327    4039.2241   -51498.551   0.14661022 
   83000    298.04832    19.612828    148615.18   -47395.348    4092.9759   -51488.324    0.1471947 
   83100    296.89778   0.17764438    148622.21   -47444.388     4077.176   -51521.564   0.14775288 
   83200    294.66618    1.6205418    148606.66   -47470.335    4046.5304   -51516.866   0.14903327 
   83300    295.67459   -11.032981    148602.93   -47459.672    4060.3784    -51520.05   0.14688929 
   83400    290.61028   -15.164037    148595.22   -47538.291    3990.8323   -51529.124   0.14991175 
   83500    286.13035   -5.3656642    148547.17   -47643.656    3929.3114   -51572.967   0.14398446 
   83600    290.17222  -0.17371538    148581.96   -47589.023    3984.8167    -51573.84   0.14278218 
   83700    290.79553   -16.106312    148589.95   -47618.557    3993.3764   -51611.933   0.14569466 
   83800    293.22776   -4.1613265    148575.96   -47582.432    4026.7772    -51609.21    0.1441415 
   83900    290.33467   -42.201644    148563.95   -47578.392    3987.0475    -51565.44   0.14937121 
   84000    289.79629   -11.365903    148562.63   -47602.915    3979.6541   -51582.569   0.14576891 
   84100    284.91653    6.2549281    148563.75    -47524.03    3912.6425   -51436.673   0.15246701 
   84200    295.16428    48.378001    148581.23   -47474.987    4053.3706   -51528.358   0.15228946 
   84300    291.50995     14.24142    148596.78   -47528.947    4003.1871   -51532.134   0.14126463 
   84400    290.49845    16.871903    148592.77   -47531.646    3989.2966   -51520.942   0.14904608 
   84500    286.74961   -20.903044    148582.04   -47583.734    3937.8153   -51521.549   0.14576928 
   84600    296.86177   -2.2991612    148592.65   -47500.425    4076.6816   -51577.107    0.1435933 
   84700     294.8822   -7.5822928    148592.68    -47508.73    4049.4969   -51558.227   0.15281479 
   84800    293.04556    20.397594    148564.85   -47498.971    4024.2751   -51523.246   0.14461624 
   84900    295.03327     26.48821    148598.48   -47423.936    4051.5714   -51475.507   0.15433417 
   85000    294.05279    12.660208    148593.88   -47496.325     4038.107   -51534.432   0.14223628 
   85100    293.95359    6.7320606    148580.91   -47517.427    4036.7446   -51554.172   0.14696787 
   85200    288.16286    1.6481473    148581.32   -47561.964     3957.223   -51519.187   0.14657612 
   85300    293.27735    23.380202    148584.89   -47566.937    4027.4582   -51594.395   0.14354645 
   85400    292.94158   -28.228739    148573.43   -47600.289    4022.8472   -51623.136   0.14995195 
   85500    285.88761   -13.235496    148577.51   -47546.485    3925.9779   -51472.463    0.1493634 
   85600    285.35619   -15.295513    148565.89   -47576.104    3918.6801   -51494.785   0.15647407 
   85700    293.21586    16.734431    148582.71   -47519.731    4026.6138   -51546.345   0.14446317 
   85800    291.01874    23.238824    148582.08   -47504.502    3996.4416   -51500.944   0.14982137 
   85900    296.16463    16.331429     148595.2   -47476.255    4067.1081   -51543.363   0.14897277 
   86000    289.50846    7.4229796    148561.96   -47523.678    3975.7015   -51499.379   0.14878784 
   86100    291.25779   -5.9159818    148572.31   -47500.212    3999.7243   -51499.937   0.15464121 
   86200    291.00845   -14.712302    148572.56   -47464.931    3996.3002   -51461.231   0.15613635 
   86300    292.15593    11.859867    148596.39   -47515.166    4012.0581   -51527.224   0.14696592 
   86400    286.86886   -30.364492    148556.03   -47573.236     3939.453   -51512.689   0.15363124 
   86500    286.38644    8.6095968    148539.88   -47600.295    3932.8281   -51533.123   0.14506299 
   86600    292.21254     26.73435    148596.28   -47444.626    4012.8355   -51457.461   0.15590842 
   86700    297.25048    58.644436    148603.84   -47440.695    4082.0195   -51522.714   0.14861264 
   86800    293.66221    8.3665051    148591.43    -47569.96    4032.7433   -51602.703   0.14632716 
   86900    285.21636   -18.398265    148574.56   -47556.969    3916.7599   -51473.728   0.15665457 
   87000    284.70899    5.5325341    148572.13   -47523.974    3909.7924   -51433.767   0.14441571 
   87100    293.52608    31.297081    148575.19   -47499.384    4030.8739   -51530.258   0.15368504 
   87200    297.35196    73.459073    148583.05   -47431.959    4083.4131   -51515.372   0.14522711 
   87300    295.16246    18.288424    148608.34   -47443.537    4053.3456   -51496.883   0.15529721 
   87400    291.75357    4.7493977    148568.45   -47497.723    4006.5327   -51504.256   0.15174279 
   87500    293.44435   -16.138225    148586.58   -47472.231    4029.7516   -51501.983   0.15134896 
   87600    297.18643    3.7254351    148581.96   -47497.075      4081.14   -51578.215   0.15140181 
   87700    290.39734   -4.8809414     148585.8   -47463.067    3987.9082   -51450.976   0.14756032 
   87800    286.11959   -40.069667    148570.61   -47551.554    3929.1635   -51480.718   0.15518359 
   87900    290.73495    16.129515    148571.45   -47575.284    3992.5444   -51567.828   0.14287318 
   88000    292.94822   -10.691483    148559.44   -47538.701    4022.9384   -51561.639   0.14742944 
   88100    293.28233    33.867569    148566.82   -47507.438    4027.5265   -51534.964   0.14933438 
   88200    288.39034    17.603311    148573.02   -47613.478    3960.3469   -51573.825   0.14112444 
   88300    290.22634    41.751767    148555.61    -47549.94    3985.5599     -51535.5   0.14831222 
   88400     296.8315   -10.592328    148609.87   -47482.321    4076.2658   -51558.587   0.14456838 
   88500    291.50054   -19.765629    148600.25   -47558.841    4003.0579   -51561.898   0.14678477 
   88600    283.79328   -61.768938    148599.42   -47549.021    3897.2173   -51446.238   0.15394535 
   88700    294.41047   -9.4860436    148582.73   -47517.856    4043.0189   -51560.875     0.146974 
   88800    290.66756    10.334206    148592.29   -47583.601     3991.619    -51575.22   0.14692013 
   88900     295.0055    46.816385    148586.41    -47522.84    4051.1902    -51574.03   0.14315104 
   89000    294.17817   -5.0084136    148590.42   -47487.434    4039.8288   -51527.262   0.14568714 
   89100    289.43329   -22.850273    148577.27   -47539.438    3974.6693   -51514.107   0.15264909 
   89200    290.12225    7.8919941    148587.89   -47486.107    3984.1305   -51470.238   0.14749148 
   89300    290.58021    3.8277663    148569.42   -47615.436    3990.4195   -51605.855   0.14849167 
   89400    293.73354    23.194081    148581.79   -47512.964    4033.7228   -51546.687   0.14391024 
   89500    292.36118   -9.6499198    148594.51   -47610.374    4014.8768   -51625.251   0.14624632 
   89600    291.86471     44.82847    148564.61   -47638.523     4008.059   -51646.582   0.14325495 
   89700    289.17257    2.7381057    148564.85   -47544.222    3971.0888   -51515.311   0.14418627 
   89800    293.05783    32.873117    148594.47   -47483.269    4024.4436   -51507.713   0.15375805 
   89900    291.63023   -23.093262    148593.61   -47470.059    4004.8389   -51474.898   0.14505122 
   90000    291.39688   -29.069355    148578.36   -47491.893    4001.6345   -51493.528   0.15668658 
   90100     296.2989   -5.4322048    148600.52   -47474.808    4068.9519    -51543.76   0.14492707 
   90200    287.44913   -11.801538    148589.13   -47548.823    3947.4216   -51496.245    0.1484524 
   90300    296.37196    29.403717    148567.14   -47520.802    4069.9551   -51590.757   0.14766192 
   90400    293.76569    25.276666     148599.1   -47508.074    4034.1643   -51542.238   0.13978556 
   90500    290.63614    37.740801    148573.41   -47514.079    3991.1876   -51505.267   0.15103764 
   90600    291.74865   -33.005834    148585.15   -47547.104    4006.4651   -51553.569   0.14801591 
   90700    288.14237   -4.1869057     148556.8   -47571.673    3956.9416   -51528.615   0.14698914 
   90800    292.72435    -9.825232    148568.86   -47595.093     4019.864   -51614.957   0.14921938 
   90900    293.44371    15.465296    148589.12   -47570.277    4029.7427    -51600.02   0.14193808 
   91000     283.9144   -38.840936    148567.83   -47588.978    3898.8806   -51487.859   0.15379433 
   91100    287.29477   -19.287399    148542.44    -47689.92    3945.3018   -51635.221   0.14283152 
   91200    290.64982    13.374151    148558.13   -47631.165    3991.3753    -51622.54   0.14294387 
   91300    290.70226    22.821148    148578.76   -47567.153    3992.0956   -51559.248   0.15073701 
   91400    293.65667    7.4610049     148582.4   -47539.778    4032.6672   -51572.445   0.14138485 
   91500    298.98625   -10.111742    148609.47   -47379.492    4105.8561   -51485.348   0.15445139 
   91600    294.90965    6.8629807    148620.74    -47447.49    4049.8739   -51497.363   0.14463517 
   91700    293.70257    4.3874801    148594.07   -47520.389    4033.2976   -51553.686   0.15073125 
   91800    292.99248     49.99807    148613.08   -47493.346    4023.5461   -51516.892    0.1448946 
   91900    293.92723    45.575285    148613.69    -47482.75    4036.3826   -51519.132   0.14800209 
   92000     291.0998    9.8069081    148634.22   -47535.269    3997.5548   -51532.824   0.14914043 
   92100    292.71639   -63.070772    148606.72    -47518.34    4019.7548   -51538.095   0.14496692 
   92200    293.51032   -14.357016    148589.04   -47550.607    4030.6575   -51581.264   0.14949454 
   92300    297.56025    42.277509    148611.83    -47418.97    4086.2734   -51505.243   0.14671277 
   92400    293.88959    4.9214247    148612.94   -47473.618    4035.8658   -51509.484   0.14823428 
   92500     294.4123   -13.226448    148622.43   -47459.271     4043.044   -51502.315    0.1525147 
   92600    297.98192    49.098214    148628.24   -47369.567    4092.0641   -51461.631   0.14490283 
   92700    288.06016    21.384102    148607.61   -47492.971    3955.8127   -51448.784   0.15244356 
   92800    292.95016   -43.259446    148584.22   -47507.009     4022.965   -51529.974   0.14762813 
   92900     290.1004    5.6531368    148568.01   -47545.468    3983.8304   -51529.299   0.14938502 
   93000    290.09433   -5.3947561    148567.31   -47554.008    3983.7471   -51537.755     0.151607 
   93100    294.09338   -6.2574357    148574.84   -47468.489    4038.6643   -51507.153   0.14538699 
   93200    287.58883   -1.8112253    148564.43   -47530.107      3949.34   -51479.447   0.15572442 
   93300    288.60851     49.59322    148556.18   -47576.216    3963.3429   -51539.558    0.1475089 
   93400    284.70113   -32.950901    148538.98    -47633.49    3909.6845   -51543.175   0.15409419 
   93500    288.27114   -16.674387    148545.59   -47638.294      3958.71   -51597.004   0.14853423 
   93600    289.65034    34.566646    148556.78   -47585.635    3977.6499   -51563.284   0.14648454 
   93700    291.25448     22.16558    148584.35   -47569.202    3999.6789   -51568.881   0.14612895 
   93800    292.45786     11.53416    148562.94   -47563.275    4016.2045   -51579.479   0.14413209 
   93900    288.25676   -15.103996    148545.04   -47645.904    3958.5124   -51604.416   0.14955148 
   94000    291.65183    26.436583     148554.8   -47610.191    4005.1356   -51615.327   0.14413899 
   94100    298.80422    29.730435    148591.94   -47492.088    4103.3564   -51595.444   0.14506816 
   94200    297.22001   -6.3921179    148603.45   -47482.811    4081.6011   -51564.412   0.15135908 
   94300    299.01243    3.5880437    148619.32    -47497.37    4106.2157   -51603.586   0.14397062 
   94400     291.8898    -1.043562    148614.41   -47490.944    4008.4035   -51499.347    0.1553179 
   94500    296.22979     6.343116    148627.41   -47490.673    4068.0029   -51558.675   0.14323156 
   94600    296.97461    14.743356    148637.56   -47502.896    4078.2311   -51581.127   0.14614137 
   94700    292.69321    24.155654    148619.32   -47542.247    4019.4364   -51561.684   0.14880845 
   94800    288.33276    10.888728    148607.16   -47582.032    3959.5561   -51541.588   0.14072103 
   94900    288.56718   -33.771642    148579.65   -47605.084    3962.7753    -51567.86   0.15293277 
   95000    294.01978    20.435192    148593.33   -47569.648    4037.6537   -51607.302   0.14254929 
   95100    289.94069    18.301744    148578.52    -47523.02    3981.6372   -51504.657   0.15047432 
   95200    291.69795   -21.358524    148580.95   -47555.944    4005.7689   -51561.713   0.14824979 
   95300    296.90487     22.51831    148602.46   -47507.711    4077.2735   -51584.985   0.14142981 
   95400     295.0499   -22.647209    148594.84   -47477.744    4051.7999   -51529.544    0.1544875 
   95500    290.66899   -3.0395708     148600.5   -47495.356    3991.6386   -51486.995   0.15029133 
   95600    294.10177    30.314673    148592.45   -47480.721    4038.7795   -51519.501      0.14781 
   95700    289.09497    -26.67138    148616.06   -47524.351    3970.0233   -51494.374   0.15415019 
   95800    290.70389    14.679062    148605.36   -47460.065    3992.1179   -51452.182   0.14772879 
   95900    296.30037    10.124599    148609.18   -47487.034     4068.972   -51556.006   0.15062403 
   96000    295.05343   -23.449824    148621.91   -47449.988    4051.8483   -51501.836   0.15137516 
   96100    296.56821   -17.337901    148623.33   -47398.568    4072.6503   -51471.218    0.1542847 
   96200    297.06682    15.719231    148614.31   -47423.886    4079.4974   -51503.383   0.15161442 
   96300    301.02155    14.850284    148595.46   -47437.578    4133.8061   -51571.384   0.14655522 
   96400    289.93475   -15.823488    148577.48   -47492.467    3981.5556   -51474.023   0.15753596 
   96500    294.41454      5.44525    148579.36    -47482.64    4043.0747   -51525.715   0.14591861 
   96600    290.30628   -8.1235112     148603.4   -47544.306    3986.6576   -51530.963   0.15109476 
   96700    293.89188    45.838661    148620.71   -47513.794    4035.8973   -51549.692   0.14334372 
   96800    295.36166   -4.2229143    148614.56   -47534.181    4056.0811   -51590.262   0.14232712 
   96900    295.71362     21.34693    148600.59   -47542.645    4060.9145   -51603.559   0.14883778 
   97000    290.82413    21.062403    148577.08    -47607.68    3993.7692   -51601.449   0.14304019 
   97100    289.02738    4.8873917    148563.56   -47579.172    3969.0951   -51548.267   0.15231203 
   97200    290.36162   -8.2715664     148577.3   -47517.507    3987.4177   -51504.925   0.14866346 
   97300    295.56791   -3.8703069    148610.01   -47408.946    4058.9134    -51467.86    0.1497873 
   97400    287.43634   -15.529436    148574.91   -47502.621     3947.246   -51449.867   0.15643352 
   97500     295.7332   -9.9092151    148592.51   -47477.733    4061.1833   -51538.916   0.14708324 
   97600    293.34415   -9.6094282    148593.65   -47412.013    4028.3755   -51440.388   0.15518194 
   97700    292.71662   -18.357976    148625.09   -47373.816    4019.7578   -51393.574   0.15654619 
   97800    291.22288   -3.6410081    148619.59   -47484.469     3999.245   -51483.714   0.14697793 
   97900    294.92966   0.43654906    148627.18   -47444.579    4050.1486   -51494.728    0.1530964 
   98000    290.85643   -18.035164    148596.31   -47536.756    3994.2127   -51530.968   0.15058997 
   98100    295.06579   -5.4509548    148581.35   -47516.575     4052.018   -51568.593   0.15131346 
   98200     294.2678   0.61714462    148608.11   -47513.873    4041.0596   -51554.933   0.14839499 
   98300    295.88932   -37.423018    148625.51   -47448.595    4063.3272   -51511.923   0.15018585 
   98400     292.3369   -13.166001     148610.2   -47491.504    4014.5434   -51506.047   0.15366661 
   98500    295.23475    9.1350328    148599.86   -47465.853    4054.3383   -51520.192   0.14624925 
   98600    299.56568   -13.982875    148588.15   -47474.873    4113.8132   -51588.686   0.15266547 
   98700    295.42166     36.55688    148612.06    -47442.06    4056.9051   -51498.965   0.14595268 
   98800    297.85146    5.4410497     148619.3    -47455.29    4090.2725   -51545.562   0.15158814 
   98900     295.1478   -28.774349    148596.53   -47519.077    4053.1443   -51572.221   0.14929239 
   99000    291.39282    21.204344     148590.6   -47509.354    4001.5787   -51510.933   0.14676379 
   99100    291.97975   -29.656753    148564.95   -47573.637    4009.6387   -51583.275    0.1511728 
   99200    290.17688   -14.665069    148570.74   -47576.419    3984.8807     -51561.3   0.14524015 
   99300    290.44463    10.597692     148567.8   -47497.169    3988.5576   -51485.727   0.15658185 
   99400    296.65604    29.170003    148591.04   -47542.056    4073.8563   -51615.913   0.14450567 
   99500    298.79861    32.853005    148596.98   -47496.249    4103.2794   -51599.528   0.14892249 
   99600    293.03639   -15.646185    148589.36   -47489.161    4024.1491   -51513.311   0.15206569 
   99700    292.69661    19.533025    148582.91   -47533.423    4019.4831   -51552.906   0.14944839 
   99800    297.12249   -3.2743776    148588.49   -47554.574    4080.2619   -51634.836   0.14701865 
   99900    289.82242   -18.467384    148575.31   -47606.502     3980.013   -51586.515   0.14919238 
  100000    288.66319   -13.679882     148565.7   -47518.384    3964.0938   -51482.478    0.1541506 
Loop time of 53.3988 on 6 procs for 100000 steps with 4608 atoms

Performance: 809.007 ns/day, 0.030 hours/ns, 1872.701 timesteps/s
97.9% CPU use with 6 MPI tasks x no OpenMP threads

MPI task timing breakdown:
Section |  min time  |  avg time  |  max time  |%varavg| %total
---------------------------------------------------------------
Pair    | 39.101     | 39.274     | 39.558     |   2.4 | 73.55
Neigh   | 6.3119     | 6.3854     | 6.5241     |   3.8 | 11.96
Comm    | 4.8202     | 5.0333     | 5.2333     |   6.3 |  9.43
Output  | 0.1753     | 0.17631    | 0.18074    |   0.5 |  0.33
Modify  | 1.881      | 1.9109     | 1.9575     |   1.8 |  3.58
Other   |            | 0.6189     |            |       |  1.16

Nlocal:        768.000 ave         778 max         761 min
Histogram: 2 0 0 1 1 1 0 0 0 1
Nghost:        1397.00 ave        1404 max        1388 min
Histogram: 1 0 0 2 0 0 0 1 0 2
Neighs:        0.00000 ave           0 max           0 min
Histogram: 6 0 0 0 0 0 0 0 0 0
FullNghs:      21907.7 ave       22226 max       21695 min
Histogram: 2 0 0 0 2 1 0 0 0 1

Total # of neighbors = 131446
Ave neighs/atom = 28.525608
Neighbor list builds = 6306
Dangerous builds = 0

undump              1
unfix               2
unfix               3
unfix               4




################################################
#######         Run Simulation         #########
################################################

reset_timestep      0
log                 log.run_${NAME}
log                 log.run_ice_293K_1atm_ML
