
# Create simulation box of size 50 x 50 x 50 Angstrom
#
lattice	            sc 1
Lattice spacing in x,y,z = 1.0000000 1.0000000 1.0000000
region 	            all block 0 ${X} ${YZ_LO} ${YZ_HI} ${YZ_LO} ${YZ_HI} units box
region 	            all block 0 53.4 ${YZ_LO} ${YZ_HI} ${YZ_LO} ${YZ_HI} units box
region 	            all block 0 53.4 0.008354284444372695.0 ${YZ_HI} ${YZ_LO} ${YZ_HI} units box
region 	            all block 0 53.4 0.008354284444372695.0 50.89876571555228.0 ${YZ_LO} ${YZ_HI} units box
region 	            all block 0 53.4 0.008354284444372695.0 50.89876571555228.0 0.008354284444372695.0 ${YZ_HI} units box
region 	            all block 0 53.4 0.008354284444372695.0 50.89876571555228.0 0.008354284444372695.0 50.89876571555228.0 units box
create_box          1 all
Created orthogonal box = (0.0000000 0.0083542844 0.0083542844) to (53.400000 50.898766 50.898766)
  3 by 1 by 2 MPI processor grid

# fill box with 4175 randomly distributed atoms
#
create_atoms        1 random 4608 63782 all
Created 4608 atoms
  create_atoms CPU = 0.001 seconds
mass                1 18.015

# Define potential
#
pair_style          sw
pair_coeff          * * /data/emrosky-sim/Freezing_Simulations/Melting/MLmW_fancy/ML_mW.sw mW
Reading sw potential file /data/emrosky-sim/Freezing_Simulations/Melting/MLmW_fancy/ML_mW.sw with DATE: 2019-02-27

# Run minimization
#
minimize            1.0e-8 1.0e-8 10000 1000
WARNING: Using 'neigh_modify every 1 delay 0 check yes' setting during minimization (../min.cpp:187)
Neighbor list info ...
  update every 1 steps, delay 0 steps, check yes
  max neighbors/atom: 2000, page size: 100000
  master list distance cutoff = 6.0032907
  ghost atom cutoff = 6.0032907
  binsize = 3.0016454, bins = 18 17 17
  1 neighbor lists, perpetual/occasional/extra = 1 0 0
  (1) pair sw, perpetual
      attributes: full, newton on
      pair build: full/bin/atomonly
      stencil: full/bin/3d
      bin: standard
Per MPI rank memory allocation (min/avg/max) = 4.234 | 4.248 | 4.253 Mbytes
Step Temp E_pair E_mol TotEng Press 
       0            0    7268901.1            0    7268901.1    4995740.1 
     651            0   -49873.791            0   -49873.791   -206.47783 
Loop time of 1.34595 on 6 procs for 651 steps with 4608 atoms

98.6% CPU use with 6 MPI tasks x no OpenMP threads

Minimization stats:
  Stopping criterion = max force evaluations
  Energy initial, next-to-last, final = 
       7268901.0795137  -49873.6725025338  -49873.7908702002
  Force two-norm initial, final = 1.6714420e+08 2.6613293
  Force max component initial, final = 88842211.0 0.67543152
  Final line search alpha, max atom move = 0.094537317 0.063853484
  Iterations, force evaluations = 651 1001

MPI task timing breakdown:
Section |  min time  |  avg time  |  max time  |%varavg| %total
---------------------------------------------------------------
Pair    | 1.051      | 1.1287     | 1.1991     |   5.5 | 83.86
Neigh   | 0.025428   | 0.026739   | 0.028415   |   0.7 |  1.99
Comm    | 0.09582    | 0.16771    | 0.24698    |  14.4 | 12.46
Output  | 0          | 0          | 0          |   0.0 |  0.00
Modify  | 0          | 0          | 0          |   0.0 |  0.00
Other   |            | 0.02283    |            |       |  1.70

Nlocal:        768.000 ave         784 max         743 min
Histogram: 1 0 1 0 0 0 1 1 0 2
Nghost:        1578.33 ave        1614 max        1549 min
Histogram: 1 0 1 1 0 2 0 0 0 1
Neighs:        0.00000 ave           0 max           0 min
Histogram: 6 0 0 0 0 0 0 0 0 0
FullNghs:      21974.0 ave       22881 max       20937 min
Histogram: 1 0 1 0 0 2 0 0 1 1

Total # of neighbors = 131844
Ave neighs/atom = 28.611979
Neighbor list builds = 25
Dangerous builds = 0

# Add velocity/set timestep
#
velocity            all create ${TEMP} 120598 rot yes dist gaussian
velocity            all create 293 120598 rot yes dist gaussian
timestep            5.0

# Define output
#
compute	            1 all msd
thermo	            100
thermo_style        custom step temp press vol etotal ke pe c_1[4] density

# Neighbor lists
#
neigh_modify        delay 0 every 1 check yes

# Set fixes
#
fix                 1 all momentum 10 linear 1 1 1 rescale
fix                 2 all nve
fix                 3 all temp/csvr ${TEMP} ${TEMP} 500.0 928347
fix                 3 all temp/csvr 293 ${TEMP} 500.0 928347
fix                 3 all temp/csvr 293 293 500.0 928347
fix                 4 all press/berendsen iso ${PRES} ${PRES} 1000.0 modulus 20000
fix                 4 all press/berendsen iso 1 ${PRES} 1000.0 modulus 20000
fix                 4 all press/berendsen iso 1 1 1000.0 modulus 20000

# Run 0.5 ns equilibration
#
dump                1 all custom 1000 eq.${NAME}.dump id type x y z vx vy vz
dump                1 all custom 1000 eq.liq_293K_1atm_ML.dump id type x y z vx vy vz
run                 100000
Per MPI rank memory allocation (min/avg/max) = 3.484 | 3.499 | 3.503 Mbytes
Step Temp Press Volume TotEng KinEng PotEng c_1[4] Density 
     651          293    1123.4859    138297.13   -45850.141    4023.6494   -49873.791            0   0.99674167 
     700     166.8049   -30.952878    139086.32   -44914.916    2290.6636    -47205.58   0.27656932   0.99108609 
     800    213.94167    269.86881    139209.95     -43632.4    2937.9737   -46570.374   0.82577148   0.99020593 
     900    243.64067    15.350049     139271.3   -42859.846    3345.8179   -46205.664     1.497146   0.98976976 
    1000    258.42093   -173.73134    139329.37   -42333.542    3548.7892   -45882.331    2.1549831   0.98935719 
    1100     274.0696     211.9326    139567.76   -41957.453    3763.6859   -45721.139    2.9516811   0.98766734 
    1200    281.65094   -100.52306    139485.16   -41645.043    3867.7974    -45512.84    3.9168132   0.98825222 
    1300     281.6738   -86.721121    139246.25     -41441.3    3868.1113   -45309.411    4.9497847    0.9899478 
    1400    285.37183   -179.28943    139119.87   -41340.333    3918.8949   -45259.228    6.0156812   0.99084706 
    1500    287.89202   -95.146987    139009.77   -41227.727    3953.5036   -45181.231     7.086476   0.99163187 
    1600    288.28998   -200.19975    138624.45   -41213.163    3958.9686   -45172.132    8.1922594   0.99438819 
    1700    292.55974    39.605968    138331.09   -41216.701    4017.6035   -45234.305      9.26643     0.996497 
    1800    286.24175   -98.657244    138185.43   -41160.197    3930.8412   -45091.038    10.519597   0.99754743 
    1900    295.99454   -94.345799     137999.5   -41060.413    4064.7722   -45125.185    11.762223   0.99889143 
    2000    288.76849    257.79461    138246.47   -41050.609    3965.5398   -45016.148    12.897336   0.99710697 
    2100    290.88292   -28.386763     138413.7   -41129.287    3994.5765   -45123.863    14.160745   0.99590225 
    2200    291.30441    10.191942    138698.66   -41071.295    4000.3646   -45071.659    15.270892   0.99385618 
    2300    289.88338     114.9245    138465.27   -41082.101    3980.8501   -45062.952    16.615045   0.99553136 
    2400    289.77178    160.61293    138601.41   -41070.642    3979.3175    -45049.96    17.718151   0.99455349 
    2500    291.11689   -347.07172    138508.96   -41034.873    3997.7895   -45032.663    18.846289   0.99521734 
    2600    296.15485   -85.016623    138499.58   -40911.155    4066.9737   -44978.128     20.06305   0.99528472 
    2700     288.5505   -36.672976    138416.45   -41024.056    3962.5462   -44986.603    21.461446   0.99588245 
    2800    296.50808   -64.570668    138179.84   -41013.522    4071.8244   -45085.347    22.716632   0.99758773 
    2900    297.05518    126.25919    138143.89   -40967.407    4079.3375   -45046.744    23.961095   0.99784734 
    3000    297.93306   -64.422864    138339.72   -40916.624    4091.3931   -45008.017    25.133866   0.99643481 
    3100    294.97953    61.084725    138309.38   -40950.172    4050.8335   -45001.005     26.18303    0.9966534 
    3200    295.19742    24.620078    138210.85   -40948.048    4053.8257   -45001.874    27.591519    0.9973639 
    3300    294.67745    31.373396    138112.35   -40992.764    4046.6851   -45039.449     29.06462   0.99807526 
    3400    288.92727     107.8737     138358.1   -40962.549    3967.7203   -44930.269    30.556306   0.99630244 
    3500    294.43796    99.052241     138404.7   -40855.018    4043.3963   -44898.415    31.624985     0.995967 
    3600    294.99393   -245.26616    138042.95   -40916.746    4051.0313   -44967.777    32.680892   0.99857703 
    3700    291.59647   -70.062244    138130.68   -40947.838    4004.3753   -44952.214    33.775662   0.99794279 
    3800    292.96609    289.69141     138330.3   -40897.327    4023.1838   -44920.511    35.201291   0.99650272 
    3900    290.37467   -52.984593    138491.42   -41075.317    3987.5969   -45062.914     36.16384    0.9953434 
    4000    291.60464    67.040941    138291.04   -41043.329    4004.4875   -45047.816    37.586737   0.99678562 
    4100    300.84174   -100.60146    138409.24   -40956.314    4131.3369   -45087.651    38.876006   0.99593432 
    4200    292.62379    118.86977    138451.92    -41006.24    4018.4832   -45024.723    40.147287   0.99562737 
    4300    292.10909   -96.401105    138447.36   -41010.723     4011.415   -45022.138    41.573948   0.99566014 
    4400    293.85289    141.30137    138252.83   -40959.278    4035.3618    -44994.64    42.646957    0.9970611 
    4500    293.26009    104.30122    138228.53   -40961.108    4027.2211   -44988.329    43.588738   0.99723634 
    4600    289.88894    -64.93337    138253.66   -41006.616    3980.9265   -44987.543    44.809876    0.9970551 
    4700    294.50517   -258.00118    137978.23   -41058.676    4044.3193   -45102.995    46.161316   0.99904541 
    4800    295.47697    64.139565    138029.15   -40994.025    4057.6647    -45051.69    47.422206   0.99867687 
    4900    288.72535    72.255703    138103.32   -41048.134    3964.9474   -45013.082    48.876549    0.9981405 
    5000     298.5976    110.23818    137840.92   -40990.485     4100.519   -45091.004    50.608596    1.0000406 
    5100    283.10326   -151.61847    137928.88    -41046.33    3887.7415   -44934.072    52.160499   0.99940284 
    5200    287.73782    211.38229    138077.02   -41080.497     3951.386   -45031.883    53.552943   0.99833063 
    5300    290.85403    231.04288    138083.16   -41047.312    3994.1797   -45041.492    54.886372   0.99828621 
    5400    296.66578    398.05624    138217.21   -40916.626    4073.9901   -44990.616     56.22423   0.99731807 
    5500    293.10667    241.12112    138201.61   -40906.157    4025.1143   -44931.271    57.755688   0.99743064 
    5600    298.47135   -87.661312    138388.61    -40857.18    4098.7852   -44955.965    58.968962   0.99608279 
    5700    295.19707   -32.588856    138061.04    -40937.63    4053.8209   -44991.451    60.302226   0.99844615 
    5800    293.88219    39.376029    138004.91   -40863.344    4035.7642   -44899.108    61.531474   0.99885224 
    5900    288.98312   -142.11881    138222.43   -41043.039    3968.4872   -45011.526    62.630287   0.99728039 
    6000    289.77577    72.404715     138088.5    -41105.13    3979.3724   -45084.502    64.030855   0.99824764 
    6100    295.63857    122.17141    138099.33   -41028.349    4059.8838   -45088.233    65.637677   0.99816935 
    6200    285.10212    48.120049    138009.29   -41100.599    3915.1911    -45015.79     67.22747   0.99882057 
    6300    290.62678    218.69049    137819.81   -41055.654     3991.059   -45046.713    68.629825    1.0001938 
    6400    290.33277    -76.92262    137931.99   -41062.171    3987.0215   -45049.193    70.001085   0.99938036 
    6500    288.86265   -143.65652    137635.43   -41089.495    3966.8329   -45056.328     71.09434    1.0015337 
    6600    290.85363     -104.711    137785.81   -41112.016    3994.1742    -45106.19    72.002478    1.0004406 
    6700     289.9192    12.692998    138065.91   -41154.178    3981.3421   -45135.521    73.484385   0.99841096 
    6800    292.43868    28.276616    137993.15   -41177.678     4015.941   -45193.619    74.782709   0.99893739 
    6900    291.51949   -38.717497    137855.73   -41066.509    4003.3182   -45069.827      75.6795   0.99993318 
    7000    294.31812   -89.192989    137975.87   -41053.793    4041.7507   -45095.544    76.711732   0.99906252 
    7100    292.39102    34.651046     138124.2   -41122.673    4015.2866   -45137.959    77.862932   0.99798961 
    7200    288.24996    186.98907    138383.71   -41155.615    3958.4191   -45114.034    79.000941   0.99611808 
    7300    291.25249    78.395859    138579.01   -41141.678    3999.6516    -45141.33     79.99067   0.99471427 
    7400    294.01184   -2.9523463    138443.12   -41181.493    4037.5447   -45219.038    81.011168    0.9956906 
    7500    289.99781   -272.78056    138365.71   -41091.562    3982.4216   -45073.983    82.027156   0.99624766 
    7600    294.56103    123.89361     138380.2   -41101.345    4045.0865   -45146.431    83.398118   0.99614334 
    7700     292.5433   -189.72232    138341.93   -41080.829    4017.3778   -45098.207    84.842264   0.99641893 
    7800    290.69919   -107.93548    138191.31   -41089.549    3992.0533   -45081.602    86.104156   0.99750492 
    7900    285.47184    107.97072    138042.38   -41267.362    3920.2682    -45187.63    87.480072   0.99858111 
    8000    291.19425    20.116856    138199.97   -41174.708    3998.8518    -45173.56    88.617265   0.99744244 
    8100    295.71706   -97.834404    138273.55   -41063.573    4060.9617   -45124.535    89.685261   0.99691166 
    8200    296.46382   -48.031652    138207.16    -41071.93    4071.2166   -45143.147    91.107395   0.99739058 
    8300    292.42531   -186.32679    138197.94   -41000.024    4015.7575   -45015.782    92.060223   0.99745713 
    8400    286.65746   -137.10865     138117.5   -41070.897      3936.55   -45007.447    93.234685   0.99803802 
    8500     294.0811    58.926477    137700.01    -41087.24    4038.4957   -45125.735    93.988966     1.001064 
    8600     292.4241   -120.52998    137855.19   -41026.013    4015.7408   -45041.754    95.513477   0.99993711 
    8700     292.7755    196.11519    137685.34   -41016.589    4020.5665   -45037.156    96.681842    1.0011706 
    8800    294.50252    89.192252    137823.92   -40960.181    4044.2829   -45004.464    98.060962    1.0001639 
    8900    296.09836    80.822594    137830.54   -40965.337    4066.1979   -45031.535    98.868334    1.0001159 
    9000    300.30064    28.237515    138408.71   -40862.804    4123.9062    -44986.71    100.16114   0.99593818 
    9100    293.48452    23.177037    138642.87   -40933.042    4030.3032   -44963.345    101.43859   0.99425607 
    9200    289.94972     39.44626    138647.12   -40981.374    3981.7611   -44963.135    102.46356   0.99422562 
    9300    291.32261   -99.198882    138502.14   -40900.842    4000.6145   -44901.456    103.71784   0.99526632 
    9400    294.46619    90.864149    138736.12   -40926.018     4043.784   -44969.802    105.36669   0.99358779 
    9500    297.17957   -240.76427    138654.48   -40980.972    4081.0458   -45062.018    106.62499   0.99417284 
    9600    291.42577    190.16336     138321.1   -41061.395    4002.0312   -45063.427    107.18941     0.996569 
    9700    295.06818    11.465828    137769.77   -41041.097    4052.0509   -45093.148    108.02433     1.000557 
    9800    296.25699    -74.93478    137859.42    -40993.77    4068.3763   -45062.147    109.09351   0.99990637 
    9900    295.47773    220.50026    137796.72   -41025.656     4057.675   -45083.331    110.07877    1.0003614 
   10000     296.5719   -122.87982       137774   -41126.572    4072.7009   -45199.273    111.15334    1.0005264 
   10100     290.2356    96.731308    137914.61   -41096.063    3985.6871    -45081.75    112.41527   0.99950626 
   10200    289.97549   -27.962999    137835.07   -41112.717    3982.1151   -45094.832     113.5689     1.000083 
   10300    293.51341    209.16187    137893.74   -41040.643    4030.6999   -45071.343    114.82544   0.99965752 
   10400    295.50248   -44.358838    137978.83   -40989.597     4058.015   -45047.612    116.55863   0.99904108 
   10500    288.43163    66.666551     137874.6   -40971.983    3960.9139   -44932.897    118.00252   0.99979633 
   10600    297.68735    242.17995    138135.14   -40938.172    4088.0189   -45026.191     118.8986   0.99791061 
   10700    293.05684    219.40661     138390.6    -40968.44      4024.43    -44992.87    120.70519   0.99606846 
   10800    295.68631   -226.70885    138341.13   -40908.833    4060.5395   -44969.372    121.82222   0.99642468 
   10900    298.37067   -284.65992     138364.3    -40915.53    4097.4026   -45012.932    123.18565   0.99625786 
   11000    294.96083    122.98182    138121.77   -40872.339    4050.5766   -44922.916    124.01484   0.99800721 
   11100    295.43696   -139.30865    138228.05   -40956.465    4057.1153    -45013.58    125.29037   0.99723981 
   11200    289.82821    65.590398    138168.36   -40936.012    3980.0926   -44916.104    126.97124   0.99767066 
   11300    288.64087    43.945607    138118.66   -40980.735    3963.7872   -44944.522    128.27165   0.99802961 
   11400    295.11531   -356.94045    138036.26    -41022.58    4052.6981   -45075.278    129.53112   0.99862541 
   11500    287.36191    86.641755    137876.02   -41133.113    3946.2238   -45079.336    130.94355   0.99978604 
   11600    291.27583     21.43145     137831.9   -41194.216    3999.9721   -45194.188    131.87635     1.000106 
   11700    292.03373   -167.03112    137786.05   -41077.022    4010.3801   -45087.403    132.78447    1.0004389 
   11800    294.45799   -68.388689    137812.01   -41119.592    4043.6714   -45163.264    133.58569    1.0002504 
   11900    285.27422    19.086529    137829.64   -41167.524    3917.5545   -45085.078    134.81653    1.0001224 
   12000    287.11741    14.720358    138046.68   -41135.118    3942.8662   -45077.984    135.39915   0.99855006 
   12100     292.8023   -65.336623    137938.52   -41049.801    4020.9345   -45070.735      136.846     0.999333 
   12200    294.07732   -42.628842     138002.6   -40870.107    4038.4439    -44908.55    138.15817   0.99886901 
   12300    299.54083   -16.168582    138057.07   -40817.794    4113.4719   -44931.266    139.72167   0.99847489 
   12400    298.83989    55.271019     138399.7   -40800.106    4103.8462   -44903.952    141.36978     0.996003 
   12500    294.02802    2.4122207    138209.99   -40889.947    4037.7668   -44927.714    142.87874   0.99737013 
   12600    294.63306    138.40344    138101.85   -40911.808    4046.0756   -44957.884    144.18002   0.99815115 
   12700     290.8164    90.035753     138177.4    -40931.96    3993.6629   -44925.623    145.45552   0.99760537 
   12800    291.79728   -34.537462    138327.29   -40977.464     4007.133   -44984.597    146.72855   0.99652437 
   12900    293.69719   -190.46567    138057.62   -40986.837    4033.2236    -45020.06     147.5702   0.99847088 
   13000    291.40334   -2.5259967    137955.06   -41063.555    4001.7232   -45065.278    149.06905   0.99921319 
   13100    290.62072   -40.548501    137986.75   -41038.318    3990.9758   -45029.293    150.60004    0.9989837 
   13200    299.04028   -1.0504865    137681.55   -40938.577    4106.5981   -45045.175    151.81453    1.0011982 
   13300      293.565   -245.88293    137748.86   -40970.716    4031.4083   -45002.124     153.2066     1.000709 
   13400    296.61054 -0.037994771    137982.18   -40970.732    4073.2315   -45043.963    154.54973   0.99901679 
   13500    289.87564    211.18737    138292.35   -40981.028    3980.7438   -44961.772    156.40535   0.99677616 
   13600    290.48206    101.89559    138200.81   -41025.171    3989.0715   -45014.243    157.61722   0.99743638 
   13700    294.06645    71.260488    138385.13   -41050.837    4038.2946   -45089.132    159.28442   0.99610784 
   13800     292.5007   -249.22045     138140.2    -41132.12    4016.7927   -45148.913    160.49191   0.99787404 
   13900    292.84376    108.83283    137989.92   -41131.358    4021.5039   -45152.862    161.72326   0.99896074 
   14000    284.95442    79.277343    138088.37   -41218.017    3913.1628    -45131.18    162.87631   0.99824856 
   14100    290.96857    27.500424     137894.9   -41115.595    3995.7526   -45111.348     163.9757   0.99964913 
   14200    291.01847   -354.48756     137887.2    -41089.01    3996.4379   -45085.448    164.94277   0.99970493 
   14300    289.60525    5.0975854    137755.19   -41114.906    3977.0307   -45091.937    166.27072     1.000663 
   14400    294.83906    26.745373    137921.81   -41042.779    4048.9045   -45091.684    167.85506   0.99945409 
   14500    291.04161   -296.54991    138128.52    -41124.26    3996.7557   -45121.015    169.60978   0.99795837 
   14600    296.04988    101.92261       138206   -40981.396    4065.5321   -45046.928    171.31992   0.99739896 
   14700    293.06646    164.45342    138431.27   -41010.318    4024.5621    -45034.88    172.65242   0.99577587 
   14800    295.73986   -71.196107    138307.09   -40992.523    4061.2749   -45053.798    174.16894   0.99666994 
   14900    299.87492    18.625448    138203.16   -40946.458    4118.0599   -45064.518    175.68864   0.99741946 
   15000    287.77524   -73.711831     138234.1   -41058.953    3951.8999   -45010.853    176.97765   0.99719621 
   15100    295.87261    12.450682    138450.14    -41067.37    4063.0978   -45130.468    178.45066   0.99564011 
   15200    292.24029   -125.02847    138581.38   -41118.318    4013.2167   -45131.535    180.56135   0.99469723 
   15300    290.07787    47.844362    138446.83   -41071.733    3983.5209   -45055.254    182.11092   0.99566393 
   15400    294.32337    -72.67249    138685.72   -40958.533    4041.8227   -45000.355    182.93041   0.99394891 
   15500    290.87203    210.67513    138563.92   -41038.606    3994.4268   -45033.033     184.0401   0.99482256 
   15600    292.39505    -310.8566    138607.18   -41085.344     4015.342   -45100.686    184.49265   0.99451212 
   15700    295.95701    166.00993    138611.67   -41082.133    4064.2569   -45146.389    185.68294   0.99447991 
   15800    291.02234   -38.626892    138604.13   -41068.032    3996.4911   -45064.523     186.6666   0.99453399 
   15900     294.9825   -38.325017    138523.29   -41039.291    4050.8742   -45090.165    187.79294   0.99511438 
   16000    289.73616   -196.71587    138404.47   -41078.583    3978.8285   -45057.412    188.57087   0.99596871 
   16100    292.24424    21.977352    138337.81   -41056.511    4013.2708   -45069.782     189.4535   0.99644857 
   16200    295.05975    248.57709    138623.07    -40905.68    4051.9351   -44957.616    191.13339   0.99439809 
   16300    291.99173     172.2635    138707.95   -40856.768    4009.8033   -44866.571    192.20206    0.9937896 
   16400    295.66128    85.629203    138620.33   -40868.678    4060.1957   -44928.874    193.50807   0.99441772 
   16500    292.61933    22.711347    138532.44    -40871.51    4018.4219   -44889.931    194.72912   0.99504864 
   16600    296.08711   -300.54344    138358.39   -40897.528    4066.0434   -44963.572    195.70497   0.99630036 
   16700    296.65175    79.926349    138041.02   -40999.766    4073.7974   -45073.563    196.11639   0.99859099 
   16800    295.30145    97.868508    138502.17   -40936.135    4055.2542   -44991.389     197.9401    0.9952661 
   16900    293.48578    211.67283    138549.97   -40984.949    4030.3204    -45015.27    199.16434   0.99492278 
   17000    297.92151    184.61045    138639.41    -40985.57    4091.2345   -45076.805    200.43053    0.9942809 
   17100     297.0002    -51.08511    138435.17    -41012.06    4078.5825   -45090.643    201.64429   0.99574781 
   17200    291.86731   -33.363251     138629.2   -40979.415    4008.0947    -44987.51    203.17754   0.99435411 
   17300    293.47135    -258.3026    138228.23   -41027.893    4030.1224   -45058.015    204.32965   0.99723851 
   17400    297.90845   -102.83295     138186.5   -41034.022    4091.0552   -45125.078    205.69836   0.99753969 
   17500    293.83734    -217.4111    138506.22   -41049.875    4035.1483   -45085.024    207.08181   0.99523704 
   17600    292.63101   -228.08393    138490.31   -41072.245    4018.5822   -45090.827    208.67052   0.99535134 
   17700     291.8524    138.79102    138112.71   -41049.361    4007.8898   -45057.251    209.58273   0.99807261 
   17800    288.02142   -258.74232    138001.41   -41080.963    3955.2806   -45036.244    210.92968   0.99887759 
   17900    291.12247   -93.969273    138116.03   -41114.885    3997.8661   -45112.751    212.98281   0.99804866 
   18000    289.81075     86.78186    138076.63   -41140.222    3979.8528   -45120.075    214.07342   0.99833342 
   18100    292.06562    209.80767     137900.2   -41105.364     4010.818   -45116.182     215.3594   0.99961074 
   18200    289.02966   -105.29285    137728.84   -41062.769    3969.1264   -45031.895    215.99026    1.0008544 
   18300     290.3039    34.070023     137647.6   -41101.117     3986.625   -45087.742    217.42298    1.0014451 
   18400    286.85925    90.862407    137786.68   -41142.619     3939.321    -45081.94    218.64057    1.0004343 
   18500    292.64097    207.14004    138018.31   -41005.989    4018.7191   -45024.709    220.12553   0.99875531 
   18600    286.78022    149.46812     137787.2   -40993.537    3938.2358   -44931.773    220.72542    1.0004305 
   18700     292.0599    137.37953    137978.37   -40876.493    4010.7394   -44887.233    222.48714   0.99904441 
   18800    297.26843    -121.0402    138018.36   -40964.965    4082.2661   -45047.231    223.56997   0.99875494 
   18900    290.85551    11.114443    138113.76   -41003.199       3994.2   -44997.399    224.87005   0.99806504 
   19000    293.49164    97.322689    137826.27   -40993.619    4030.4009    -45024.02     225.5204    1.0001469 
   19100    289.89385    129.22337    138022.99   -41055.268    3980.9939   -45036.262    227.50797   0.99872142 
   19200     292.2026   -155.99039    138568.77   -40974.406    4012.6991   -44987.105    229.18576   0.99478775 
   19300    292.43688     25.93432     138946.3   -40950.461    4015.9164   -44966.378    231.40211    0.9920848 
   19400    292.65779   -150.24712    138746.54   -41000.539      4018.95   -45019.489    232.39122   0.99351317 
   19500    289.75121    131.60016    138521.53   -40973.863    3979.0351   -44952.898    232.93503   0.99512704 
   19600    294.03034   -151.46136    138603.43   -40983.096    4037.7986   -45020.894    234.12966   0.99453898 
   19700    292.55375    24.788621    138401.98   -40966.207    4017.5213   -44983.729    235.28318   0.99598659 
   19800    295.38537   -6.3077463    138442.01   -40959.644    4056.4068   -45016.051    236.65688   0.99569864 
   19900    291.62168    35.913614     138311.8    -40932.28    4004.7215   -44937.002    237.61041     0.996636 
   20000    294.76095   -304.34775    138181.21   -40875.916    4047.8318   -44923.748    238.86003   0.99757784 
   20100    292.73239    118.72151    138207.25   -40868.996    4019.9744    -44888.97    239.74891   0.99738988 
   20200    291.20463   -8.5102189     138285.5   -40865.072    3998.9944   -44864.066    241.05772   0.99682552 
   20300    299.49814   -158.94663    138112.92   -40868.094    4112.8857    -44980.98    242.71032   0.99807111 
   20400    296.96764   -204.62741    138491.53   -40926.407    4078.1355   -45004.543    244.51508    0.9953426 
   20500    295.56435    165.06091     138495.7   -40870.738    4058.8646   -44929.603    245.48195   0.99531264 
   20600    293.73644   -311.25133    138598.52   -40954.684    4033.7627   -44988.447    247.31152   0.99457423 
   20700    292.00849    31.509618    138508.33   -41073.068    4010.0335   -45083.101    248.52296   0.99522186 
   20800    292.25793    311.85094    138334.85   -41093.282    4013.4589   -45106.741    249.74271    0.9964699 
   20900    291.59068   -92.980637    138360.89   -41029.471    4004.2959   -45033.767    251.78339   0.99628236 
   21000    292.75237   -137.87056    138223.33   -40949.859    4020.2488   -44970.108     253.4291   0.99727386 
   21100    290.25228   -185.12169    138055.71   -41056.368    3985.9161   -45042.284     254.8179   0.99848475 
   21200    288.07617    214.19021    137670.59   -41107.161    3956.0324   -45063.193    254.87031    1.0012779 
   21300    289.53557   -200.32867    137615.29   -41105.039    3976.0738   -45081.113    256.16132    1.0016802 
   21400    294.37226   -20.703372    137695.44   -41007.668    4042.4941   -45050.162    256.93046    1.0010972 
   21500    300.45411   -133.82681    137781.95   -40974.469    4126.0137   -45100.483    257.16261    1.0004686 
   21600    293.69444    176.88974     137958.6   -41032.995    4033.1858   -45066.181    259.14652   0.99918756 
   21700    296.99194   -210.09832    138030.85   -41012.552     4078.469   -45091.021    260.47603   0.99866457 
   21800    293.36592    42.127477    137912.49   -40910.228    4028.6745   -44938.903    261.53542    0.9995216 
   21900    293.42169    154.48416    137750.81    -40874.62    4029.4403    -44904.06    263.19499    1.0006948 
   22000    296.43577     9.749944    137782.11   -40918.218    4070.8314   -44989.049    264.93391    1.0004675 
   22100    297.37735     15.22088    137908.11   -40898.522    4083.7618   -44982.284    267.08366   0.99955338 
   22200    298.26552    86.809468     137941.8    -40852.98    4095.9587   -44948.939    269.26132   0.99930922 
   22300    293.36833   -60.134066     138329.1   -40906.998    4028.7075   -44935.706    270.74628   0.99651136 
   22400    288.47603   -63.664093    138140.16   -40956.822    3961.5235   -44918.346    271.32844   0.99787432 
   22500    291.20432    58.914086    138059.73   -40993.985    3998.9901   -44992.975    272.46755   0.99845565 
   22600    291.67838   -166.08256    138145.22   -41009.973    4005.5001   -45015.473    273.44259   0.99783778 
   22700    291.45184   -152.67991    137763.98   -40995.462    4002.3892   -44997.851    274.34468    1.0005991 
   22800    286.46592   -135.53467    137795.82   -41105.456    3933.9196   -45039.376    276.15152    1.0003679 
   22900    294.03046    62.364421    137901.65    -41075.94    4037.8002    -45113.74     277.4114    0.9996002 
   23000    299.09874   -13.507312    138340.54    -40961.83     4107.401   -45069.231     279.3804   0.99642892 
   23100    298.43135    279.33315    138468.08   -40975.442    4098.2359   -45073.678    281.01162   0.99551111 
   23200    291.90333    104.16095    138697.19   -41001.081    4008.5893    -45009.67    282.63192   0.99386667 
   23300    294.07972      -265.93    138527.59    -41130.18    4038.4768   -45168.657    284.05162   0.99508352 
   23400     294.7058    201.20154    138353.96   -41052.739    4047.0745   -45099.814    285.13864   0.99633229 
   23500    293.90888   -273.99609    138673.71   -41096.866    4036.1307   -45132.997    287.05849     0.994035 
   23600    289.80605   -166.32454    138358.48   -41165.276    3979.7882   -45145.064    287.59059   0.99629976 
   23700    287.73709     243.7856     138351.7   -41186.959    3951.3761   -45138.335    288.90808   0.99634852 
   23800    291.62561    39.777829    138244.89   -41113.026    4004.7755   -45117.801    290.03207   0.99711833 
   23900    290.67783    206.20283     138403.8   -41017.584      3991.76   -45009.344    290.83419   0.99597348 
   24000    296.22101   -217.33519    138347.53   -40973.224    4067.8823   -45041.106    291.48236   0.99637862 
   24100    289.05701    77.017372    138535.22   -41011.847    3969.5019   -44981.349    292.44117   0.99502867 
   24200    299.23771     118.4313    138685.22   -40923.188    4109.3093   -45032.497     293.6316   0.99395244 
   24300    294.40747   -35.009494    138785.54   -41003.174    4042.9776   -45046.151    295.31176   0.99323397 
   24400    297.72688    -163.3792    138863.58   -40931.925    4088.5617   -45020.487    296.63202    0.9926758 
   24500    292.55073    16.929926    138996.26   -41000.503    4017.4797   -45017.983    298.47184   0.99172821 
   24600    299.71175   -72.034306    138786.84   -40987.751    4115.8191    -45103.57    298.92417    0.9932247 
   24700    291.44198   -50.389043    138812.71   -40970.777    4002.2538   -44973.031    300.31253   0.99303961 
   24800      294.785    -202.7977    138611.11   -40986.457    4048.1621   -45034.619    301.05736   0.99448389 
   24900    295.85451   -114.85032     138581.3   -41025.776    4062.8493   -45088.625    302.87223   0.99469785 
   25000    298.09576     168.4812    138441.94   -41103.131    4093.6274   -45196.759    303.99699   0.99569912 
   25100    288.63646   -5.3294573    138514.48   -41121.511    3963.7267   -45085.238    305.85307   0.99517769 
   25200    287.81619    81.838742    138393.04    -41114.39    3952.4622   -45066.853    306.92698    0.9960509 
   25300     287.1602    50.156873     138891.7   -41134.676    3943.4538    -45078.13      309.676   0.99247487 
   25400    295.53826   -132.87121    138782.76   -41038.802    4058.5064   -45097.308     310.7128   0.99325392 
   25500    291.09375   -309.48661    138735.36   -41084.103    3997.4717   -45081.575    313.16833   0.99359323 
   25600    292.61493   -87.433673    138581.75   -41133.012    4018.3615   -45151.373    314.52045   0.99469458 
   25700    295.21329    91.553458    138759.55   -41114.508    4054.0436   -45168.551    315.91176   0.99342006 
   25800    284.12547   -42.402019     138559.9    -41211.17    3901.7792   -45112.949    316.66371   0.99485148 
   25900    288.74838    60.217893    138200.76   -41251.614    3965.2637   -45216.878    317.29649   0.99743675 
   26000    292.89585     -8.16182    138632.55   -41107.034    4022.2191   -45129.253    320.20086   0.99433009 
   26100    293.74241    248.90755    138820.59   -41108.804    4033.8447   -45142.649    321.55858   0.99298321 
   26200    297.84457   -335.46098    138648.63    -40979.91     4090.178   -45070.088    323.08587   0.99421479 
   26300    293.91494    62.563451    138516.26   -41045.633    4036.2139   -45081.847    324.67744   0.99516485 
   26400    292.49546    10.561769    138299.64    -41017.92    4016.7208    -45034.64    326.02551   0.99672365 
   26500    293.40397    17.496471    138423.42   -40879.333     4029.197    -44908.53    327.07793   0.99583235 
   26600    297.42038   -233.01828    138353.24    -41004.75    4084.3527   -45089.102    327.80922   0.99633744 
   26700    297.91591   -117.20788    137979.63   -40947.249    4091.1577   -45038.407    328.59314   0.99903525 
   26800    291.40902   -104.10078     138033.2   -40968.443    4001.8011   -44970.244    330.52379   0.99864758 
   26900     291.8238   -191.68235    138249.94   -41101.738    4007.4972   -45109.235    332.22966    0.9970819 
   27000    287.45601    13.701349    138514.84   -41162.134    3947.5161    -45109.65    333.99248   0.99517508 
   27100    296.41507   -143.97529    138341.75   -41066.926    4070.5472   -45137.473    335.47996   0.99642022 
   27200    295.94856    382.15475    138630.06   -41012.068    4064.1408   -45076.209    337.36587   0.99434799 
   27300    294.81468   -172.64687     138542.8   -40962.552    4048.5697   -45011.121    338.29373   0.99497422 
   27400    297.63322    7.2803893    138602.31   -41021.895    4087.2756    -45109.17    339.83229   0.99454703 
   27500    293.29019   -18.217752    138400.96   -41039.361    4027.6345   -45066.996    340.05991    0.9959939 
   27600    292.04761    149.34433     138460.1   -40948.496    4010.5706   -44959.066    341.84577    0.9955685 
   27700    297.06834    126.44521    138538.11   -40949.115    4079.5183   -45028.634    343.57175   0.99500794 
   27800    293.39135   -149.91421    138577.91   -40940.111    4029.0237   -44969.134    345.32432   0.99472214 
   27900    296.70177    9.6446343    138680.48   -40895.932    4074.4843   -44970.416    347.26925   0.99398647 
   28000    298.70536    21.878975    138522.94   -40875.072    4101.9989   -44977.071    348.57395   0.99511689 
   28100    295.88272    109.87234    138517.73   -40955.936    4063.2367   -45019.172    349.87785   0.99515432 
   28200    292.14134    38.497943    138438.24   -41087.924    4011.8577   -45099.782     350.2972   0.99572573 
   28300    290.72637    57.465342    138541.32   -41093.038    3992.4265   -45085.465    351.51243   0.99498483 
   28400    296.53334    61.020005    138490.24   -40964.301    4072.1713   -45036.472    352.82984   0.99535187 
   28500    288.19694    153.14791     138267.3   -41054.383    3957.6909   -45012.074    354.66141   0.99695676 
   28600     287.7449    187.45107    138212.93    -41081.73    3951.4833   -45033.214    355.56759   0.99734889 
   28700    290.86752    100.31394    137776.57   -41126.576     3994.365   -45120.941    355.78249    1.0005077 
   28800    292.28396     192.5802    137990.18   -41055.471    4013.8164   -45069.288    357.41538   0.99895889 
   28900    295.61334     120.3729    138061.63   -41048.386    4059.5374   -45107.923    359.26529    0.9984419 
   29000    295.26045   -200.24343    137985.47   -41056.245    4054.6913   -45110.936     359.6165   0.99899297 
   29100    292.12127   -14.836474    138056.85   -41058.647    4011.5822   -45070.229    361.52648   0.99847647 
   29200    287.66036    197.88083    138214.18   -41082.613    3950.3223   -45032.935    363.11072   0.99733991 
   29300     293.7969    73.389237    138143.91   -41024.247     4034.593    -45058.84    364.54499   0.99784721 
   29400    292.12329   -290.73457    138002.02     -41084.5    4011.6099    -45096.11     365.2717    0.9988732 
   29500    293.79762     205.1047    138165.68   -41017.998    4034.6028     -45052.6    367.36421   0.99768998 
   29600    286.75906   -26.632759    138282.12   -41070.722    3937.9451   -45008.667    368.37081   0.99684992 
   29700    294.89317    -55.20817    138075.64   -41002.539    4049.6476   -45052.186    368.93903   0.99834062 
   29800    293.67374    149.51466    138116.04   -40923.601    4032.9016   -44956.503    370.43383   0.99804856 
   29900    299.93769   -135.53303     138112.8   -40937.346    4118.9219   -45056.268    371.72129   0.99807201 
   30000    291.52608   -30.062633    137848.88   -40958.307    4003.4087   -44961.715    371.88187   0.99998286 
   30100    294.70003    19.189308    137918.91   -40956.949    4046.9953   -45003.944    372.74939   0.99947507 
   30200    294.24102  -0.93196476    137701.62    -40989.01    4040.6919   -45029.702    374.05329    1.0010522 
   30300    290.63818   -61.887418    137553.12   -41005.487    3991.2155   -44996.702    375.00679     1.002133 
   30400    290.21038    -128.3346     137553.5   -41142.479    3985.3407   -45127.819    376.06492    1.0021302 
   30500     288.9175   -94.049399    137674.76   -41119.794    3967.5861   -45087.381    377.57193    1.0012476 
   30600    287.38368    20.669596    137805.72    -41159.36    3946.5228   -45105.883    378.65483     1.000296 
   30700    294.30633   -145.52886    138190.31   -41080.787    4041.5888   -45122.376    380.63307   0.99751217 
   30800    290.70908    64.513624    137954.75   -41038.224    3992.1892   -45030.414    380.69668   0.99921546 
   30900     283.5627    282.11056    138017.88   -41049.042    3894.0509   -44943.093    381.91013   0.99875839 
   31000    291.47255    83.795291    138295.69   -41032.037    4002.6735   -45034.711    383.46344   0.99675209 
   31100    284.08426    43.139342    138567.06   -41128.219    3901.2132   -45029.433    384.48377   0.99480005 
   31200      295.039    44.281206    138265.14   -41080.144    4051.6502   -45131.794    385.47944    0.9969723 
   31300    291.33481    239.16554     138342.2   -41056.156    4000.7821   -45056.938    386.82544   0.99641698 
   31400    287.85477    4.0722606    138543.15    -41083.66    3952.9921   -45036.652    388.80567   0.99497169 
   31500    290.54148    38.585646     138467.7   -40937.704    3989.8876   -44927.592    390.14404   0.99551391 
   31600    287.79137     -1.94687     138462.7   -41013.884    3952.1215   -44966.005    391.43153   0.99554986 
   31700     288.0421    -1.078437    138277.87   -41013.326    3955.5646    -44968.89     392.5704   0.99688053 
   31800    295.03126    -102.9436    138417.05   -41018.691    4051.5439   -45070.235    394.22449   0.99587816 
   31900    292.82962   -212.49848    138477.53   -40945.216    4021.3097   -44966.526    395.96918   0.99544323 
   32000    293.35102   -87.874884    138547.75    -40959.45    4028.4699    -44987.92    396.79297   0.99493869 
   32100     291.5064   -119.45148    138453.58   -40996.692    4003.1384   -44999.831    397.38651   0.99561543 
   32200    295.95169   -153.63605     138500.2   -41022.657    4064.1838   -45086.841    399.17738   0.99528028 
   32300    294.38617     38.43495    138727.53   -41029.922    4042.6852   -45072.607    400.44348   0.99364935 
   32400    299.35878   -145.40007    138794.27   -40929.359    4110.9719    -45040.33    400.53826    0.9931715 
   32500    292.79802    -276.4776     138819.8   -41025.134    4020.8757   -45046.009    402.16888   0.99298888 
   32600    293.60998   -80.996342    138717.72   -41073.668    4032.0261   -45105.694    402.86302   0.99371961 
   32700    292.68179   -30.516679    138295.53   -41039.924    4019.2795   -45059.203    402.69778   0.99675321 
   32800    292.52545    113.98492    138288.45   -41147.985    4017.1327   -45165.118    403.83301   0.99680427 
   32900    288.82466   -80.550169    138040.98   -41222.067    3966.3112   -45188.378    404.35172    0.9985913 
   33000    290.50229    111.91972    137954.44     -41149.7    3989.3494   -45139.049    405.91828   0.99921769 
   33100    292.95309    61.529783     137816.7   -41093.002    4023.0052   -45116.008    406.33852    1.0002163 
   33200    292.15157        338.2    138004.32   -41014.683    4011.9982   -45026.682     407.4038   0.99885656 
   33300    290.79258    203.31604    138104.78    -41007.44    3993.3358   -45000.776    407.97776   0.99812997 
   33400    292.81679    36.821519    138100.02   -41015.504    4021.1334   -45036.637    408.03082   0.99816438 
   33500    291.06676    138.36164    137859.66   -40953.756    3997.1011   -44950.857    408.13116   0.99990469 
   33600    294.54127    105.07048    137963.14   -40985.499    4044.8151   -45030.314    408.54124   0.99915471 
   33700    292.56037     24.73212    138047.45   -41015.551    4017.6122   -45033.164    409.35798   0.99854449 
   33800    295.88623    20.919126    138043.84   -41006.081    4063.2849   -45069.366    410.57526   0.99857057 
   33900    292.17914   -52.513974    138076.13   -41003.842     4012.377   -45016.219    411.40221   0.99833705 
   34000    291.91871    -63.87747    138347.62   -41041.449    4008.8005   -45050.249    412.83622   0.99637793 
   34100    292.15587   -157.03015    138286.19   -41142.923    4012.0574   -45154.981    412.93834   0.99682058 
   34200    290.68926   -100.99483    138319.69   -41128.707     3991.917   -45120.624    414.83811   0.99657911 
   34300    293.09098    -67.05482    138285.11   -41078.545    4024.8988   -45103.444    415.55883   0.99682834 
   34400    296.37393   -32.490053    138342.71   -40936.275    4069.9823   -45006.258    416.81759    0.9964133 
   34500    293.75702   -74.576572    138168.26   -40863.102    4034.0452   -44897.147    418.24445   0.99767139 
   34600    296.77329    -8.273395    138031.56   -40981.509    4075.4665   -45056.975    419.60978   0.99865938 
   34700    291.08676   -233.32266       137776   -41051.355    3997.3757    -45048.73    420.21126    1.0005118 
   34800    288.10076   -29.001964    137372.07   -41063.756    3956.3702   -45020.126    420.37857    1.0034537 
   34900    291.43221   -87.995584    137454.85   -41027.227    4002.1196   -45029.346    421.97539    1.0028494 
   35000    290.81318     234.3649    137583.62   -41081.052    3993.6187   -45074.671    423.75589    1.0019108 
   35100    297.11532   -33.608367     137852.3   -40992.298    4080.1634   -45072.462    425.76408   0.99995803 
   35200    293.44669     52.16259    138038.49   -40862.082    4029.7837   -44891.866    427.13792   0.99860926 
   35300    289.33594    104.01442    138132.07   -40993.508    3973.3324   -44966.841    428.39351   0.99793278 
   35400    290.61323   -131.76364    137964.41   -41084.709    3990.8729   -45075.582    430.03531   0.99914545 
   35500    296.81231    12.021206    138071.01   -41024.024    4076.0023   -45100.026    431.57447    0.9983741 
   35600    301.13348   -148.54051    137986.55   -41025.934    4135.3432   -45161.277    432.92336   0.99898514 
   35700    298.16286   -207.65766    137903.34   -40998.374    4094.5489   -45092.923    433.02728   0.99958792 
   35800    292.63825    58.375807    137877.28   -40986.226    4018.6816   -45004.908    433.88867   0.99977691 
   35900    297.32872    60.560165    138106.91   -40950.266     4083.094    -45033.36    436.16116   0.99811454 
   36000    295.20926   -389.17358    138060.29   -40981.597    4053.9883   -45035.585    437.58162   0.99845161 
   36100    291.17711    39.270116    137702.86   -41067.471    3998.6165   -45066.088    438.49429    1.0010432 
   36200    287.77799   -268.77231    137897.01   -40981.806    3951.9376   -44933.744    440.28512   0.99963382 
   36300    292.63449    221.40393    137819.92   -40989.774      4018.63   -45008.404    442.03753     1.000193 
   36400    298.96473    135.53243    137745.54   -40862.354    4105.5606   -44967.914    444.19851    1.0007331 
   36500     296.0612    263.05914    137852.33    -40829.56    4065.6876   -44895.248    445.37593    0.9999578 
   36600    287.98976    301.81066    138213.49   -40971.265    3954.8458   -44926.111    447.94493   0.99734486 
   36700    293.54449   -271.36861    138291.88   -41006.215    4031.1267   -45037.341    449.07339   0.99677952 
   36800    290.53437   -91.773137    138277.34    -41029.44    3989.7899    -45019.23    450.79404   0.99688432 
   36900    293.25967    5.9477484    138244.12   -41096.294    4027.2154   -45123.509    451.25917   0.99712393 
   37000      294.291    26.571686    138174.17   -41056.479    4041.3782   -45097.857    452.99352   0.99762872 
   37100    289.21481    2.7545997    138048.16   -41090.268    3971.6689   -45061.937    454.23851   0.99853934 
   37200    292.39222   -3.8072474    137788.58   -41073.409     4015.303   -45088.712    454.97646    1.0004205 
   37300    296.33313    229.00833    138052.56   -41045.305     4069.422   -45114.727     457.3917   0.99850749 
   37400     290.9028   -10.968385    138086.08   -41097.337    3994.8494   -45092.186     458.7488   0.99826513 
   37500    289.28513   -1.1682921    137989.09   -41126.898    3972.6347   -45099.533     459.1071   0.99896677 
   37600    287.52289   -25.297034    138241.18   -41118.585    3948.4345   -45067.019    461.00292   0.99714511 
   37700    290.83959    81.745798     138529.1   -41136.168    3993.9814   -45130.149    462.59607   0.99507266 
   37800    287.49291   -340.64596    138333.23   -41105.591    3948.0228   -45053.614    464.04683   0.99648157 
   37900     288.6144   -26.470946    138109.42    -41076.61    3963.4238   -45040.034    464.31524   0.99809643 
   38000    298.03348   -9.1876434    137985.65   -41050.432    4092.7721   -45143.205    465.42945   0.99899167 
   38100    287.40073    16.948336    137786.42   -41065.208    3946.7569   -45011.965     466.6235    1.0004362 
   38200     290.1026    87.838906    137713.72   -41112.148    3983.8606   -45096.009    467.53242    1.0009643 
   38300    291.22221   -31.392572    137426.82   -41176.966    3999.2357   -45176.201    467.96107     1.003054 
   38400    286.03048   -59.434636    137359.37   -41264.555    3927.9399   -45192.495    468.68199    1.0035465 
   38500    286.09128     54.64338    137399.64   -41233.117    3928.7748   -45161.892    470.34877    1.0032524 
   38600    287.18986    74.736605    137731.19   -41114.206    3943.8612   -45058.067    472.92594    1.0008373 
   38700    288.10877   -50.523597    137712.68   -41082.663    3956.4801   -45039.143    473.14983    1.0009719 
   38800     289.9859   -16.415037    137747.19   -41020.816     3982.258   -45003.074    474.60846    1.0007211 
   38900    292.38534   -61.295031    137436.34     -40936.9    4015.2085   -44952.109    475.88718    1.0029845 
   39000    293.79852    96.508545    137528.78   -40944.442    4034.6151   -44979.057     477.1088    1.0023103 
   39100     296.0996   -170.67204    137092.81   -41039.588     4066.215   -45105.803    477.26775    1.0054978 
   39200    291.75432    152.79321    137524.34   -41011.648     4006.543   -45018.191    478.39247    1.0023427 
   39300      291.328     214.4237    137875.68   -40992.209    4000.6886   -44992.898    480.12415   0.99978851 
   39400     300.9002   -226.11453    137903.51   -41015.144    4132.1396   -45147.284    481.12359   0.99958671 
   39500     295.7028   -38.061937    138116.41   -40957.684    4060.7658   -45018.449    481.65736   0.99804591 
   39600    297.64619   -257.16661    138169.42   -40975.434    4087.4537   -45062.888    482.92456   0.99766296 
   39700     294.1016   -121.93788    138109.67   -41061.679    4038.7772   -45100.457    483.90342   0.99809462 
   39800    293.77328   -157.70899    138044.77   -41027.624    4034.2685   -45061.892    485.14691   0.99856385 
   39900    291.23616   -51.422995    137687.01   -41176.338    3999.4273   -45175.765     485.9085    1.0011585 
   40000    291.84966     63.35668    137559.16    -41061.01    4007.8523   -45068.863     487.2912     1.002089 
   40100     294.4165   -225.40242    137645.52   -40996.992    4043.1017   -45040.094    488.13317    1.0014602 
   40200    295.23092    10.627408    137741.95     -40942.3    4054.2858   -44996.586     490.2961    1.0007592 
   40300    297.47848    20.292027    137955.76    -41022.16    4085.1505    -45107.31    492.53283   0.99920812 
   40400    290.07645   -15.964417    138273.57   -41004.587    3983.5015   -44988.089    494.81461   0.99691153 
   40500    290.29471   -103.04385     138031.5    -40984.42    3986.4988   -44970.919     495.6992   0.99865984 
   40600    294.61874   -32.080879    137899.03   -41001.263    4045.8789   -45047.142    496.42387    0.9996192 
   40700    290.11445   -175.99673    137942.62   -40996.825    3984.0234   -44980.849    497.29572   0.99930334 
   40800     294.3369    41.093518    137684.61   -41044.749    4042.0085   -45086.758    498.24318    1.0011759 
   40900    291.16891    -66.96086    137817.62   -41035.905    3998.5039   -45034.409    500.16901    1.0002097 
   41000    292.79137    51.799296    137962.17   -41038.726    4020.7844   -45059.511    502.25045   0.99916174 
   41100    291.35074    250.42053    138006.27   -41038.599    4001.0008     -45039.6    503.67045   0.99884243 
   41200     295.6438    59.576016    138249.33   -40950.935    4059.9557   -45010.891    505.65685   0.99708636 
   41300    292.23123    239.52823    138132.49   -41101.728    4013.0922    -45114.82    506.82565   0.99792969 
   41400    286.68456    78.838143    138230.16   -41055.348    3936.9221    -44992.27    509.33722   0.99722458 
   41500    292.30823   -69.518124    138251.86   -41055.338    4014.1497   -45069.488    510.94258   0.99706812 
   41600    293.28691    101.41301    138334.99   -40999.297    4027.5895   -45026.887    512.71391   0.99646892 
   41700     289.7765   -33.394694    138224.51   -41109.407    3979.3824   -45088.789    513.84969   0.99726535 
   41800    293.29784      60.5633     138315.8   -41012.003    4027.7396   -45039.742    515.21668   0.99660716 
   41900    297.07423   -247.00504    138418.18   -41019.382    4079.5992   -45098.981     516.4765   0.99587002 
   42000    289.16087     196.6915    138162.11   -41072.574    3970.9282   -45043.502    516.65477   0.99771574 
   42100    299.17671    41.599085    138175.32    -41066.15    4108.4717   -45174.622    517.97244    0.9976204 
   42200    296.63657   -79.534573     138287.9   -41074.846     4073.589   -45148.435    519.94583   0.99680824 
   42300    291.53826    103.40212    138363.42   -41181.552     4003.576   -45185.128    521.82055   0.99626415 
   42400    297.75352   -224.67636    138371.63   -41085.762    4088.9276   -45174.689    523.08588   0.99620504 
   42500    291.35379   -7.1604779    138199.17   -41133.119    4001.0427   -45134.162      523.436   0.99744824 
   42600    288.24729   -97.719726    137969.46   -41141.754    3958.3824   -45100.137    523.87217   0.99910889 
   42700    283.25238    69.847133    137975.79   -41221.165    3889.7893   -45110.955    524.44959   0.99906305 
   42800    285.09795    293.46165    137998.46   -41167.462    3915.1338   -45082.595    525.85597   0.99889892 
   42900    288.00837     39.90847    137692.26   -41130.012    3955.1014   -45085.113     526.6609    1.0011203 
   43000    288.99596   -78.244474    137865.96   -41090.866    3968.6636   -45059.529    528.48771   0.99985897 
   43100    290.07444    127.70258    137921.97   -41092.546    3983.4739    -45076.02    529.71386   0.99945294 
   43200    289.10823    13.378548    137947.44   -41120.972    3970.2053   -45091.177    530.75764   0.99926841 
   43300    289.57832    214.15853    138169.63   -41147.562    3976.6609   -45124.223    532.68378   0.99766146 
   43400    290.29967   -18.497824    138121.28   -41110.141    3986.5668   -45096.708    533.42982   0.99801068 
   43500    289.07147   -366.41181    138035.28   -41089.414    3969.7005   -45059.115    533.91319    0.9986325 
   43600      294.406    243.52533    137978.24   -41091.497    4042.9574   -45134.454    533.87397   0.99904533 
   43700    293.44728   -109.73726    137871.13   -41065.145    4029.7917   -45094.937    535.06578    0.9998215 
   43800    294.46939   -50.556375    137845.25    -41005.32     4043.828   -45049.148     536.3736    1.0000092 
   43900    290.14868    380.00173    138076.58   -41116.521    3984.4934   -45101.014    538.44759   0.99833384 
   44000    300.04249     107.1329    138553.38   -41044.247    4120.3611   -45164.608    541.05834   0.99489829 
   44100    297.95946   -120.20428    138650.88   -40970.189    4091.7556   -45061.945    543.23741   0.99419863 
   44200    292.50757    38.958405    138338.89   -41036.916    4016.8871   -45053.803    544.16905   0.99644085 
   44300     289.4795   -64.883221    138126.82    -41147.72    3975.3038   -45123.024    545.18401   0.99797065 
   44400    286.33977   -28.099447    138046.36   -41139.516    3932.1872   -45071.704    546.68623   0.99855236 
   44500    291.72993     48.77538    138015.06   -41129.675     4006.208   -45135.883    547.37034    0.9987788 
   44600    290.19957   -106.78604    138076.04   -41170.949    3985.1923   -45156.142    548.88333   0.99833769 
   44700      290.412   -23.964736    138082.99    -41180.22    3988.1095    -45168.33    549.83915   0.99828746 
   44800    288.68559    -265.6235    137873.98   -41103.863    3964.4014   -45068.264    550.09858   0.99980083 
   44900    289.57938     122.6106    137997.49   -41138.032    3976.6755   -45114.708    551.54806     0.998906 
   45000    292.21723   -51.007371    138159.61   -41137.599    4012.8999   -45150.499    553.84686   0.99773381 
   45100    293.47382    4.6897091    137980.35   -41059.452    4030.1562   -45089.608    553.73531   0.99903006 
   45200    288.85012   -17.929602    138360.02   -41086.879    3966.6608    -45053.54    556.50114   0.99628862 
   45300    286.58869    412.25092    138140.62   -41101.752    3935.6056   -45037.357    556.82327   0.99787097 
   45400    290.14755   -72.059087    138210.22   -41107.266    3984.4779   -45091.744    559.00406   0.99736847 
   45500    293.81157   -27.269152    138098.55   -41029.468    4034.7944   -45064.262    560.32052   0.99817499 
   45600     296.2158    127.02255    138312.43   -41061.433    4067.8108   -45129.244    561.64494   0.99663143 
   45700    296.70666    60.430592    138189.16    -40996.88    4074.5514   -45071.431    563.37268   0.99752047 
   45800     296.9081    68.991319    138004.22   -40969.415    4077.3177   -45046.733    564.71483   0.99885728 
   45900    294.73019    19.952128    138055.73   -41010.009    4047.4094   -45057.418    567.07704   0.99848457 
   46000    297.03557    205.57611    138073.64   -41056.165    4079.0682   -45135.234    568.71482   0.99835508 
   46100    296.42715   -81.992745    138317.13   -41050.478     4070.713   -45121.191    570.77646   0.99659756 
   46200    294.46751   -235.08861    138396.59   -41037.794    4043.8022   -45081.596    572.84117    0.9960254 
   46300    290.13961    204.41694     138266.9   -41059.527    3984.3689   -45043.896    573.78278   0.99695963 
   46400    294.55131   -264.64214    138069.22   -41088.633    4044.9529   -45133.586     574.6831   0.99838702 
   46500    295.25701    -215.2446       137956   -41013.352     4054.644   -45067.996    574.94214   0.99920637 
   46600    293.97337    77.847532    138121.09   -40939.045    4037.0164   -44976.062    575.61487   0.99801206 
   46700    298.89509    94.087817    138427.85   -40874.977    4104.6043   -44979.581    577.65872   0.99580047 
   46800    296.48651    249.79256    138220.01   -40905.617    4071.5283   -44977.145    579.23345   0.99729781 
   46900    298.11333    117.18534    138472.92   -40906.133    4093.8687   -45000.001    581.24018   0.99547632 
   47000    292.02209   -17.010922    138546.29    -40979.05    4010.2202   -44989.271    583.51055   0.99494914 
   47100    293.62533    531.74632    138505.42   -40983.924    4032.2369   -45016.161    584.80508   0.99524275 
   47200    293.37374    22.944562    138512.83   -41022.639    4028.7819   -45051.421    586.96644   0.99518948 
   47300    296.97981    77.636826    138512.44   -40977.734    4078.3025   -45056.036    588.98252   0.99519233 
   47400    292.79711    124.23951    138439.24   -40996.596    4020.8633   -45017.459    589.14561   0.99571852 
   47500    290.97232   -172.39256    138221.43   -40999.638    3995.8042   -44995.442    589.59888    0.9972876 
   47600    298.33739   -86.147754    138258.58   -40942.633    4096.9457   -45039.579    591.23773   0.99701959 
   47700    291.06084    66.781926    138213.13   -41049.892    3997.0197   -45046.911    591.97207   0.99734749 
   47800    287.03662   -340.07133    138305.12   -41069.041    3941.7568   -45010.797    593.25026   0.99668411 
   47900    293.98254   -199.85466    138068.25   -41039.411    4037.1423   -45076.553    593.80365   0.99839403 
   48000    293.61009    217.49412    138168.83   -41074.929    4032.0275   -45106.957    595.17564   0.99766722 
   48100    290.18767     11.76726    138019.38   -41079.726    3985.0289   -45064.755     596.0679   0.99874758 
   48200    290.79778   -169.60953    138139.98   -41077.438    3993.4073   -45070.846    597.96711   0.99787562 
   48300    291.11229   -219.51104    137712.42   -41061.801    3997.7262   -45059.528    597.47767    1.0009737 
   48400    295.86605   -93.326193    137569.33   -41003.482    4063.0077   -45066.489    598.30819    1.0020149 
   48500    288.31408   -128.69167    137551.18   -41082.452    3959.2996   -45041.751    599.40177    1.0021471 
   48600    293.41202   -41.920946    137397.04    -41055.02    4029.3075   -45084.327    599.55847    1.0032714 
   48700    287.13299     87.01453    137630.68   -41128.893    3943.0801   -45071.973    600.84146    1.0015683 
   48800     293.3887    51.870348    137811.76   -41097.715    4028.9873   -45126.702    602.01858    1.0002522 
   48900    295.29086    64.013751    138135.28   -41040.383    4055.1088   -45095.491    603.04703   0.99790956 
   49000     289.3104   -134.59574    137932.49   -41060.641    3972.9816   -45033.623    603.89904   0.99937668 
   49100    289.38275   -81.991431    137835.32   -41150.129    3973.9753   -45124.104    604.59884    1.0000813 
   49200     288.6542    119.38334    137419.91   -41209.299    3963.9704    -45173.27    604.62242    1.0031044 
   49300    293.10189   -12.789322    137746.31   -41142.252    4025.0487   -45167.301    607.03957    1.0007275 
   49400    287.84465    168.66313    137901.87   -41105.538    3952.8531   -45058.391    608.58702   0.99959858 
   49500    293.67888     165.9876    137856.52   -41064.281    4032.9723   -45097.253    609.45209   0.99992743 
   49600    290.59224      222.959    138107.69   -41098.429    3990.5847   -45089.014    611.67577   0.99810895 
   49700    292.66089    32.218823    138183.92   -41037.345    4018.9926   -45056.338    612.99389   0.99755831 
   49800    291.16736    4.9194699     138152.5   -40996.207    3998.4825    -44994.69    613.60544   0.99778517 
   49900    293.92387   -96.875774    137928.25   -41041.788    4036.3366   -45078.125    614.11869   0.99940739 
   50000    290.20477   -112.86673    137981.57    -41088.31    3985.2637   -45073.574     615.6016    0.9990212 
   50100    292.77731    255.58373    137779.64   -41069.461    4020.5914   -45090.052    616.66564    1.0004854 
   50200    292.32687   -391.84895    137909.06     -41072.6    4014.4056   -45087.006    619.13399   0.99954651 
   50300    292.57403   -81.206613    137737.56   -41017.464    4017.7997   -45035.264    620.38597    1.0007911 
   50400    292.09414    69.746578    137862.62   -41092.679    4011.2096   -45103.888    622.20966    0.9998832 
   50500    294.12115   -216.93009    138094.54   -41118.825    4039.0457    -45157.87      624.633   0.99820394 
   50600    293.83443   -65.700936    138136.41   -41095.974    4035.1083   -45131.082     624.6996   0.99790142 
   50700    292.68929    144.94961     138194.2   -41003.202    4019.3825   -45022.584    626.05004   0.99748407 
   50800    296.86282    39.110955    138112.02   -40990.729    4076.6959   -45067.424    626.94856   0.99807764 
   50900    295.25481   -139.72148    138182.13    -41034.88    4054.6139   -45089.493    628.76574    0.9975712 
   51000    290.14795   -437.44267    137602.57   -41101.245    3984.4834   -45085.729    628.09564    1.0017728 
   51100    295.39019    105.33076    137564.04   -41016.861    4056.4729   -45073.334    629.94393    1.0020534 
   51200    303.17454    102.66064    137658.41   -40886.319    4163.3722   -45049.691    631.37448    1.0013664 
   51300    296.26426   -57.638689    137921.34   -40951.031    4068.4762   -45019.507    632.49951   0.99945748 
   51400    289.66459   -23.514663    138187.14   -41120.729    3977.8456   -45098.575    633.70832   0.99753508 
   51500    290.10659   -136.22217    138206.29    -41101.51    3983.9155   -45085.425    634.11782   0.99739687 
   51600    293.25286    390.40129    138364.54    -41033.65    4027.1218   -45060.772    635.58303   0.99625607 
   51700    290.86638   -99.117956    138172.36   -41070.071    3994.3493    -45064.42     637.2018   0.99764173 
   51800    292.08323      38.6238    138113.04   -41071.165    4011.0598   -45082.225    638.61624   0.99807028 
   51900      284.011    215.58811    138264.74   -41153.181    3900.2072   -45053.389    640.12552   0.99697518 
   52000    292.98003      203.811    138414.78   -41053.813    4023.3752   -45077.188    642.17815   0.99589452 
   52100    290.65829    25.036473    138499.84   -41107.353    3991.4916   -45098.845    644.12866   0.99528287 
   52200    289.10611    26.097325    138496.92   -41136.942    3970.1763   -45107.118    646.07693   0.99530381 
   52300     291.7472   -126.43506    138253.61   -41080.849    4006.4452   -45087.294    647.05417   0.99705545 
   52400    294.10056   -42.725459    138236.22   -40995.957     4038.763    -45034.72    648.81247   0.99718086 
   52500    290.23304    42.881163    138148.89   -41006.103    3985.6519   -44991.755    649.40455   0.99781126 
   52600     292.6332   -70.884999    138078.39   -41107.461    4018.6123   -45126.074    650.63131   0.99832072 
   52700    295.43868   -55.864202    138296.83   -41110.888    4057.1388   -45168.027    652.91834   0.99674388 
   52800    287.14999    173.42937    137993.79   -41156.359    3943.3136   -45099.673    653.69683   0.99893278 
   52900    285.87016   -208.62017    138173.94   -41204.146    3925.7382   -45129.885    655.69004   0.99763032 
   53000    290.00708    176.65246    137984.43   -41277.007    3982.5488   -45259.556     656.0132   0.99900051 
   53100    283.51536   -281.88612    138112.45   -41288.025    3893.4008   -45181.425    657.86566   0.99807449 
   53200    288.26337   -6.4571137    138310.69   -41104.751    3958.6032   -45063.354    659.86525   0.99664397 
   53300     290.6389    107.52541    138258.27    -41063.22    3991.2254   -45054.446    660.44735   0.99702186 
   53400     296.1468    301.11451    138361.33   -40946.835    4066.8631   -45013.699    661.55083   0.99627923 
   53500    294.02495    -22.30809    137958.73   -40964.138    4037.7246   -45001.863    661.05898   0.99918662 
   53600    296.82728     113.3538    138096.16   -40966.638    4076.2079   -45042.846     662.6229   0.99819226 
   53700    292.41136    234.86868    137921.76   -41071.848    4015.5659   -45087.414    662.88589   0.99945442 
   53800    292.24865    37.224901    138277.86   -41104.599    4013.3314    -45117.93    665.04119   0.99688059 
   53900     291.5726   -230.10242    138023.72   -41137.912    4004.0475   -45141.959    665.49879   0.99871615 
   54000    294.27803   -122.60534     137887.5   -41065.798    4041.2002   -45106.998     667.6161    0.9997028 
   54100     294.9534    76.090515    137909.09   -41061.552    4050.4747   -45112.027    670.50628   0.99954628 
   54200     287.4436   -230.19544       137694    -41132.78    3947.3457   -45080.125    671.99895    1.0011077 
   54300    291.65308    265.97089    137599.32   -41000.984    4005.1528   -45006.137    673.50558    1.0017965 
   54400    287.66336    253.61081    137923.72    -41121.38    3950.3635   -45071.744     675.3507   0.99944027 
   54500    292.23593    24.073836    138067.56   -41096.938    4013.1567   -45110.095    677.07149   0.99839902 
   54600    290.12858    234.77943    138183.05   -41084.353    3984.2173    -45068.57    678.88384   0.99756455 
   54700    292.63901   -84.447434    138063.37   -41058.653    4018.6921   -45077.345    680.63694   0.99842929 
   54800    292.56977    43.249841    137990.42   -41072.165    4017.7412   -45089.906     681.4893   0.99895712 
   54900    295.81279   -35.442256    138169.21   -40990.172    4062.2763   -45052.448    683.91795   0.99766447 
   55000    296.85195   -93.195825    138307.91    -40936.01    4076.5467   -45012.557    685.41601   0.99666404 
   55100    288.90234    5.1556772    138227.94   -40968.684    3967.3779   -44936.062    686.69607   0.99724059 
   55200    294.55466   -294.70295    137921.08   -41004.472    4044.9989   -45049.471    686.76799   0.99945937 
   55300     294.6161    102.93566    137981.52   -41015.127    4045.8426    -45060.97    688.63669    0.9990216 
   55400    296.07079   -123.68591    137991.31   -41020.152    4065.8194   -45085.971     689.4663   0.99895067 
   55500    291.10894    1.7700907    137978.47   -41014.374    3997.6802   -45012.054    691.25187   0.99904364 
   55600    294.76541     73.35022    137796.27   -40960.748     4047.893   -45008.641    691.78931    1.0003646 
   55700    293.34839    67.260676     137584.7   -41023.573    4028.4337   -45052.007    693.48808    1.0019029 
   55800    288.08495    162.52244    137729.74   -41151.384     3956.153   -45107.537    695.61563    1.0008479 
   55900    289.95875    243.18331    137784.31   -41151.824    3981.8851   -45133.709    697.18366    1.0004515 
   56000     286.8053    83.381139    138136.72   -41144.887    3938.5802   -45083.467     699.0641   0.99789916 
   56100    286.24099   -69.789263    138064.33   -41135.371    3930.8306   -45066.202    699.92248    0.9984224 
   56200    296.98006   -134.53274    137924.26   -41041.412    4078.3059   -45119.717     700.4103   0.99943634 
   56300    298.41314   -181.70135    137943.95   -40949.466    4097.9858   -45047.452    701.32988   0.99929367 
   56400    297.08801    -85.97893    137827.06   -40855.857    4079.7884   -44935.646    702.45866    1.0001412 
   56500    298.52315    91.968032    138221.46   -40992.931    4099.4966   -45092.428     704.4729   0.99728737 
   56600    296.15064    65.619787    138274.22   -40965.384    4066.9159     -45032.3    706.10134   0.99690681 
   56700    296.33853    143.59433     138244.5   -40994.378    4069.4961   -45063.874    706.40441   0.99712117 
   56800    295.88648    141.13691    138136.87   -40935.869    4063.2883   -44999.157    707.68118    0.9978981 
   56900    294.83535   -102.12966    138236.99   -40985.022    4048.8536   -45033.876    710.44908   0.99717533 
   57000    294.90365   -42.089667     138090.8   -41055.101    4049.7914   -45104.892    710.95347   0.99823102 
   57100    292.13488    -213.8536     138104.4   -41197.428    4011.7692   -45209.197    712.24918   0.99813273 
   57200     285.3854   -127.69221    138015.97   -41236.487    3919.0813   -45155.568    713.56012   0.99877219 
   57300     289.7167   -191.64654    137791.08   -41190.479    3978.5612    -45169.04    714.06958    1.0004023 
   57400    290.17324    75.134233       138026   -41159.583    3984.8306   -45144.413    716.08886   0.99869965 
   57500    288.83803   -148.74442    138025.84   -41079.367    3966.4948   -45045.862     716.6696   0.99870078 
   57600    287.46513    21.358662    137666.59   -41197.762    3947.6413   -45145.403    716.88484     1.001307 
   57700    293.11885   -87.501444    137898.51   -41060.303    4025.2816   -45085.584    718.03862   0.99962295 
   57800    294.60105   -50.078058    137684.74   -41036.446    4045.6359   -45082.082    718.58619     1.001175 
   57900    294.23805    41.325181    137784.93   -41088.371     4040.651   -45129.022     719.4217     1.000447 
   58000    289.96115   -159.65349    137495.79   -41089.907    3981.9181   -45071.825    718.78028    1.0025508 
   58100    291.68793    280.55667    137877.24   -41014.322    4005.6313   -45019.953    722.67588   0.99977718 
   58200    290.07054    51.869098    138176.26   -41101.533    3983.4203   -45084.953    725.93258   0.99761361 
   58300     294.9092   -69.719602    138384.28   -41074.422    4049.8677    -45124.29    727.31611   0.99611402 
   58400    297.06434   -137.05551    138405.76    -41061.57    4079.4634   -45141.034    728.71747    0.9959594 
   58500    299.93333    421.39423    138542.69   -40956.775    4118.8621   -45075.637    730.99747     0.994975 
   58600    292.52857   -47.219429     138661.6   -41061.193    4017.1754   -45078.369    732.20661   0.99412177 
   58700    288.95322    120.51825    138508.71   -41045.778    3968.0766   -45013.855    733.36087    0.9952191 
   58800    292.40548    34.409369    138302.05   -41032.036    4015.4851   -45047.522    734.25182   0.99670625 
   58900    292.91729    17.444764    138447.69   -41000.359    4022.5135   -45022.873    736.39404   0.99565773 
   59000    288.21617    164.49862    138438.97   -41080.149    3957.9551   -45038.104    738.48528    0.9957205 
   59100    294.88622   -134.54282    138502.93   -41086.219    4049.5522   -45135.771    740.74838   0.99526065 
   59200    288.85204    -160.2694    138364.23   -41094.068    3966.6871   -45060.755    741.12198   0.99625835 
   59300    289.04441    93.370199    138148.69   -41069.864    3969.3289   -45039.192    741.56836    0.9978127 
   59400    297.11786   -261.72459    138360.61   -41074.726    4080.1984   -45154.924    743.64183   0.99628443 
   59500    290.51796    180.88598    138706.36   -41090.609    3989.5646   -45080.174    747.52989   0.99380099 
   59600    293.98626   -133.58638    138371.07   -41005.745    4037.1933   -45042.938    748.55238   0.99620911 
   59700    292.45929    116.74397    138347.62   -41005.031    4016.2241   -45021.255    749.71451   0.99637797 
   59800    292.73447    -82.05082     138112.3   -41035.395     4020.003   -45055.398    750.15344   0.99807558 
   59900    293.86407    25.005108    138213.46   -41032.082    4035.5153   -45067.597    751.27844   0.99734507 
   60000    294.71608    223.91516    138414.71   -41055.985    4047.2157   -45103.201    753.86586   0.99589502 
   60100     287.3667   -328.98217    138358.81   -41127.265    3946.2896   -45073.555    754.51889   0.99629739 
   60200     290.7868   -94.178582    138728.28   -41155.328    3993.2565   -45148.585    756.61608   0.99364392 
   60300    297.01242    67.700701    138830.37    -41060.75    4078.7503     -45139.5    758.36573   0.99291325 
   60400    292.07832   -62.509777    138255.67   -41120.382    4010.9923   -45131.374    757.24954    0.9970406 
   60500    290.32633    -18.60206     137943.1    -41174.52    3986.9331   -45161.453    757.38189   0.99929985 
   60600    290.97804    53.485585    137813.94   -41089.305    3995.8827   -45085.188     757.5083    1.0002364 
   60700    292.82252   -19.618413    138016.38   -41136.169    4021.2121   -45157.381    759.29537   0.99876922 
   60800      294.935   -12.920527    137814.85   -41128.117     4050.222   -45178.339    759.96532    1.0002298 
   60900    290.42152   -77.682621    138078.62   -41046.734    3988.2403   -45034.975    761.40672   0.99831908 
   61000    294.98552     255.4275    138276.03   -41006.325    4050.9158   -45057.241    762.71535   0.99689378 
   61100    296.84532    42.386987    138666.84   -40963.863    4076.4556   -45040.319    763.81104   0.99408418 
   61200    296.34626    57.843713     138413.5   -40954.416    4069.6022   -45024.018    764.05023   0.99590369 
   61300      300.718    113.10969    138537.24   -40940.844    4129.6375   -45070.481    765.60703   0.99501419 
   61400    295.45292   -45.903808     138489.9   -40847.865    4057.3344     -44905.2    767.03985   0.99535428 
   61500    296.00422   -26.179182    138336.73   -40895.239    4064.9052   -44960.144    768.51474   0.99645641 
   61600    289.52272    25.780762    138370.99   -41003.328    3975.8974   -44979.226    770.27265   0.99620964 
   61700    291.98634   -11.671256    138200.89   -41014.344    4009.7293   -45024.074    769.98237   0.99743579 
   61800    295.40462    7.0101697     138322.3   -41003.488    4056.6711   -45060.159    772.37107   0.99656033 
   61900    291.10959    194.74546     138341.9   -40996.225    3997.6891   -44993.914    774.27037   0.99641915 
   62000    293.25797    79.411121    138279.15   -40995.157     4027.192   -45022.349    774.70841   0.99687133 
   62100    294.68708   -103.30739    138214.86   -41009.045    4046.8173   -45055.863    775.20653   0.99733502 
   62200    293.54029   -43.335536    138067.14   -41003.945     4031.069   -45035.014    775.16296   0.99840205 
   62300    292.36935    12.113437    138059.84   -41039.428     4014.989   -45054.417    776.61271   0.99845487 
   62400    293.69335    165.16238    137986.89   -41082.822    4033.1709   -45115.993    777.11613   0.99898268 
   62500     292.5229    69.239923    138146.64   -41058.819    4017.0976   -45075.917    778.40339   0.99782753 
   62600    292.54504    16.366831    138031.57   -40992.614    4017.4016   -45010.015    779.17523   0.99865931 
   62700    290.08094   -18.592839    137971.63   -41039.177    3983.5632    -45022.74    780.23827    0.9990932 
   62800    297.39509     381.9202    138278.26   -41020.831    4084.0054   -45104.836    781.56664   0.99687775 
   62900    290.46358   -294.65939    137894.76   -41036.065    3988.8178   -45024.883    781.77876   0.99965015 
   63000     292.3677   -133.50784    138214.76   -41057.313    4014.9663    -45072.28    784.34264   0.99733575 
   63100    295.66199   -177.34675    138063.07   -41040.662    4060.2054   -45100.867    783.65013    0.9984315 
   63200    292.92766   -298.54534    137953.24   -41037.732     4022.656   -45060.388    785.34873    0.9992264 
   63300    291.15097    236.18461    137919.02   -41092.782    3998.2574   -45091.039    786.59782   0.99947428 
   63400    286.96126     145.3239    138141.97   -41186.103    3940.7219   -45126.825    789.36471   0.99786121 
   63500    293.50593   -34.785935    138377.56   -41045.788    4030.5971   -45076.385    791.65545   0.99616237 
   63600    286.85257   -2.3923826    138050.13   -41002.109    3939.2293   -44941.338    792.54721   0.99852504 
   63700    291.46062    -187.7773    137932.26   -41133.538    4002.5097   -45136.048     793.2088   0.99937839 
   63800    289.76605    -13.45486    138107.39   -41140.432    3979.2389   -45119.671    794.85107   0.99811108 
   63900    290.58852   -208.24324    138061.36   -41108.128    3990.5335   -45098.661    794.86788   0.99844389 
   64000    295.66911    26.254948    137885.86   -41151.052    4060.3032   -45211.355    795.23687   0.99971466 
   64100    290.12163   -129.99368    137880.55   -41136.241     3984.122   -45120.363    797.02165   0.99975314 
   64200     283.0577   -127.25376    138033.59   -41177.202    3887.1159   -45064.318    799.05872    0.9986447 
   64300    290.24371    75.845265    138094.92   -41174.155    3985.7984   -45159.953    800.31049   0.99820122 
   64400    286.48888   -243.62647     138157.7   -41176.068    3934.2348   -45110.303    801.66379   0.99774763 
   64500    286.27983   -89.989311    137690.14   -41189.285     3931.364   -45120.649    799.96481    1.0011357 
   64600    289.76537    200.97726     137826.8   -41128.282    3979.2295   -45107.512    801.29768     1.000143 
   64700    289.78862    314.37878    138112.82   -41079.655    3979.5489   -45059.203    804.06742   0.99807181 
   64800     292.8914   -168.17243    138337.82   -40992.962    4022.1581    -45015.12    806.17001   0.99644853 
   64900    294.36596    6.9796717     138242.1   -40981.519    4042.4077   -45023.927      806.318   0.99713851 
   65000    290.26687    144.01448    138321.22   -41013.762    3986.1164   -44999.878    806.88474   0.99656813 
   65100    289.79484    91.084398    138338.55   -41074.843    3979.6343   -45054.478     808.5185   0.99644328 
   65200    299.15374    51.060113    138392.75   -41041.762    4108.1562   -45149.918     809.5764   0.99605302 
   65300    288.29199    -195.7794    138352.81   -41105.723    3958.9963   -45064.719    810.93518   0.99634057 
   65400    291.25907   -158.35708    138155.39   -41172.745    3999.7419   -45172.487    811.37776   0.99776429 
   65500    293.88488    6.9583674    138096.99   -41054.336    4035.8011   -45090.137    811.95771   0.99818627 
   65600    295.98998    38.084333    138437.42   -40961.959    4064.7096   -45026.669    813.69226   0.99573164 
   65700    294.74838    84.716052     138599.7    -40996.44    4047.6592   -45044.099    813.97978   0.99456575 
   65800     297.3361   -139.13483    138352.87   -41026.519    4083.1953   -45109.714    813.06106    0.9963401 
   65900    297.31671   -105.65178    138221.07   -41072.234     4082.929   -45155.163    814.88196   0.99729019 
   66000    290.83606    162.04528    138388.99   -41148.162    3993.9329   -45142.095    816.72877   0.99608009 
   66100    294.60208   -224.67779    138283.85   -41057.944    4045.6501   -45103.594     816.0458   0.99683742 
   66200    292.75582   -207.83629    138250.42   -41006.612    4020.2962   -45026.908    817.46382   0.99707849 
[...]
   84600    289.42032   -229.08734    138074.93   -41188.495    3974.4911   -45162.986    1051.9285   0.99834575 
   84700    292.09776   -97.308509    138010.77   -41161.689    4011.2593   -45172.948    1051.8239   0.99880984 
   84800    295.82574    6.3801365    138334.19   -41102.785    4062.4541    -45165.24    1053.6607   0.99647465 
   84900    287.67005    -116.6336     138586.7   -41127.791    3950.4553   -45078.246    1055.3536   0.99465906 
   85000    291.88587   -84.362892    138474.35   -41104.649    4008.3495   -45112.999    1055.9642   0.99546604 
   85100    292.49428   -37.259196    138420.49   -41130.415    4016.7046    -45147.12    1057.0699   0.99585342 
   85200    286.80959    217.10558    138585.51   -41076.116     3938.639   -45014.755    1060.0089   0.99466763 
   85300    293.72063    16.736242    138485.64   -41044.087    4033.5456   -45077.632    1060.3161    0.9953849 
   85400    292.55061   -49.727855    138371.28   -41069.947    4017.4782   -45087.425    1060.4384    0.9962076 
   85500    296.33567    1.1519789    138415.86   -41080.572    4069.4569   -45150.029      1061.75    0.9958867 
   85600     289.7456    194.11756    138427.82   -41079.733     3978.958   -45058.691    1064.0454   0.99580071 
   85700    289.11338    -4.450917    138037.83   -41097.314    3970.2761    -45067.59    1063.9281   0.99861407 
   85800    290.38828    201.15065    137975.01   -41021.831    3987.7838   -45009.615    1063.8409   0.99906871 
   85900    288.76431    161.73624    138043.97    -41071.33    3965.4825   -45036.813    1066.5845   0.99856965 
   86000    293.99351    124.44195    137924.96   -41103.103     4037.293   -45140.396     1068.363   0.99943128 
   86100     293.1755   -9.7839543    138086.71   -41051.259    4026.0595   -45077.318    1071.9002   0.99826059 
   86200    293.05791   -33.014459    138038.96   -41096.224    4024.4447   -45120.669    1072.3558   0.99860589 
   86300    289.37041   -43.429501    137983.33   -41107.499    3973.8057   -45081.304    1073.9698   0.99900848 
   86400    284.47141    15.960843    137778.43   -41105.835    3906.5297   -45012.365    1074.6407    1.0004942 
   86500    290.25947     345.8461    137975.65   -40972.296    3986.0148    -44958.31    1076.7228    0.9990641 
   86600    291.72598   -90.648744    137821.14   -40990.092    4006.1539   -44996.246    1077.5178    1.0001842 
   86700     292.5485    266.79215    138073.54   -40994.227    4017.4491   -45011.676    1080.4935   0.99835575 
   86800    297.70998      99.2178    138158.47   -40938.114    4088.3297   -45026.444    1081.2194   0.99774204 
   86900    289.00073   -145.87073    138222.71   -40968.291    3968.7291    -44937.02    1082.6455   0.99727835 
   87000    289.98722   -3.5602098    138194.84   -41020.502    3982.2761   -45002.778    1084.1758   0.99747945 
   87100    296.26831   -92.682775    138256.06   -41020.874    4068.5318   -45089.406    1084.9778   0.99703777 
   87200    290.13778    204.96165    138181.35   -41023.447    3984.3437   -45007.791     1085.865   0.99757685 
   87300    296.74215   -180.84616       138356    -40942.31    4075.0388   -45017.349    1088.3904   0.99631761 
   87400    293.62051    202.46729    138199.06   -41033.509    4032.1706    -45065.68     1089.377   0.99744899 
   87500    293.31583    33.641823     137851.6   -41067.409    4027.9865   -45095.396    1088.2802   0.99996314 
   87600     290.2176    205.57947     137934.8   -41047.235    3985.4399   -45032.675    1091.0371   0.99935998 
   87700    292.67563   -13.551172    138132.68   -41051.194     4019.195   -45070.389     1094.377   0.99792838 
   87800    296.35376   -206.89698    138322.12   -40951.757    4069.7053   -45021.462    1096.4834   0.99656165 
   87900    300.53966   -62.290154    138376.35   -40948.252    4127.1885    -45075.44    1098.1482   0.99617109 
   88000    290.71835   -258.86692    138046.97   -41012.268    3992.3165   -45004.585    1096.5783   0.99854791 
   88100     294.9035    140.13072    137969.37   -41001.137    4049.7894   -45050.927    1096.4884   0.99910953 
   88200    297.11141   -197.89823    137822.77   -40964.366    4080.1097   -45044.476     1096.689    1.0001723 
   88300    296.53597    138.25675    137799.33   -40972.098    4072.2075   -45044.306    1098.2314    1.0003424 
   88400    292.89853   -162.36526    137956.71   -41064.991     4022.256   -45087.247    1099.9573   0.99920123 
   88500    289.70654    97.942084    137819.15    -41082.95    3978.4217   -45061.372    1100.2092    1.0001986 
   88600    290.54752   -42.632941    138259.31   -41070.274    3989.9705   -45060.245    1105.1564   0.99701439 
   88700    293.74564   -46.564556    138252.05   -41028.693     4033.889   -45062.582    1106.1802   0.99706669 
   88800    291.22052   -128.43831    138062.89   -41042.135    3999.2126   -45041.348    1106.8013    0.9984328 
   88900    295.63732    6.5435319    138204.16   -41100.247    4059.8667   -45160.114    1110.0271   0.99741221 
   89000    294.29539   -16.637736    138396.54   -40992.159    4041.4385   -45033.597      1112.42   0.99602577 
   89100    289.24281    34.657104    138311.81   -40978.563    3972.0534   -44950.617    1114.0745   0.99663593 
   89200    289.94258    -161.8987    138231.45   -41096.099    3981.6631   -45077.762    1115.3608   0.99721532 
   89300     293.3428    62.835474    138437.12   -41035.522     4028.357   -45063.879    1116.8302   0.99573377 
   89400    293.02233    66.218416    138480.15   -41034.982    4023.9561   -45058.938    1117.7324   0.99542434 
   89500    285.33388    -250.3162    138470.57   -41109.608    3918.3738   -45027.982    1118.1542   0.99549324 
   89600     292.9496   -239.04894    138456.95   -41017.749    4022.9574   -45040.706    1119.6488   0.99559114 
   89700    287.85459   -100.16598    138264.97   -41082.029    3952.9896   -45035.019    1119.2988   0.99697354 
   89800    289.59872   -77.164481    137981.32   -41044.088     3976.941   -45021.029    1118.7806   0.99902301 
   89900    292.86658   -135.85782     137719.5   -41069.765    4021.8172   -45091.582    1119.2366    1.0009223 
   90000    292.39822    12.667088    137904.71   -41040.246    4015.3854   -45055.631    1121.5897   0.99957804 
   90100    293.89674    158.58548    138122.82   -41017.702     4035.964   -45053.666    1125.0212    0.9979996 
   90200    289.99886   -165.76068     138096.4   -41148.875     3982.436   -45131.311    1126.5328   0.99819049 
   90300    289.58204    -10.55288    137779.43   -41173.306     3976.712   -45150.019    1125.9409    1.0004869 
   90400    293.92664    50.373461    137646.56   -41057.825    4036.3746   -45094.199    1126.2947    1.0014527 
   90500    290.23103    95.597394    137780.04   -41048.417    3985.6242   -45034.042     1127.579    1.0004825 
   90600    292.15346   -167.79058    137833.69   -40989.693    4012.0243   -45001.717     1129.186    1.0000931 
   90700    295.38629     25.48046    137924.37   -41003.975    4056.4194   -45060.395    1132.1492   0.99943555 
   90800    297.75853   -173.43812    137946.78   -41022.538    4088.9963   -45111.535    1133.4092   0.99927316 
   90900    292.21505   -74.959247    137755.46   -41129.635      4012.87   -45142.505    1132.3705     1.000661 
   91000    292.81502   -84.425727    137875.47   -41087.985    4021.1091   -45109.094    1134.1473   0.99979002 
   91100    290.62171     40.83363    138308.98   -41059.805    3990.9893   -45050.795    1136.7208   0.99665631 
   91200    292.27964    58.583044    138209.19   -41064.562    4013.7571   -45078.319    1139.2497   0.99737594 
   91300    287.14257   -154.99352     138410.9   -41112.401    3943.2117   -45055.613    1141.9972   0.99592238 
   91400    291.21451    215.49637    138109.21   -41088.249      3999.13   -45087.379    1141.6705   0.99809795 
   91500    293.11246    -157.4114    138137.13   -41075.389    4025.1939   -45100.583    1142.5557   0.99789621 
   91600    290.85646    30.806739    138282.33   -41083.069    3994.2131   -45077.282    1145.8646   0.99684835 
   91700    286.72591    26.287906    137914.79   -41213.066    3937.4899   -45150.556     1144.235   0.99950497 
   91800    281.44391   -234.51235    137858.79    -41180.16    3864.9544   -45045.115    1145.7837   0.99991099 
   91900    286.65277    219.15758    137759.71   -41098.718    3936.4856   -45035.203    1146.4764    1.0006301 
   92000    290.32284    72.806439    138138.18   -41046.069    3986.8851   -45032.955    1150.2809   0.99788862 
   92100    292.79304   -46.930895    138091.28   -40969.068    4020.8074   -44989.875    1150.6923   0.99822753 
   92200    294.23109    20.826114    138314.33   -40950.787    4040.5555   -44991.343    1154.1418   0.99661774 
   92300    293.12097    114.55518    138567.74   -40972.028    4025.3107   -44997.338    1156.2014   0.99479514 
   92400    287.86737   -44.014019    138466.52   -40975.886    3953.1651   -44929.051    1155.8895   0.99552235 
   92500    300.87174    94.862676    138472.83   -40969.557    4131.7488   -45101.306    1157.9112     0.995477 
   92600     296.4934    23.034146    138326.52   -40955.113    4071.6229   -45026.736     1158.237   0.99652993 
   92700     292.3618    92.336765    138212.94   -41071.977    4014.8853   -45086.863    1158.0734   0.99734888 
   92800    292.72069   -301.19002    138142.76   -41044.593    4019.8137   -45064.407    1159.3281   0.99785555 
   92900    297.59553    158.39574    138150.59    -41025.84     4086.758   -45112.598    1160.6394   0.99779897 
   93000    292.67888    32.006668     138207.5   -41019.416    4019.2396   -45038.655    1161.7969   0.99738808 
   93100    293.60163   -80.685856    137962.15   -41023.614    4031.9113   -45055.525    1161.0118   0.99916183 
   93200    295.87934   -66.882101    137785.46   -40962.381    4063.1902   -45025.571    1160.6811    1.0004431 
   93300    291.36186    55.620802    137929.83   -40911.216    4001.1536    -44912.37    1162.5632   0.99939597 
   93400    293.82418    286.30998    137938.74   -41005.267    4034.9675   -45040.234    1164.5574    0.9993314 
   93500    292.16895   -118.46547    137815.01   -41003.895     4012.237   -45016.132     1165.771    1.0002286 
   93600    291.13558    114.59873    137891.77   -41070.192    3998.0461   -45068.238    1168.6794   0.99967183 
   93700    288.73515   -97.285483    137720.09   -41051.044    3965.0819   -45016.126     1169.618     1.000918 
   93800    295.00515    422.71092     137773.2   -40937.217    4051.1853   -44988.403       1171.9    1.0005322 
   93900    292.43972    64.321805    137807.31   -40992.573    4015.9553   -45008.529    1174.9759    1.0002845 
   94000    295.14585    84.241169    137949.75   -41107.389    4053.1175   -45160.506    1177.5341   0.99925169 
   94100    293.47312   -101.65212    137757.17   -41102.253    4030.1466   -45132.399    1178.0699    1.0006486 
   94200    288.75226    141.14424    137935.87   -41114.047    3965.3169   -45079.364    1182.6372   0.99935219 
   94300    294.79502    293.60193     137971.8    -41062.58    4048.2997    -45110.88    1184.7338   0.99909195 
   94400    290.31216    64.475478    138158.09   -41115.614    3986.7384   -45102.352    1187.3336    0.9977448 
   94500    288.66853    157.05586    138181.42   -41171.704    3964.1671   -45135.871    1189.2936   0.99757632 
   94600    286.89698    185.67526    138308.42   -41221.392    3939.8392   -45161.231     1191.085   0.99666037 
   94700    295.20467    137.61883    138616.12     -41070.2    4053.9253   -45124.125    1195.1096   0.99444795 
   94800    291.70697   -129.85151    138248.42    -41036.65    4005.8928   -45042.543    1194.6097   0.99709287 
   94900    291.81172   -3.3566235    137921.96   -41076.987    4007.3312   -45084.318    1194.8637   0.99945302 
   95000    289.33965    102.85062    137824.36    -41064.83    3973.3834   -45038.213    1195.8359    1.0001608 
   95100    296.72289    63.838034    137715.65    -40947.73    4074.7743   -45022.505    1195.9043    1.0009503 
   95200    295.40847    71.494031    137825.32     -41041.3     4056.724   -45098.024    1198.6447    1.0001538 
   95300    289.47809    97.256965     137848.6   -41018.055    3975.2845    -44993.34    1199.5927   0.99998486 
   95400    293.18236    125.39731    137916.68   -41010.944    4026.1537   -45037.098    1201.2217   0.99949123 
   95500    290.57518    78.071758    137997.16   -41066.885    3990.3504   -45057.235    1203.3318   0.99890833 
   95600    291.45422   -49.580413    138038.36   -41096.322    4002.4219   -45098.744     1203.647   0.99861024 
   95700    293.93029   -93.155407     138108.9    -41044.95    4036.4247   -45081.375    1204.6485   0.99810018 
   95800    290.40817    199.43404     137889.1   -41069.208    3988.0568   -45057.265    1205.0018   0.99969118 
   95900    296.77805   -129.26211     138278.2   -41010.238    4075.5318    -45085.77    1207.7632   0.99687818 
   96000    293.39047    96.831963    137959.77   -41003.015    4029.0117   -45032.027    1206.4824    0.9991791 
   96100    296.51828   -153.53571    138105.34   -40985.879    4071.9645   -45057.844     1208.005   0.99812588 
   96200     293.7581    225.38422    138448.42   -41006.075    4034.0601   -45040.135    1211.4805    0.9956525 
   96300    294.30734    25.549224    138272.36   -41042.695    4041.6027   -45084.298    1212.6677   0.99692027 
   96400     296.8433    98.825432     138663.6   -41022.265    4076.4279   -45098.693    1216.5057   0.99410741 
   96500    286.23604    26.809712    138681.53    -41010.55    3930.7627   -44941.312    1216.9513   0.99397892 
   96600    293.15596   -123.16065    138574.03   -40941.147    4025.7912   -44966.938    1217.1397   0.99474997 
   96700    299.12194   -2.9875331    138457.05   -40888.223    4107.7195   -44995.942    1217.2709   0.99559043 
   96800    298.64877   -57.906554    138816.19   -40878.171    4101.2217   -44979.392    1222.6564   0.99301467 
   96900    297.89068    52.068083    138741.88    -40973.61    4090.8112   -45064.421    1223.9285   0.99354655 
   97000    293.27956   -48.121746    138732.78   -40976.377    4027.4884   -45003.866    1224.4331   0.99361172 
   97100    296.58561    157.92926    138548.29   -41024.347    4072.8891   -45097.236    1225.1526   0.99493479 
   97200    293.31685    221.94705    138270.04   -41016.282    4028.0006   -45044.282    1224.1405   0.99693695 
   97300    291.14023   -211.83681    138088.69   -41065.952      3998.11   -45064.062    1224.1787   0.99824628 
   97400    297.34276    313.37237    138382.32   -41042.837    4083.2868   -45126.124    1226.6306   0.99612807 
   97500    294.81506   -175.01078    138635.53   -41020.323    4048.5749   -45068.898    1227.8653   0.99430871 
   97600    294.44792    123.58407     138849.9   -41065.996    4043.5331   -45109.529    1229.3542   0.99277358 
   97700     294.9914   -6.1618012    138755.84    -41040.91    4050.9965   -45091.907    1230.1248    0.9934466 
   97800    291.67634   -85.372034    138370.96   -41038.808    4005.4722    -45044.28    1229.5805   0.99620987 
   97900    297.71098   -73.742239    138099.12   -40942.053    4088.3435   -45030.397    1228.4412   0.99817087 
   98000    295.13807     275.8844    138304.37   -40932.466    4053.0106   -44985.477    1231.0815   0.99668953 
   98100    294.05402   -37.826852    138352.33   -40981.451    4038.1238   -45019.575    1233.1178   0.99634405 
   98200    296.89257   -421.90098    138160.88    -40928.68    4077.1045   -45005.784    1231.3013   0.99772465 
   98300    298.40206   -364.35432    137908.13   -40882.564    4097.8337   -44980.398     1230.604   0.99955323 
   98400    292.10784     66.93072    137640.94   -40958.782    4011.3978    -44970.18    1229.6409    1.0014936 
   98500    291.07997    493.78753    137928.08   -40937.602    3997.2824   -44934.884    1232.8681   0.99940862 
   98600    295.77081   -135.98482    137769.57   -40991.755    4061.6999   -45053.455    1231.9435    1.0005585 
   98700    293.08597    105.11527    137845.22   -40985.095      4024.83   -45009.925    1234.3036    1.0000094 
   98800    292.60275    126.95221    137973.41    -41029.88    4018.1942   -45048.074    1235.7812   0.99908028 
   98900    294.15652     257.3652    137714.83   -40937.013    4039.5315   -44976.544    1233.5335    1.0009562 
   99000     297.7535    82.396545    138199.39   -40910.125    4088.9273   -44999.053     1236.808   0.99744667 
   99100    290.39546    225.32485    138063.66   -40977.409    3987.8824   -44965.292     1235.847   0.99842721 
   99200    292.15887    246.19706    137865.54   -40963.594    4012.0985   -44975.693    1234.5829   0.99986204 
   99300    291.57411    204.52823    138252.15   -40961.236    4004.0682   -44965.305     1238.753     0.997066 
   99400    296.23411    33.111592    138525.45   -40971.942    4068.0621   -45040.004    1242.7196   0.99509888 
   99500    294.38828    82.862008    138546.07   -40990.119    4042.7141   -45032.833    1245.2429   0.99495072 
   99600    289.38647   -37.212812    138581.61   -41075.024    3974.0264    -45049.05    1245.7733   0.99469558 
   99700    290.65139   -50.250261    138272.39   -41024.853    3991.3969    -45016.25    1244.4091   0.99692008 
   99800    291.28854   -27.839442    138102.34   -41032.756    4000.1467   -45032.903     1244.217   0.99814756 
   99900    297.44339   -218.11094    138097.88   -40975.742    4084.6686   -45060.411    1245.3988   0.99817983 
  100000     299.4331     114.3493     138284.1   -41014.721    4111.9926   -45126.714    1247.6022    0.9968356 
  100100    296.32787   -160.64008    138370.83   -41054.141    4069.3497   -45123.491    1249.7128   0.99621083 
  100200    294.89412    100.87758    138048.47    -41038.14    4049.6606   -45087.801     1248.251   0.99853707 
  100300    292.61442   -12.752377    138189.25   -41091.298    4018.3544   -45109.653    1251.4927   0.99751986 
  100400     298.4183   -42.709707    138274.23   -41082.345    4098.0567   -45180.401    1253.7195   0.99690678 
  100500    292.62258   -193.63475    138134.19   -41123.031    4018.4665   -45141.498    1253.1989   0.99791745 
  100600    292.18211    225.42243    137779.42   -41106.309    4012.4177   -45118.727    1253.2048     1.000487 
  100651    289.84045   -55.267231    137947.38   -41071.867    3980.2606   -45052.128    1255.8493   0.99926883 
Loop time of 123.36 on 6 procs for 100000 steps with 4608 atoms

Performance: 350.194 ns/day, 0.069 hours/ns, 810.635 timesteps/s
99.0% CPU use with 6 MPI tasks x no OpenMP threads

MPI task timing breakdown:
Section |  min time  |  avg time  |  max time  |%varavg| %total
---------------------------------------------------------------
Pair    | 103.32     | 104.48     | 105.91     |  10.0 | 84.69
Neigh   | 7.1872     | 7.2727     | 7.545      |   4.6 |  5.90
Comm    | 7.314      | 8.7955     | 10.024     |  34.8 |  7.13
Output  | 0.17972    | 0.18093    | 0.18652    |   0.6 |  0.15
Modify  | 1.9007     | 1.9794     | 2.0657     |   3.6 |  1.60
Other   |            | 0.6555     |            |       |  0.53

Nlocal:        768.000 ave         783 max         758 min
Histogram: 1 0 2 0 2 0 0 0 0 1
Nghost:        1576.17 ave        1582 max        1564 min
Histogram: 1 0 1 0 0 0 0 0 1 3
Neighs:        0.00000 ave           0 max           0 min
Histogram: 6 0 0 0 0 0 0 0 0 0
FullNghs:      22282.0 ave       22875 max       21771 min
Histogram: 1 0 1 0 1 1 1 0 0 1

Total # of neighbors = 133692
Ave neighs/atom = 29.013021
Neighbor list builds = 7075
Dangerous builds = 0

undump              1
unfix               2
unfix               3
unfix               4


################################################
#######         Run Simulation         #########
################################################

reset_timestep      0
log                 log.run_${NAME}
log                 log.run_liq_293K_1atm_ML
