LAMMPS data file via write_data, version 29 Oct 2020, timestep = 200000

4608 atoms
1 atom types

0.0009022272067653603 53.39909777279178 xlo xhi
0.024979886750735147 50.88214011324798 ylo yhi
0.024979886750735147 50.88214011324798 zlo zhi

Masses

1 18.015

Atoms # atomic

4276 1 11.036890803915178 6.422657451378789 1.2865438263241167 1 0 1
1537 1 2.2435792169795423 0.2247127692894192 1.9237347955165378 1 0 1
1021 1 0.04159503033248768 25.129570866151457 5.461338421391868 1 0 1
2183 1 10.692073914163622 0.5704733123599907 5.663518804817284 0 0 0
2716 1 0.632857333551448 5.001769098121046 17.308669634521124 1 0 1
989 1 15.887061873236146 2.4761761724622047 0.5832747413285649 -1 0 1
1126 1 17.574032198872885 12.537059122789326 0.41037867032402986 0 0 2
2464 1 2.1352687521151053 14.934706236885637 11.7780145322354 0 0 1
3235 1 1.7797738142503845 1.7597519100057952 5.537199726406022 1 -1 1
2757 1 5.5586540653078576 4.073436883452679 4.0812042543551765 0 0 0
4119 1 2.77374680113156 37.91480737076908 8.528589511352797 1 0 2
3199 1 13.805146323139226 5.790622453153391 0.8698228122114982 1 0 1
4348 1 7.072294699918158 12.838675578983253 22.901136711271025 1 1 0
4007 1 0.4756018985987507 48.25635632553238 12.80623732566831 1 -1 1
2350 1 0.1678465866057495 25.68410185168713 0.34412324753048906 0 0 1
545 1 11.554921701106156 26.101948767731585 1.613609105725013 -1 0 0
4108 1 2.4518432164436805 2.6746678780499633 2.9417047064762625 0 1 1
1973 1 3.2859462365700978 14.704431426639799 1.608312799655212 0 0 1
4135 1 1.7794849961544794 1.2814074157742932 17.483766947899728 1 0 0
2074 1 5.717701341934945 12.171329584005857 2.1403485530800492 -1 1 -1
493 1 13.047131906462349 15.7777168636351 1.214885050600975 0 0 0
1094 1 2.201795002158867 8.130381734785628 22.850052146837466 0 -1 1
1173 1 0.8019398657466891 11.166409790064554 2.6058672985577527 -1 1 0
813 1 16.630417018037978 8.929716008728297 17.001074371173623 0 0 -1
755 1 11.935995812209578 12.931293888934734 22.797206670657967 -1 0 0
2054 1 5.090538539381071 17.02640708682584 1.5129600990202505 1 1 0
3552 1 12.298856830815113 18.41032411056167 1.1179753556580194 0 0 0
969 1 1.0452567452981587 12.979657296167874 23.708070252628165 0 1 1
3959 1 0.11283825401373769 35.62385558153294 4.341387041576233 1 0 2
4558 1 4.835313628701551 30.13085539997273 5.246094144702305 1 -1 1
3747 1 2.5369478236429917 19.749868780799776 1.6939750286810986 0 0 1
2725 1 9.665665296414964 18.899830034377974 0.877934342165483 1 0 0
430 1 9.743742414392962 17.12328184892881 5.224797801205725 0 0 0
4419 1 0.5533508992528101 46.9002477659649 21.96861070695071 0 -1 -1
859 1 4.968254486314691 40.666483514733166 22.502983521419477 0 -1 0
756 1 12.507054423898692 19.790522190303882 3.3388227070944354 1 1 -1
823 1 17.067799077279346 34.543208343493944 25.122310562684184 0 1 0
4120 1 1.01148406873842 48.261673946540675 0.903145537835763 2 -1 1
2273 1 14.194770444000017 21.900843554662604 3.1726957216175027 0 0 -1
4548 1 2.8165576438769016 20.328948489554524 5.277298327629016 1 1 1
765 1 17.094942707275546 23.453825112826397 6.165796291328864 0 0 1
3223 1 5.114796640320958 20.965104967743336 1.7935665858637935 0 0 0
3817 1 6.713369284627612 4.349732955233252 1.5278600796967667 0 0 1
220 1 9.266623704285777 24.04697727125817 2.4503879373668727 1 -1 0
81 1 9.452744120444907 23.007239828289038 5.031150694752375 0 0 2
1905 1 17.098315161450422 9.960500083510244 2.3834292159425448 0 0 1
399 1 15.475821895966183 42.840759712786905 1.1326111113179176 1 -2 2
2823 1 0.15507126364858848 44.503043462440345 10.398261825769469 0 0 1
3823 1 5.569342573937727 23.562700859106837 3.203834579508903 1 -1 0
3139 1 3.039663438190145 26.890342853548514 4.767595229314153 1 0 1
2469 1 14.500302700301615 39.98114194891366 0.3209614903821023 0 0 1
305 1 6.741800262770611 25.736348387020545 1.5347533916626441 -1 -1 1
2258 1 14.974484691905111 24.48482041809116 18.589995287919077 1 0 0
30 1 3.5521048950490686 29.00249297751763 1.2785603973161608 2 1 0
1745 1 9.558195674029246 29.530737683551934 1.494792432913993 1 -1 1
3138 1 5.201539358002458 27.777848928936155 3.3404099574920987 2 -1 1
2983 1 1.266999414359687 27.588684885797367 6.862762791186241 0 1 1
879 1 13.63620158592909 29.571959561425412 4.485495271091605 1 -1 1
910 1 1.830432395764198 30.71561894811467 13.134121403749948 0 -1 2
2025 1 16.102049427934553 29.496853667019593 1.6262360633752548 0 0 1
2568 1 5.7497917841153665 7.101067698514383 0.5508521370433708 0 0 0
655 1 3.016317949242054 32.33826677105374 2.548610237099949 0 0 1
4561 1 7.566586411205399 29.72278432538696 5.72585869147904 1 0 1
2820 1 17.27484000750365 22.81929250197786 24.72525052496656 1 -1 0
754 1 8.958332320571909 32.56519936465665 3.8965111121765665 0 1 1
4066 1 9.665277480504349 32.52414955255574 1.1449177242952862 1 0 0
2762 1 1.410793026492972 28.068740989864025 17.0099901794896 1 0 1
1953 1 15.957949263766237 32.54512189654932 2.468826837647482 1 0 0
4083 1 14.163116082622635 49.660142904679006 21.825127609171115 2 0 0
1848 1 17.79806219628478 16.16254186897492 24.42095412174522 0 0 0
2490 1 8.050753704647303 35.198039796728104 3.601579764855321 0 0 1
3323 1 15.231202723363488 37.080926848646214 1.59464766534714 0 0 -1
411 1 6.443526111168225 27.33473834271522 25.34973945263119 0 -1 0
2624 1 17.20493417103319 38.77648630740614 1.9787987174496746 1 1 0
1803 1 10.203407020935526 36.8311890161368 4.345876323386462 1 0 0
69 1 13.663786070907637 41.101733375056234 4.441163697811539 0 -1 1
4431 1 14.646047277486804 43.38023585367864 3.6713046408930214 1 0 2
4591 1 0.4736112313045633 32.94992947279977 13.835155726549509 1 0 -1
3451 1 12.981649009053365 20.788166451211612 24.140971467169884 0 0 0
1138 1 1.1500355588938413 28.71267010369682 2.8391539992723773 1 0 1
2821 1 9.562829200471647 39.364604993119876 4.584675447793104 -1 -2 1
1200 1 0.5754273374236287 12.73429941797924 11.291343474936594 1 2 0
1039 1 0.718545229550616 37.67469938110062 0.8821227632244487 0 0 0
3834 1 11.18505020873443 41.04371843171666 2.9461703703541557 0 0 1
2850 1 5.663647180279737 1.0792945515284833 25.214108278938095 1 2 -1
4545 1 0.36551932376752305 25.692605903199684 24.0928190678259 0 1 0
1427 1 2.4571198827845855 22.107794310040624 17.662872857049578 1 0 1
605 1 4.210220308779959 48.48313737541596 0.39803354913818145 0 -1 0
762 1 4.559943479244007 0.691906021182932 0.7539422484267109 1 -1 0
228 1 0.6224222200813324 15.84914025676725 24.850062532482863 1 -1 0
483 1 1.3713287279635653 47.30659222147329 3.830972190352713 0 0 0
4226 1 2.566779049883159 40.50008741387929 5.799061573348983 0 -1 1
3245 1 1.4187282388531732 44.46000725889612 16.383618389757988 0 0 0
356 1 14.814312011152138 9.990881242695922 0.5884639246691987 0 0 1
4270 1 0.19032919085560712 44.172314649450826 13.75049007782066 1 -1 -1
3604 1 10.088660025731109 21.222588580339817 25.384308681882086 0 0 -1
312 1 4.489707611294875 45.2216967172134 20.41102492846444 0 -1 0
2070 1 3.710432635345435 23.76068092874066 15.204084807415903 0 -1 1
2692 1 0.17409607371570485 33.224834547065036 7.552750229300242 1 0 1
1244 1 6.841550841444768 6.251602321889145 5.6709510047591385 0 1 0
1759 1 9.732385223233528 2.4959537989654925 3.6568164547805275 0 0 1
1182 1 8.835600522344203 5.322782267355141 2.4355904611089016 0 -1 1
1998 1 14.085092409298397 3.373566086610455 4.272671022066418 1 0 0
3628 1 2.7638930648114064 18.825307554812174 23.36011977466028 1 1 0
2637 1 6.8285124024610875 1.1343408045689805 2.572345009033227 2 2 1
463 1 6.56316978598726 8.892455048099011 4.288074489120942 0 0 1
140 1 12.523253432758516 5.747686585172139 5.515875141802586 -1 0 -1
1449 1 13.295264970293822 2.890592944968513 1.7731560393696355 0 2 2
2566 1 16.800419624627644 3.9687207609531745 4.963944230965859 0 1 1
4523 1 4.463848859149034 7.96229651736548 2.9212227612182318 1 1 3
3505 1 7.7339717305065525 10.71303860648332 2.0581059092159517 1 1 1
2974 1 12.386916645323973 8.913278263576471 1.931483172131028 0 1 1
2060 1 9.709721313882127 6.192657504811359 5.157675402795854 1 -1 1
2044 1 14.306979705697941 7.725276616232796 6.312059520818666 0 1 2
4366 1 15.952806439979865 6.056900592225163 2.7242672710393405 0 0 1
3304 1 14.708767917442577 8.376970275831587 3.496808677521678 0 0 0
175 1 8.167387280922009 21.657663406129693 1.041114842147637 0 0 0
4549 1 3.558807361287491 10.580918344315505 3.370781177322442 1 0 1
1396 1 5.360843497857305 9.248556238942545 6.906604115590161 1 0 1
2359 1 8.62869422930453 14.821428080926838 2.7256353537430975 0 0 1
961 1 10.389336219800997 10.105769977909903 3.318846758467101 0 0 0
2150 1 14.431024494039299 12.486210138218414 2.1030544745092747 -1 1 -1
2828 1 15.698833391966037 13.957798385338764 4.126140313957007 0 1 1
3471 1 14.995710717817124 4.895625185958418 11.280124059540807 0 -1 -1
1686 1 6.41098618910928 13.230716337915306 4.62071875655067 0 0 0
4453 1 7.883541164930228 16.675538321674196 0.8091280600086657 1 1 1
2739 1 13.852559660440527 17.99253667411842 4.8895778130510195 1 0 1
1742 1 11.48066898423478 14.660257994103931 3.337878688636983 0 0 -1
1223 1 16.69320685722366 14.224487571128869 6.736861866787254 0 0 0
2876 1 15.122406064115161 16.4379329761603 3.1882843524887114 0 1 1
4173 1 0.18069076880802848 50.496799986110716 9.506196449062205 0 0 0
1238 1 16.884196595359906 48.30437061319452 23.87852777909361 -1 0 1
3065 1 5.739188972216885 18.823264362203545 3.7835965744136506 1 -1 1
2328 1 6.647196391957843 16.46323270683234 8.025889808727062 1 0 0
1827 1 5.7004570779503485 18.88732797452204 6.571948943786328 -1 0 0
741 1 10.243533572250703 18.52385404990417 7.515993065362817 0 1 0
4468 1 10.328181594684986 20.46047876249166 5.121795944182905 1 0 1
2853 1 16.711066183375248 21.954082881886606 8.648740328749268 0 1 0
3416 1 15.877637830116608 29.00474444256822 11.879699039887106 -1 -1 0
2806 1 0.4003567056855746 31.387212828980402 21.770214388444156 0 0 0
3760 1 1.3072004211430988 18.303923435530898 3.898267440851266 2 0 0
2736 1 8.339921989443614 19.242999415704 3.531991746956574 1 0 1
3745 1 10.614832334020276 20.207164085377585 11.869399602277737 1 1 -1
1321 1 11.250315482714795 24.470929158488538 6.3295812940117315 0 1 0
2394 1 13.631886622787357 23.42906013888476 5.524052148439876 0 1 3
3687 1 6.783641181568056 23.467486136289615 5.68156565893413 1 0 0
1599 1 6.563210513510654 21.692242550963137 7.977628416928806 1 2 0
2787 1 2.194887950050606 22.563913854791473 9.01510789958892 0 1 1
2510 1 10.274281688822516 26.24735621244929 8.370212355787759 1 0 0
837 1 9.01650565835549 26.95942953767638 3.0331126457412054 0 2 1
1787 1 16.492036818300797 46.80178719821403 3.0404068720325452 0 0 0
1772 1 1.9040760070401077 22.76978843123896 6.359612314853537 0 -1 0
3296 1 8.001027641401139 32.59940282327299 6.667351447337438 0 1 1
517 1 7.722298898257188 25.519468521402402 9.763903414429121 0 0 1
2829 1 8.724382779543769 27.101287622762978 5.732455688537343 0 0 1
2376 1 14.335462527138548 27.28067368277141 1.402264333461187 1 1 0
998 1 11.596389918129981 29.063813800323718 7.467467166677554 0 0 1
4604 1 2.298126113710891 48.232464632964486 17.856261631224815 1 0 1
1002 1 1.4668310086565668 30.035006359160942 5.503857118214296 0 -1 0
1752 1 6.513364015271139 30.01134121307498 1.3983342306459137 2 0 0
3827 1 3.759338756379319 26.851273764762155 8.026305699698995 1 0 0
682 1 10.642808797795832 33.043349802388256 7.674127850267338 1 0 0
2854 1 7.337912395720731 35.17403899014937 7.608068475819058 0 -1 2
1678 1 12.57198942308212 31.99612772653977 6.178343745914847 1 1 0
2817 1 2.176460853239795 33.024766319172045 5.373839056719288 1 -1 0
3050 1 5.7090980282890715 32.97315115336776 9.26950230564486 2 0 0
1448 1 13.93134701104906 32.79947772610947 10.980012141407597 1 0 1
341 1 11.963463903335455 33.709071138958485 3.9113193228592102 -1 1 0
4250 1 0.47144018452028047 28.8102559184601 14.514854123319669 2 1 1
3018 1 5.680690330976948 35.4824397206679 4.935679255765755 0 1 0
4164 1 4.748225427471527 32.987990387100226 6.3191192692018365 0 0 1
3357 1 11.542368897529137 35.78108319996737 6.690285853450627 0 0 0
3570 1 9.27872910414101 35.970747882608826 9.044788681848889 0 0 0
4072 1 13.2000112596432 32.65069599215822 1.8299990701114461 2 -1 1
3642 1 2.2827131367461573 4.958014572168108 0.6517102729038005 1 1 0
2677 1 6.604504935272205 39.6880698522727 4.015452710671424 0 0 0
3593 1 2.5437454277493043 42.0522104836427 3.336191060600548 0 1 0
3339 1 5.077453092939274 41.35484751011617 2.0592083638922034 1 0 -1
2069 1 9.898387041635672 39.00704252531747 8.775039178845809 0 0 0
4201 1 11.695946919403687 39.80549472168662 6.8489826635332545 1 0 -1
2382 1 14.35103890391278 36.401774127702424 7.796758345779099 1 -1 2
3819 1 9.99539039777515 48.46707572178936 21.713387142996766 1 0 0
1172 1 0.6468099403672877 43.46576708354002 1.5051985191379884 0 -1 1
4069 1 2.629484557882081 45.81859087013528 1.37688699634636 1 0 0
654 1 17.465319331945135 17.753014043083965 8.80630189510027 -1 0 2
1983 1 9.35408894647798 43.09419831827878 2.4967990418464914 -1 0 0
2155 1 10.582615081357538 45.29461765233 3.490423965705267 0 -1 0
3173 1 10.939648325545635 34.63470829845484 23.289919738871255 1 1 0
916 1 13.099144321865772 23.767401864232998 1.4920462752611594 0 0 1
2803 1 3.494310997497694 49.40370847874286 3.481385896050413 0 -1 1
3200 1 6.254249906437979 47.126209923861 2.192937710525657 0 0 0
645 1 17.183871130994795 32.28773593676965 15.760117886462444 1 0 0
1826 1 13.946766674854494 30.698166346032696 24.84562569721188 1 0 -1
3317 1 12.598676659734226 49.1680170008674 6.983227010907617 1 1 0
2767 1 10.823116869461728 49.501490390412066 3.396424423211426 1 -1 1
3791 1 13.403158945576504 45.835388361037865 2.865941960755474 1 1 -1
1061 1 6.765115570679843 0.18145694116848984 5.570138397243393 0 0 0
1066 1 0.7355041619468846 9.061812083883575 17.900789369815058 0 -1 1
886 1 0.1282831856523836 5.035601461025578 10.682040494017638 0 0 0
2277 1 7.740561047529429 49.30736945849036 2.347038751158794 1 -1 0
4184 1 10.171267434834624 47.34513758492073 1.6564991286746984 0 -2 1
1592 1 15.043540409545754 49.07478304646597 2.401941410560112 -1 1 0
256 1 0.8547690254657488 2.5206842032991132 8.765992159676763 0 1 -1
1588 1 7.398847246760133 0.9467870173034022 8.308581960345062 0 1 -1
2851 1 8.36589418856917 3.0668542700793733 10.366926426548897 0 0 1
3816 1 8.602904179065762 4.370852725122658 7.746807131251667 0 1 0
1613 1 13.338970750893056 1.643353743137841 8.753618138929562 -1 1 -1
2357 1 1.8573187895929313 1.2738999576869228 22.314319267493996 0 1 0
3392 1 3.759734609720588 6.643992349582122 6.730469846394234 1 0 0
95 1 7.769358557923793 10.670727772189531 9.715694244370683 -1 0 -1
2996 1 10.887502309893579 5.710395556825192 8.131681161149796 -1 1 0
790 1 13.20172362470905 4.378178006019264 9.488232541183017 1 1 1
3070 1 4.714234476674935 1.183521471816519 19.71886876453006 1 1 0
2324 1 0.5773921512122685 32.66544073594731 0.9415215670963292 0 1 0
2265 1 2.9069031866549544 5.81399978824878 4.339346137129492 0 1 0
3518 1 7.638352255821132 11.164506672861297 6.763859079891635 1 0 -1
4228 1 9.303991029685381 8.895111596152617 6.006426374170402 1 2 2
3733 1 16.412640775613394 6.871770595356026 8.43601715442579 1 0 0
1747 1 12.563824551978218 8.799341300392841 9.933312802829809 1 0 0
3936 1 2.727002816988187 10.45316636074582 5.88244219295453 1 0 1
4444 1 8.050928776871837 14.95152655683826 5.902980212359716 1 -1 1
4242 1 12.270646009639487 12.27122572397547 4.0361269343015795 0 0 1
4302 1 12.815081505300665 12.013505227841964 6.880842336265725 1 1 1
1791 1 16.63679287620674 38.79964261191176 22.72626146232235 0 -1 -1
711 1 2.3228570825966233 13.249002846825773 6.92725492038782 -1 2 0
2338 1 17.35967090804653 37.372634306732635 25.218221193163426 1 -1 0
892 1 11.805191504140666 14.13730302458995 8.588103406609356 0 1 1
50 1 15.283928336706264 11.978624969082823 7.642428218428368 0 1 1
2447 1 12.285646416558302 15.693280669706427 6.077393367195499 0 -1 0
942 1 14.621569362299068 15.958131446500936 7.973084690086203 0 -1 1
2867 1 0.7838818650849475 19.65723913181278 17.026458252659587 1 0 0
432 1 3.768411217762699 14.156269618627427 4.388314022563929 0 0 0
2822 1 8.690286396609427 17.03044302682891 9.764350500984051 1 1 0
1667 1 7.95474704680141 19.823716114479204 10.624584054282408 0 1 1
4421 1 13.992953931277537 21.58142242728555 7.750729141720498 1 -1 1
1110 1 0.5039537286853555 23.64089440825785 19.41375416581272 1 0 0
939 1 2.3708322560457926 29.62452261420828 25.232205479664586 0 0 0
2368 1 2.971296703208177 18.19104858848552 7.392148866835515 1 0 1
2311 1 2.1914927049750146 16.15231656740866 5.685559813588151 1 0 1
4094 1 13.110550312066593 20.1708762813567 10.969228558692723 0 0 0
4021 1 8.107337231703145 17.280040255192674 12.915312706556362 2 1 0
4429 1 12.510161602586388 29.7348773639049 1.9197213189449616 0 0 2
3099 1 12.818409366301644 19.020230076963546 8.231530515079179 0 -2 0
1232 1 11.181664445358683 23.04218040290012 8.865530699807007 1 0 0
1945 1 9.318202762301002 21.046656385615105 8.413889055037307 0 -1 -1
2738 1 9.424111585292668 23.63445879549763 11.002013739154831 0 1 1
2239 1 12.642877292122154 27.097035788800696 5.705912631984436 0 1 0
1964 1 16.677228776456587 27.495910351169147 7.849485568591489 -1 2 0
187 1 17.437106277645967 25.75695076135615 9.6024979451943 0 0 0
632 1 0.5915460359659441 27.09429684066067 10.35785351807556 1 -1 0
2463 1 6.540225885256689 14.076023361167005 25.429027211612272 0 1 1
1581 1 6.785986132488647 25.796770417595305 7.267444019382203 0 -1 1
2009 1 3.0079201855390765 24.891770895498432 10.037196845746937 0 -1 2
3162 1 9.937628032485872 27.64206374063461 12.296444351911447 0 -1 0
4493 1 12.989317129526906 25.864706337067222 10.270110473614789 1 0 0
4116 1 0.11834288618408177 6.461521114555857 12.98048229564681 1 1 0
1565 1 4.352855783847136 29.74724960671411 8.139484824835366 1 0 -1
2604 1 1.0098287223323124 30.3285624269682 10.515201968281946 0 0 0
3429 1 7.147726405378086 29.88059501252241 8.582974008630563 1 0 0
4361 1 9.966711756639796 30.881050976122072 9.5126095466101 0 -1 0
1290 1 13.729052461743663 28.229836987103198 8.971619467047443 0 -1 0
2866 1 10.716291206671219 28.246631148872666 25.049585507220524 1 -1 0
4009 1 2.764148101411274 31.93148367589927 8.984387691855149 2 0 0
768 1 10.515959988014929 32.31040906248679 12.17991274840256 1 0 0
3778 1 14.642217899589431 32.180220951932135 8.165574259634685 1 0 0
1663 1 16.091640430670683 34.340719095086605 7.009846803234995 0 0 1
3892 1 5.065334434444916 35.80013395149004 10.594520366856322 0 -1 0
2187 1 5.436559800169726 37.264175272884636 8.29817089581642 0 0 0
3691 1 5.11164885884827 33.21469132961766 12.620539505110795 0 0 1
3394 1 8.082947958941686 36.232705320966815 11.967943452158236 1 0 0
1662 1 11.673263054269519 34.00939582690416 10.42417196762836 0 0 -1
3048 1 14.332674737424885 35.80082003403779 4.173601123961437 0 0 0
2434 1 10.932436736885897 49.57247388899976 24.349293936399302 0 1 1
1037 1 7.282303530579545 39.101157444124865 9.41900658090534 0 -1 0
148 1 4.599161517503661 38.02546457396821 5.596038268908043 0 0 0
2174 1 5.242670438619557 41.06135150364054 6.443152769850807 0 -1 -1
3484 1 7.800524906588651 41.53168996411622 8.084721671397775 1 -2 0
740 1 16.265009415623947 41.968572214783855 6.743618053582983 0 -1 -1
2836 1 14.424699429654453 38.20224778603836 6.063874009099085 1 0 2
4563 1 16.53905783271942 39.314416711130875 7.617359404671587 1 0 0
1712 1 1.7448274447881822 47.23979781055774 6.479668469235614 1 0 -1
334 1 4.2009426475802325 44.00017592340951 4.8166709776883945 -1 0 0
115 1 6.644460726162743 43.761518242726716 3.0258781183181855 -1 0 1
1669 1 11.008133710478981 44.013895736930934 7.616740436063433 1 0 0
1128 1 13.478682302392677 41.721917244031225 7.254483897867538 0 -1 1
2955 1 17.627329805150627 1.6106744419032408 5.526544384433219 -2 0 1
3420 1 13.357586188794453 44.412343372776725 8.874703033405998 0 -1 -1
1723 1 1.1638206797131918 44.77175378347023 7.804054334406615 0 -1 1
1627 1 4.6813349306317775 46.792862128340445 4.7473790225236066 1 0 0
3488 1 12.99832838365339 36.5138868328986 24.682418819758567 0 0 1
760 1 7.3062640577405755 43.6776747693661 5.748595744887944 0 -1 0
4594 1 10.364622929431759 48.00371350558123 7.6155693453912985 1 -1 1
3597 1 9.678184483245944 45.51796639822601 6.159931173020773 0 0 -1
1729 1 12.672621042541987 47.08808185197683 9.88989215176132 0 0 0
4185 1 0.4637049703092602 40.350113664435916 24.287982303135756 0 0 0
3459 1 2.428886705463318 38.70324998017824 22.708413949766793 1 0 -1
2790 1 4.010193694345903 50.24992992722542 5.940147930336284 0 -2 1
3500 1 6.909753676595869 46.38632575396816 7.020157292381471 1 -1 0
3226 1 7.690580845349889 2.9117868863241583 5.42339855426411 1 1 1
1156 1 8.642590474532406 49.4566636664142 5.973798958915137 -1 0 0
2345 1 10.341419706248193 1.190299413166882 8.278538480614202 0 1 1
2375 1 12.854830720799978 48.01416250584423 4.301029504236491 1 -1 1
2291 1 11.65137401915272 0.682640212824521 1.490350042272416 0 1 0
3975 1 16.825700761942734 12.056527135197893 18.16149652314769 1 0 0
443 1 3.0612110723093977 3.7394120449259236 7.806831934157049 0 0 0
4317 1 7.341292407224166 0.9763332084728081 12.407062452365098 1 0 1
3504 1 10.757957500220689 4.454760733410808 11.513041058017697 1 0 0
1614 1 12.92607583088099 3.3438023202424008 12.944591496654693 0 0 0
1475 1 13.346178866960924 0.9143181962499564 5.8623137257314575 -1 1 1
1543 1 1.446138987588035 45.86014932752524 19.64500604356291 0 -1 0
3155 1 1.0985923690234314 2.5671941308455373 12.091624534033755 2 0 0
1311 1 8.517808844268707 8.950361554668316 12.890484024145392 0 1 0
1668 1 10.208511056899281 7.576429490248389 11.308779977277744 0 2 -1
2284 1 14.921503184999704 7.66604947239659 10.950008824642692 1 0 0
4115 1 16.899211952026338 19.794742946561787 21.51990395758833 2 0 0
2439 1 16.16029816518121 34.438490152686434 22.383856482395494 1 -1 0
4241 1 1.4535733005094893 6.318221883966408 8.448189584901174 1 0 1
4539 1 5.278925944099348 9.402416741016982 9.968772332667582 -1 1 1
466 1 3.747240385315274 7.259066470866263 10.170203729463775 0 -1 1
3828 1 12.10770675582303 9.241753148829973 7.4191260561012475 1 1 -1
3722 1 12.254376732127449 11.093010956198816 11.200410131532106 1 0 0
3553 1 14.699383147736716 10.671343234445038 12.927636508822536 0 -1 0
869 1 1.1990908178525344 8.895108077774076 10.399159148939646 0 0 -1
3324 1 0.4525492404977407 9.296588162120978 5.527047472036117 0 1 1
1266 1 9.186788501963667 13.592724657450201 8.360425738704743 1 -1 1
2816 1 8.925880898532489 8.228648866312945 8.586274825412112 1 1 0
3779 1 2.7640723730079615 10.785518284208385 9.039311046368255 1 0 -1
485 1 16.321462597612125 29.949058959153763 9.137578551418764 0 0 0
1022 1 5.163829786633303 13.45452977895345 11.15782068183236 0 -1 1
2661 1 4.389142589184634 14.837743370812948 8.762871044944724 0 0 1
820 1 5.556587740743595 15.071475792458429 13.422310881481195 0 0 1
582 1 10.090007697944147 15.21495995512693 11.276234871521364 -1 1 0
4133 1 0.2864171822625038 38.190788331507804 13.491283726530602 0 0 1
1958 1 17.023536230591606 10.229953138664301 11.048737051154314 0 0 0
3465 1 3.4400714288153575 17.056817250266313 10.027545379545774 0 -1 1
1528 1 5.549992371735536 17.999302520715993 11.53594116480244 0 0 1
5 1 11.062946112125843 17.735093862856342 12.53571037293188 0 0 0
1664 1 15.467407517856953 15.799791004641909 14.695859126351074 1 0 0
1213 1 15.304715830980376 12.819199671500435 10.463306267068495 0 0 2
1875 1 17.03553234941878 11.456405648736496 4.60411705625803 0 1 -1
1433 1 1.0097700952120252 19.675588475388174 8.321363048209717 0 -1 0
31 1 1.7968051012296793 19.095824966131914 12.197614588251573 1 0 0
3232 1 3.584864327721891 20.59404710864106 10.540130304099105 1 0 0
329 1 12.063999677124457 18.618033954628494 14.930547648381884 0 0 -1
2028 1 12.127619704647307 37.15281714313098 2.1989056869442205 -1 1 -1
1978 1 5.743977302726088 23.333652256101875 9.885839086191785 0 -1 1
2755 1 4.235093317893754 25.15098249269586 12.598858563063471 1 -1 0
1160 1 7.635805595587085 21.994392504292854 11.767998040172797 0 0 0
1019 1 13.49685525049478 22.68140402160151 10.386949379807582 0 1 0
1451 1 13.95768912290246 22.770502582059937 13.791842792327955 1 1 0
1902 1 1.5068146837424006 25.116764086851152 15.842233552639565 1 -1 0
2033 1 16.3938044294056 40.28305700718658 3.9255366812779573 1 -1 -1
2815 1 7.431389147687827 25.733070607944136 17.537594607880504 1 -2 0
3729 1 11.059537632774838 25.094293070075473 12.60454459677815 0 0 1
927 1 15.393428792652431 26.1893471241731 12.037073123478613 1 -2 0
410 1 13.718289423383549 30.469981346921234 12.71072478999378 0 1 0
2991 1 2.800038475854128 24.656855937596728 3.740581824532041 2 0 1
2001 1 14.616992007110623 17.56541814711679 12.535066389002388 0 -1 1
1395 1 7.966954335190108 27.92331186877533 10.533906272102199 1 1 1
944 1 8.690240056630842 28.766533193435684 16.83215281306602 1 0 1
4231 1 10.062345619571008 29.765404543971076 14.014886438152978 1 0 1
120 1 7.558950600662205 31.869531882198658 11.254623144885503 0 -1 0
3205 1 11.967271808985279 29.53351613807152 11.016347805436629 1 0 1
3092 1 11.510141230130825 32.340800393600205 14.910641884591813 1 -1 -1
841 1 13.113551381260454 31.038895924224402 17.53933418017401 0 0 1
293 1 2.7307174828308614 33.77695124551616 10.866331151177313 0 -1 0
4271 1 6.100141308284699 34.19619685524541 15.465459398250221 0 0 0
2380 1 8.265820505239088 33.87665578236833 13.5082715803042 1 0 1
3676 1 14.959756212259052 35.18655880956199 12.310324879227446 0 -1 -1
1918 1 1.8841859831055507 41.61222108309641 15.021397443769104 0 -1 1
644 1 0.0764947601695273 40.480753772421316 10.411065757471208 1 -2 0
2171 1 2.8501061942730805 37.71713380783898 11.509812161254331 0 0 0
1989 1 6.0189877146211685 38.50748600436043 11.917534713182809 0 -1 1
1737 1 4.484225449019477 40.75806556199078 10.803931871340415 0 -1 1
172 1 12.172188596174651 36.05342307523904 13.115438529117606 0 -1 -1
2482 1 12.656719854267529 40.70554017329801 13.53724675207266 -1 -1 1
2579 1 15.505936672623426 36.81170222931936 10.291267190976777 0 0 0
154 1 16.493902183909135 13.40380332587482 23.697596745162127 -1 0 0
1073 1 6.691322802664773 42.6349426702178 23.92810085578593 -1 0 0
1644 1 2.1288580422971015 40.40502788899748 12.338366068361053 1 0 1
3773 1 2.4479273314522128 40.77448738150826 8.666872346677211 1 0 2
4357 1 5.981594004344714 44.06348793694609 9.048099519694267 0 0 0
1157 1 10.582732425772576 40.828776546724214 10.996489441027487 0 0 0
458 1 9.825492885384051 41.940327055259004 5.987209705830328 0 1 0
311 1 10.249570064879059 38.14054647130945 12.362116668302164 0 -1 -1
276 1 15.993069617630377 39.52281588596784 10.138293466496403 0 1 0
3419 1 3.6294536846951213 43.208043220696695 7.585933529790731 1 0 0
3375 1 9.741201341841219 42.90379129020585 9.676808999984534 1 0 1
2634 1 13.234684260235708 40.41665805817168 9.91867439211212 1 -1 1
2496 1 13.042116181495956 23.63958567024199 24.50000987056172 0 0 0
4454 1 15.446077752640557 18.658770930359747 6.979312156643966 0 -1 2
4301 1 6.745548726138327 46.71370427684618 9.819592390286399 0 -1 1
1416 1 7.414168956732581 47.595722647744445 12.793651404011243 0 0 -1
40 1 8.816829986760284 44.91860374436119 11.904095310150673 0 -1 -1
87 1 11.451382422019266 44.527814184333295 13.363490792708257 0 -1 0
2860 1 4.2203918968629175 48.12543177019416 7.676952638720072 0 -1 1
2740 1 7.195654342966158 49.94018486709051 10.528288799473563 -1 -1 1
4452 1 9.766198754427695 47.18970259419448 10.246035614021078 1 0 1
2462 1 10.112602400435772 50.069800758567574 10.46040470367903 0 0 1
1778 1 13.289214264128635 50.20454034038297 10.453520226335373 0 0 0
3316 1 5.062836749306023 2.4157573486185973 12.757379367179091 1 1 0
345 1 2.9153289599791155 4.122421846116767 13.966086939646095 -1 1 0
1951 1 5.935568238066246 4.867978661962752 11.37995227826961 0 1 -1
4360 1 10.16228774193992 1.5596669296680903 12.60125129179706 0 1 2
133 1 11.880825891705696 4.833926097223316 15.816016299999607 0 2 -1
1014 1 14.370773714010486 0.8597396699710438 12.41371477700102 0 0 1
456 1 2.8204890714977457 6.959822528141496 12.963671641453157 -1 1 -1
3538 1 4.884761959975156 6.72020671465229 16.813174302744173 1 0 0
2831 1 4.906672882561239 2.1031393605736546 9.426391350345842 1 0 1
3922 1 8.583398762556971 7.33857993668412 15.115208492945486 0 0 0
3560 1 14.111047059249872 7.792355536030325 13.745690429841193 1 1 0
4239 1 14.021089570373343 9.825399655472319 15.823047667737576 1 1 1
1718 1 16.616729618294325 2.3718567761521463 10.726350640299906 0 0 0
465 1 3.2313717872645595 9.055045878708386 14.458040446565779 -1 0 0
3744 1 6.2754931744214435 6.381217768602587 8.567360402206376 1 0 1
2378 1 5.413276942454814 6.378273866678079 14.19320574499449 1 0 1
1300 1 11.337960996101666 7.152869560730017 14.267183618878109 0 0 1
178 1 12.179940303399839 12.4108920199413 16.688803939090207 0 0 0
1399 1 13.21371330497193 48.06110703334223 19.630890002436125 0 0 0
2305 1 0.9001934762225244 12.379206500884104 15.508424654855828 1 0 1
4113 1 5.685676150498333 9.607250521843259 13.640638557342733 0 1 1
4082 1 1.6481379897354722 49.843331463366 25.232540886434748 1 0 1
1894 1 8.11539610923193 13.02747210034217 11.231680106936203 0 1 0
3849 1 9.878905971427299 11.368829255496923 12.79570529686361 1 1 1
2795 1 14.581099353727797 12.691598326828084 14.779190575337743 0 0 1
1698 1 12.816780057715906 13.924674715487493 11.558935188778674 0 0 0
528 1 16.48261620515615 45.712825362978926 14.511863828069707 0 -1 0
4000 1 0.7460184719947663 6.433068040651796 19.480730640655338 0 1 1
2715 1 4.02615338606311 11.27294448560866 11.661235312758832 0 0 0
2999 1 6.345480002262869 12.129875377369256 14.508642540673932 2 2 0
438 1 12.697725940513344 15.170725506187127 14.167832302640939 0 0 0
3384 1 11.521499291743012 32.30812671520996 24.65892193267688 1 0 0
440 1 1.9238114386084852 15.9393945238631 18.063539190582546 0 0 0