LAMMPS data file via write_data, version 29 Oct 2020, timestep = 100000

8540 atoms
1 atom types

-0.23937447896757647 104.54329841667504 xlo xhi
-0.12513986489833684 51.03225986489562 ylo yhi
-0.12513986489833684 51.03225986489562 zlo zhi

Masses

1 18.015

Atoms # atomic

12 1 6.050087644804385 2.5979238422214794 0.3450435650077033 0 0 0
94 1 4.325107035499082 1.2215257235692811 2.321007555630667 0 1 0
96 1 10.752110654351528 1.4017371076965517 2.384340897911938 0 1 0
98 1 17.418643447160303 1.0667292014087912 2.066508085653997 0 1 0
825 1 23.910054076994342 1.4803727300089173 1.8551178884380728 0 1 0
828 1 29.94270329440078 1.0467668071095924 1.7057232815987482 0 1 0
1 1 1.2159985867262457 4.103031531969765 1.751718304353252 0 0 0
2 1 7.6404064551786375 4.364215250562713 1.6770846267767627 0 0 0
603 1 12.245733003368242 3.092776941566926 0.40492192205948707 0 0 0
4 1 14.066064342179974 4.163151417010385 1.9434417265194663 0 0 0
1361 1 18.928133773604802 2.949688754755865 0.43362534023119526 0 0 0
754 1 20.444131403254264 4.580654523305916 2.0271270343600376 0 0 0
2701 1 25.372214365251427 2.9872836288693683 0.08465437450593469 0 0 0
757 1 27.149471429600197 4.7342749858156274 1.8603239207390818 0 0 0
758 1 33.15045563513306 3.986256456642348 1.4014966535617817 0 0 0
265 1 2.853441520532245 5.974598016779253 0.25499347044069215 0 0 0
5 1 4.391804819972695 7.818893540483402 1.5415841737755704 0 0 0
6 1 6.065092786767662 6.258177710952369 3.067938264118122 0 0 0
8 1 10.570040108386776 7.502772292358333 1.4932855395057172 0 0 0
7 1 15.313210461268602 6.04710155854259 0.3205369490716153 0 0 0
9 1 17.13593306418791 7.440699635724121 1.7354328884694605 0 0 0
1375 1 21.662916770513153 6.027066216811701 0.2934422120690971 0 0 0
760 1 23.943519120786625 7.528034754537602 1.5956332245714808 0 0 0
1368 1 28.556703214778043 6.31502851729423 0.36647114989495594 0 0 0
762 1 30.247354079999724 7.773967268916765 1.647989468420069 0 0 0
10 1 0.9641468539805615 10.736417555763998 1.6730484869559508 0 0 0
1414 1 6.007056470474545 9.439833497513472 -0.09050333634702609 0 0 0
11 1 7.749823592769303 10.706344279013706 1.9284041124068834 0 0 0
13 1 13.961676887511944 10.829457787348222 1.4424656815961134 0 0 0
749 1 18.86154112382985 9.362508807833636 0.21677041902759192 0 0 0
763 1 20.52164953015162 10.684691005899062 1.8148614455416503 0 0 0
1351 1 25.5422492287903 9.345758054942515 0.3883646532992483 0 0 0
765 1 27.200079593033607 10.956652035997347 1.7214893268027387 0 0 0
767 1 33.235000986277946 10.864321890387187 1.5837013351039937 0 0 0
64 1 2.902213264132404 12.3189012453572 0.4247782615478377 0 0 0
6051 1 0.387415745167245 14.196101941683157 1.3526094707885767 1 -1 2
17 1 4.400880890175081 13.737798435408584 2.0755831129826894 0 0 0
1418 1 9.421146842969344 12.292249330150906 0.10623137214071304 0 0 0
18 1 10.762247342787276 13.939667415844543 1.7538931262544304 0 0 0
1839 1 15.655042569247707 12.54683072295294 -0.09420317216287104 0 0 0
20 1 17.493716828644 13.839703781354714 1.4478920662594632 0 0 0
2184 1 22.187700630014493 12.282563074613876 0.04805784920052014 0 0 0
769 1 23.641141362855784 13.933750073797171 1.7254891506033576 0 0 0
2741 1 28.49733880278364 12.749939899278463 0.15174804147157916 0 0 0
771 1 30.34616008740248 13.974082884999413 1.9321689848923755 0 0 0
21 1 1.2215982228804985 17.147011448581015 1.8531698238607024 0 0 0
218 1 5.9239402213721455 15.32688186646676 0.2167306915447912 0 0 0
23 1 7.8636638450645115 16.588623650693474 1.7698422889351375 0 0 0
736 1 12.610831410561344 15.279844258523378 0.24345507142474354 0 0 0
26 1 13.825875515944173 17.471532921963597 1.757690196742842 0 0 0
27 1 15.794047101627001 15.503529713524303 2.99329564577256 0 0 0
772 1 20.48085292584339 16.7341938817803 1.3915310535713294 0 0 0
922 1 25.315178632855737 15.35332624751205 0.31807639218679895 0 0 0
775 1 26.9238468041073 17.193787575803565 1.6724782198528598 0 0 0
793 1 31.751718802996752 15.953606344304909 0.2375585808440126 0 0 0
777 1 33.27013998121923 17.660265278936652 1.6805610087482288 0 0 0
237 1 2.8985659899488003 18.798853120513503 0.675844874012924 0 0 0
28 1 4.979492157704132 20.558992807403833 1.8843151323883967 0 0 0
125 1 6.182127464378345 18.518022468727143 2.911010360428207 0 0 0
83 1 9.513734650329337 18.477269772393946 0.3828839959406394 0 0 0
31 1 10.811013459153179 20.38916910238567 1.7861544010083537 0 0 0
1717 1 15.564288653672563 18.938687710045834 0.14518014257488465 0 0 0
33 1 17.489011343661957 20.395717427982902 1.4860400194743937 0 0 0
2754 1 22.095572659441494 18.800333876172203 0.1304056120234262 0 0 0
779 1 23.902576085439964 20.37129678203154 1.685819419212224 0 0 0
1366 1 28.256170287194262 19.095934272312313 0.28490918343923255 0 0 0
781 1 30.158588844670042 20.671847442566367 1.9308720193313649 0 0 0
34 1 1.3345778404141386 23.210867123801318 1.9881699902062344 0 0 0
1795 1 6.188101060746536 22.152575991910854 0.08507220742267582 0 0 0
37 1 7.753328359771837 23.850560378101655 1.6347082081228637 0 0 0
224 1 12.408633628078297 22.36970881783984 0.23092364145952704 0 0 0
38 1 14.37644102311706 23.464750539779835 1.9417258920782836 0 0 0
2322 1 19.262894371055392 21.785275090398137 0.08918717502600076 0 0 0
782 1 20.78555829075508 23.365611592175053 1.5138738426703247 0 0 0
2254 1 25.027478792568388 22.143219411680477 -0.07848594602732108 0 0 0
783 1 26.768772615000007 23.609293840140698 1.5249406090557176 0 0 0
2268 1 31.526018215878892 22.03646768102076 0.14325650387244493 0 0 0
784 1 33.167509104834096 23.331114144517436 1.9450969715904551 0 0 0
45 1 2.8428132866496125 25.3983676511695 0.5309612156764963 0 0 0
39 1 4.711775868079855 26.932554981319186 1.8800893853555611 0 0 0
1769 1 9.339567720258755 25.298525936235162 -0.10624046786785643 0 0 0
41 1 11.064032149951979 26.664710667238197 1.6417022559741044 0 0 0
99 1 15.765527369338386 25.020981339066527 0.3261441666582584 0 0 0
43 1 17.520722601087154 26.49529453623761 2.087274424775056 0 0 0
2253 1 21.89945966033485 25.260349180148605 0.18066798484259955 0 0 0
786 1 23.64476128831407 26.721082599236656 2.051534324458438 0 0 0
1349 1 28.49972879516447 25.464517832983304 0.21126350052359305 0 0 0
789 1 30.252101402748373 26.582083092003877 1.8660500977355818 0 0 0
46 1 1.279998677590837 29.954609001578163 1.5543006051151367 0 0 0
2131 1 6.1464111535804005 28.48564207064434 -0.10599445911706226 0 0 0
145 1 9.338803079629303 28.637011271140473 3.008823705291173 0 0 0
355 1 12.625567153427726 28.517787950689886 0.5372994409880829 0 0 0
49 1 14.132929664753368 29.93898732146212 2.322094264097996 0 0 0
773 1 19.12948908720187 28.19401649869379 0.262786151730126 0 0 0
790 1 20.51794824423806 29.898002473757796 2.0524418970564766 0 0 0
788 1 25.269272071402494 28.0974962919901 0.4936336972960098 0 0 0
792 1 27.308339281004326 29.59074416025489 1.8598696934133527 0 0 0
1363 1 31.827751445802022 28.372970194268557 0.3179855100074123 0 0 0
751 1 3.110388838541643 31.806234059468995 0.24880814489347808 0 0 0
48 1 7.767432280672248 30.149545342788436 1.4168447395273793 0 0 0
696 1 15.868404125279302 31.55616219440166 0.6605354317242217 0 0 0
1355 1 22.195422192316947 31.549398759669938 0.3992591579585788 0 0 0
2755 1 28.195700390508552 31.326713595024547 0.09802680982426587 0 0 0
797 1 30.212360511845954 32.734984765844025 1.7456697907997119 0 0 0
794 1 33.5473173016588 30.064544053121434 1.8006011352473703 0 0 0
51 1 4.863570297223337 33.33566042592585 1.5181028439429647 0 0 0
53 1 10.598999711312397 33.29495709944423 1.5747327106012219 0 0 0
1794 1 12.634926214845207 34.52495762756174 0.1334589600961435 0 0 0
63 1 14.331572092235723 35.93086954217068 1.7079038504858783 0 0 0
57 1 17.90699081342387 33.33930612703155 1.606835924217958 0 0 0
795 1 23.86757716868823 33.260125224681666 1.9583909238401045 0 0 0
1372 1 25.594804133334964 34.554076440296214 0.25935884289008043 0 0 0
801 1 27.287597252658657 35.85893968420208 1.9147483938601715 0 0 0
1373 1 31.98370529414708 34.53823032689475 0.1937613518709932 0 0 0
58 1 1.3019010099210573 35.996098886032165 1.80588963054128 0 0 0
1928 1 2.881493929374741 37.82590719450649 0.048746397950097 0 0 0
60 1 7.519005130201155 36.24732051270076 1.7032293064493271 0 0 0
165 1 9.683583878143988 37.78169844253262 0.4039047910152179 0 0 0
2127 1 15.960469891178931 37.87122129677299 0.12294878198759124 0 0 0
800 1 20.74253385596948 36.06295431898342 1.4146550117734549 0 0 0
802 1 19.06986009289094 38.024637494439055 2.9313388385848005 0 0 0
2743 1 22.244442160413772 37.71733422679824 0.12963668292936603 0 0 0
1374 1 28.907726360176788 37.67093604995949 0.4090899381992018 0 0 0
804 1 33.67737832208264 36.049142235563444 1.7596272884833433 0 0 0
66 1 4.318952108246429 39.15066382368939 1.7123079732132935 0 0 0
61 1 6.227068516792493 40.73599595507115 0.511779003801472 0 0 0
67 1 11.207315664344694 39.534903127829914 1.879433345589792 0 0 0
2128 1 12.659182707454109 41.010109850156745 0.019812952582011878 0 0 0
69 1 17.52452035363188 39.67797512728232 1.2671679585767683 0 0 0
174 1 15.94761175700798 41.160385749721975 2.9893461676966737 0 0 0
2744 1 19.228499927234896 41.413509064666925 -0.0354482783918495 0 0 0
805 1 23.840301472270102 39.34269588773089 1.835628515696699 0 0 0
1323 1 25.28465159951904 41.16375037175764 0.41775547748139696 0 0 0
807 1 30.48712921487515 39.24336576307662 2.02901301251675 0 0 0
1236 1 31.404047666479997 41.17605912838485 0.48110703165512525 0 0 0
71 1 1.4004388237021022 42.57101569954932 2.0289423436405305 0 0 0
1758 1 3.004910397482473 43.99084062316851 0.07940634469858518 0 0 0
74 1 7.811998277286602 42.861194555206296 2.107361771037327 0 0 0
2125 1 9.29093674265951 44.218235432413735 0.13070923016397828 0 0 0
77 1 14.118537220495178 42.75509406454964 1.7593122191448929 0 0 0
68 1 15.719786448861667 44.43267072273674 0.34319286637738833 0 0 0
810 1 20.618288917066206 42.953257856675734 1.94787738111228 0 0 0
1369 1 22.089683970042202 44.36547901341819 0.38362801353296017 0 0 0
1358 1 28.240614601486875 44.08385459891238 0.6480906028516367 0 0 0
812 1 26.643771487211225 42.74803598742288 2.3942773139078652 0 0 0
814 1 33.0566293757901 42.73093503872604 1.9865812703766226 0 0 0
4929 1 -0.03682259654438835 47.06030504822337 0.46246691810763696 1 -2 2
80 1 4.257121645580878 45.97632168739381 1.7470309667521846 0 0 0
752 1 6.255894587132816 47.430037095508936 0.41653319042815706 0 0 0
82 1 11.022460562614745 45.73607661915276 1.8082597805485827 0 0 0
90 1 12.589593635521284 47.6700040230105 0.24985914841347562 0 0 0
84 1 17.518395824357494 46.11471057329828 1.8632630542835078 0 0 0
1371 1 18.919164874814303 47.69729411398074 0.32221927121739935 0 0 0
815 1 23.65718175508621 45.87978707043259 1.8202375618922815 0 0 0
2191 1 25.329239796616154 47.58900945037654 0.1128447528232874 0 0 0
2497 1 31.450636148382277 47.05876441215375 0.12472933335898556 0 0 0
816 1 29.665552993509703 46.0065384688585 2.0369346938068076 0 0 0
86 1 1.3633245403711114 49.12276376643727 1.3693910016815645 0 0 0
2129 1 2.875708417266115 50.81490909861411 0.004826913620688378 0 0 0
750 1 9.029870567333946 51.019608225674 0.6481507179043563 0 0 0
88 1 7.6389146627084585 49.10712301572489 2.1337246117681468 0 0 0
72 1 15.484865099866415 50.772843529460346 0.2745267214924094 0 0 0
89 1 14.157306796137368 49.17637014977339 2.0535994147148093 0 0 0
819 1 20.897155479614792 48.75017774786976 1.510181633598352 0 0 0
2206 1 22.434933509768236 50.845994188765545 0.09764944584469415 0 0 0
822 1 26.576370390964186 49.41583540890998 1.6615400982014608 0 0 0
2168 1 28.38550340770591 50.607324600479174 0.031633865449972015 0 0 0
824 1 33.02759422663055 48.91751047742411 1.5495051381369087 0 0 0
904 1 31.640479507379553 50.7041648887331 3.050861006489742 0 0 0
91 1 2.6584843989883216 2.7417781275247344 3.7412243437461923 0 0 0
184 1 0.7653174533163956 1.021817867110975 4.94156234852313 0 1 0
186 1 7.565863493338519 1.1775895508452658 5.762884244469198 0 1 0
95 1 9.021276664320835 2.784019274848506 3.5460102177950206 0 0 0
187 1 14.35590991518777 0.884825427616744 5.460150717169036 0 1 0
188 1 15.687380593653563 2.5970295896353246 3.4652588166146567 0 0 0
905 1 20.874523319222273 1.645111889099668 5.158354292419923 0 1 0
907 1 26.83125028887377 1.4116358206451003 5.09625644938083 0 1 0
827 1 28.598619210588993 2.8049643361899395 3.2276909940287966 0 0 0
909 1 32.90557172944324 1.235149789924397 4.914213596598292 0 1 0
100 1 4.383254658291857 4.607486500584707 4.709054372256249 0 0 0
108 1 12.098473653539546 5.6476800249660295 3.1820445265564032 0 0 0
101 1 10.823112246957113 4.230730949542955 5.159311261219262 0 0 0
104 1 17.13902630505301 4.216738345751531 5.002252347697535 0 0 0
906 1 22.34189695026993 3.0675486472871683 3.347641637163104 0 0 0
830 1 23.76379278519071 4.629263913401641 4.966611404525917 0 0 0
831 1 30.069893858990472 4.280756374169919 4.951792813988633 0 0 0
105 1 1.4518492009759163 7.34328347521317 4.775380348507331 0 0 0
107 1 7.766560596144677 7.464417953500173 4.867552262017054 0 0 0
109 1 14.058427030112822 7.487445620362513 4.665572220452916 0 0 0
742 1 18.631798263043205 6.109928938895859 3.626679541377408 0 0 0
834 1 20.568978850570293 7.54467030140083 4.89426295851501 0 0 0
756 1 25.394131272931713 6.100047720327605 3.4554946653302183 0 0 0
835 1 26.846506072714302 7.917660779280775 4.898487742053723 0 0 0
837 1 31.663305532852917 6.009925699618539 3.194076068773149 0 0 0
838 1 33.29144436820118 7.674709550505327 4.761260120834982 0 0 0
110 1 3.035289222023749 9.128792639039032 3.2368290700503923 0 0 0
112 1 4.57155742220382 10.832503999609482 4.6862425821245095 0 0 0
113 1 9.563792962384252 9.278537283534318 3.3639304487372264 0 0 0
114 1 10.894329485609296 11.015159479731 4.887649170352108 0 0 0
14 1 15.431597281853046 9.254132940913506 3.320869102472306 0 0 0
115 1 17.129494099969527 10.83816858342995 4.615233250206043 0 0 0
808 1 18.965629627197885 9.602323677169567 6.181121335474054 0 0 0
839 1 22.482849186066378 9.015467085080761 3.2399218444131574 0 0 0
840 1 23.935720617838744 10.916983915869256 4.2897830409820745 0 0 0
761 1 28.563909600524234 9.412287842961376 3.330653854711958 0 0 0
842 1 30.205421108613635 10.781824481319461 5.045779010312965 0 0 0
116 1 1.1012897560236432 13.749735623780595 5.192631948208305 0 0 0
117 1 6.391494727930018 12.272071245464694 3.6142511612041557 0 0 0
118 1 7.8497209008716275 14.21260717911977 5.212154815854576 0 0 0
19 1 12.275697994865848 12.486564734631145 3.3081239881392963 0 0 0
120 1 14.221069702573285 13.75477032402963 4.713585302645065 0 0 0
813 1 18.902722353481657 12.386787130808022 3.206964982197254 0 0 0
844 1 20.512137008261895 13.744711869525963 4.940112607722547 0 0 0
923 1 22.53410967116486 12.64580574048582 6.26191422472311 0 0 0
770 1 25.85762760822906 12.621640222126988 3.196311624744973 0 0 0
846 1 26.787205419156113 14.347765390352604 5.063843001919205 0 0 0
766 1 31.764003621619594 12.281665669266822 3.3504787974652763 0 0 0
847 1 33.17913949408327 14.412661298200664 5.216850524146019 0 0 0
16 1 2.5662703302902616 15.049692637206777 3.4049613381619155 0 0 0
124 1 4.338566439305495 16.91586361384261 4.535926680195631 0 0 0
24 1 9.6339827313975 15.415154010615142 3.5428991728227888 0 0 0
127 1 11.09331071787846 16.952237015729956 5.2006678029813465 0 0 0
128 1 17.23690710385771 17.04069631369248 4.967047585765842 0 0 0
774 1 21.97207610881363 15.37734472272184 3.249708921521254 0 0 0
848 1 23.435347892780044 17.19629556993227 4.801770538383494 0 0 0
776 1 28.449812884955783 15.608923441180403 3.2863660510483066 0 0 0
849 1 29.61629332825754 17.634134734378815 4.65854491257646 0 0 0
2776 1 34.6402115334062 15.752259708785196 3.085391208039848 0 0 0
130 1 1.1573325476518368 20.36460580954572 4.672073788880768 0 0 0
129 1 3.279966637948816 18.879427320809473 6.040816157450531 0 0 0
131 1 7.699578253771778 19.868845757971428 4.457550602685022 0 0 0
133 1 12.361644859867642 18.77285293856306 3.7969021223823707 0 0 0
135 1 13.94756894327539 20.22647362325293 5.230824441312947 0 0 0
1136 1 18.934201795166153 18.420093037099665 3.098639315704107 0 0 0
851 1 20.466644799225996 20.132484760652133 4.681225357373186 0 0 0
778 1 25.22683468602777 18.863397382310882 3.347113148780936 0 0 0
853 1 26.850841964726158 20.436591523378656 5.025715227854783 0 0 0
854 1 31.5072260252463 19.028456798333952 3.5672021151843833 0 0 0
855 1 33.28924447991601 20.396526893559486 5.475183241432946 0 0 0
36 1 3.2176708427000813 22.16443940230215 3.5437960240246396 0 0 0
136 1 5.188507926384396 23.44537417882789 4.951963560718667 0 0 0
30 1 8.957473174979496 22.01297877427721 3.19822515797069 0 0 0
138 1 10.615170795986552 23.27911124048198 4.933401102869999 0 0 0
139 1 15.541500444448545 21.503476572098844 3.616309839565877 0 0 0
140 1 17.30018531294876 23.149249583113235 4.977304343042477 0 0 0
857 1 22.39695908377165 21.68610383511733 3.455943420082708 0 0 0
858 1 23.47924832614718 23.2665129075885 5.227086896446907 0 0 0
859 1 28.500489410293916 22.23625021574089 3.376493611836935 0 0 0
860 1 30.08006589422832 23.581616061333598 4.996590906902765 0 0 0
2789 1 34.673278625721764 21.758612981300736 3.425615086706076 0 0 0
92 1 -0.23283371681556828 25.04739488600835 3.3216433979247424 0 0 0
143 1 1.6690056495346788 26.2213692931991 5.141685931964131 0 0 0
137 1 6.273781540576397 25.38654984925643 3.4690322571627146 0 0 0
42 1 12.529987518160276 24.910806413027256 3.579386529432517 0 0 0
147 1 14.261820737589751 26.480611453288116 5.006918613585973 0 0 0
1293 1 19.150478146843003 24.695234083042624 3.6765839015335033 0 0 0
863 1 20.599524412067108 26.715496971951442 5.2957787370250635 0 0 0
787 1 25.165091708174504 24.829043904766447 3.43347678671721 0 0 0
865 1 26.84812491538718 26.570245229202385 4.787023131193386 0 0 0
861 1 31.827503575221158 24.973209830545674 3.4850647083141575 0 0 0
868 1 33.18379218015372 26.815278579990622 5.145161717683653 0 0 0
40 1 2.867397373308928 28.27053232382493 3.3270947496312684 0 0 0
144 1 7.8369771920949844 27.01818396025323 5.035309959031784 0 0 0
152 1 10.912107718626718 29.856085879108388 4.978874881650171 0 0 0
44 1 15.905371829320124 28.118663658769123 3.560713218437458 0 0 0
791 1 22.07212610028826 28.217698844170307 3.5312404689371157 0 0 0
866 1 28.572009577814566 28.01522969525148 3.3230039030425615 0 0 0
873 1 30.026824993575865 29.851843058198792 4.751589310258684 0 0 0
78 1 -0.13630770200916706 31.470439262913168 3.391522406367358 0 0 0
149 1 4.246233381879725 30.06183837905833 4.62054769102071 0 0 0
150 1 6.213523904044578 31.689931539909058 3.2421682873463897 0 0 0
156 1 7.808500086726841 32.827978143126295 5.219995712957831 0 0 0
54 1 12.078732505926425 31.822564528365845 3.513168085640424 0 0 0
154 1 17.546666764783385 30.063696291294534 5.065969662102195 0 0 0
1045 1 18.972657881683222 31.830151281323623 3.537337072963537 0 0 0
871 1 23.91200952428586 30.22567493939752 4.614274993740617 0 0 0
796 1 25.702854354003524 31.646743680171852 3.363890052949223 0 0 0
798 1 31.91155945005879 31.40854220421918 3.3243337259121866 0 0 0
155 1 1.5414143812426313 33.16523483459142 4.866366747390214 0 0 0
59 1 3.224965374336174 34.61442038973361 3.175122181719686 0 0 0
160 1 4.456335525982067 35.96264139059645 5.263703967857239 0 0 0
162 1 9.132506483552147 34.824038953714684 3.583834128697144 0 0 0
157 1 14.011923747890933 33.14560765952012 5.014464727040815 0 0 0
62 1 15.975708950145908 34.396501193302065 3.5508582052249253 0 0 0
874 1 20.84134536149718 33.20959242548066 4.782646093742381 0 0 0
875 1 22.27520241458816 34.912051828452526 3.482579257440611 0 0 0
876 1 27.27372909431567 33.015040143762164 4.995880950015139 0 0 0
803 1 28.851131726926674 34.34216009531636 3.201639711625074 0 0 0
878 1 33.39959265824733 33.158939438470114 4.982387836034116 0 0 0
161 1 5.734550670206302 37.52126147697413 3.393619281266167 0 0 0
163 1 10.58341230316895 36.40362208543505 5.1376706206012495 0 0 0
169 1 12.63123430859476 37.48684104573846 3.54376156911127 0 0 0
164 1 17.35671711580774 36.52905397274975 4.721904155986905 0 0 0
880 1 23.73925496765863 36.43605310738208 5.282071771586916 0 0 0
886 1 25.63407304763128 37.604903062764365 3.5041544974464545 0 0 0
882 1 30.178134564263907 36.13011409523504 4.81740457330385 0 0 0
806 1 31.999955625948104 37.740795561044955 3.423755036676858 0 0 0
166 1 1.0570292191546158 39.01636601376869 5.353639017187263 0 0 0
65 1 2.950230229605897 40.909542081523725 3.6345985034382213 0 0 0
168 1 7.302711409528383 39.315773884003576 4.927723755998992 0 0 0
76 1 9.078501060069177 40.78182430164533 3.619882926504761 0 0 0
170 1 14.235320791925062 39.48424104589983 4.688971993980225 0 0 0
885 1 20.24911640805529 39.59549272230151 5.047518988252544 0 0 0
884 1 22.036348930853777 40.74366055755351 3.1407899818880054 0 0 0
887 1 26.899647808444623 39.27538315817661 4.99127132741283 0 0 0
960 1 25.25961633488711 41.40097647883003 6.251455520547359 0 0 0
888 1 28.674203269749494 41.093252642680184 3.869222935828203 0 0 0
889 1 33.19798116359518 39.31888687179358 5.124897662054192 0 0 0
894 1 34.594114386429005 40.812578619318764 3.200943878199365 0 0 0
158 1 -0.1648857231356406 44.318469964358115 3.4402231869426982 0 0 0
172 1 4.753984178364848 42.38642040116377 4.975619704535214 0 0 0
75 1 6.004360864708516 44.51505943482498 3.331223689935672 0 0 0
173 1 11.016613799212228 42.71528469279477 4.892945814938614 0 0 0
178 1 12.678186387671385 44.414507465250225 3.4262925993836744 0 0 0
175 1 17.437887518167678 42.903133988917 4.886022504882772 0 0 0
1353 1 18.954402198970744 44.60066738488697 3.465336208204155 0 0 0
890 1 23.47172496505699 42.83188765841524 4.432449109263182 0 0 0
891 1 25.10286617926468 44.55187827771937 3.663475390686065 0 0 0
818 1 31.456883048965757 44.452388825794664 3.3258101890214333 0 0 0
893 1 30.1534946306094 42.926675343933624 5.186467046913218 0 0 0
176 1 1.5935111765444534 45.95897406390775 5.084515591987112 0 0 0
79 1 2.9305427668428647 47.663918369215395 3.1700810682663008 0 0 0
177 1 7.684412583635227 46.13770521376459 5.0901175988038565 0 0 0
81 1 9.533263215845054 47.512511029640265 3.224116505970616 0 0 0
179 1 14.377849067824403 46.12014219364418 5.1520426275034215 0 0 0
85 1 15.869848593037897 47.718417359454364 3.5325095880148063 0 0 0
897 1 20.521579035167242 46.130665752359235 4.8748619516007015 0 0 0
901 1 22.426551437906735 47.67317804993922 3.304813215576662 0 0 0
898 1 26.683962817836697 46.418905088594094 4.989991775776222 0 0 0
899 1 28.267739113128933 47.971366230647874 3.3164942273121376 0 0 0
900 1 33.62137783132375 45.936059424622364 4.8107788169403385 0 0 0
972 1 31.610769043631397 47.190978228721306 6.169884608121664 0 0 0
180 1 4.4846429827882295 49.45720131799759 5.110407041089984 0 0 0
181 1 6.0973342393336765 50.90165031932243 3.8032958061384883 0 0 0
182 1 10.828366586336418 49.15905799235865 5.32289491826823 0 0 0
97 1 12.62530628165244 50.76501749397068 3.80573336146383 0 0 0
183 1 17.67456919856819 49.20952350282198 4.805829292843985 0 0 0
1354 1 19.622332900591246 50.997235801286514 3.3195673073243817 0 0 0
902 1 23.773582845758135 49.5623371602861 5.107449155416407 0 0 0
821 1 25.392163153947862 50.8850957746512 3.4246888951746683 0 0 0
903 1 30.29854410825106 49.00231694363561 4.683163587532174 0 0 0
277 1 4.472159380236056 0.9702991672992187 8.182195977717356 0 1 0
185 1 5.612138958162201 2.828780238980757 6.741679684945512 0 0 0
279 1 10.632571316896206 1.144132472083165 8.385749502524307 0 1 0
102 1 12.659561499003676 2.5673632282000574 7.008034204727165 0 0 0
282 1 17.771961157259607 0.9837507278527864 8.83958315869054 0 1 0
978 1 23.7560264573819 1.2896039782661788 8.495388652701086 0 1 0
910 1 31.495442356244272 2.6719414315275656 6.784810229182161 0 0 0
979 1 30.27326680353864 1.0453118038881128 8.421326722955051 0 1 0
194 1 2.4806851715576217 5.718601371306514 6.638611530376744 0 0 0
190 1 1.1127978131874023 3.9666451915113283 8.183513660363236 0 0 0
290 1 5.67487192079549 5.752098106228387 9.390816224125949 0 0 0
191 1 7.458877007833386 4.322384402156054 8.111894263281574 0 0 0
106 1 9.154169831625937 5.874560077320044 6.561384546260683 0 0 0
193 1 14.400687080995308 4.4784698060732575 8.296103070420475 0 0 0
740 1 18.86546724245889 2.930406730489085 6.722735074613014 0 0 0
911 1 20.265695605313716 4.9048894807779195 8.081609956349741 0 0 0
908 1 25.131442919822714 2.897888925430007 6.684617848729509 0 0 0
914 1 27.114216360732293 4.309634404792847 8.037912287701223 0 0 0
990 1 31.354337870187983 5.576907974937952 9.42394811781122 0 0 0
915 1 33.63564297598978 4.514180817093428 8.13065972512961 0 0 0
204 1 -0.1669987135635742 8.865994455709773 6.623531079610187 0 0 0
195 1 4.40072800970084 7.467406354519131 7.682298066017334 0 0 0
196 1 10.780249625498737 7.560402015350126 8.153723630857053 0 0 0
103 1 15.419452750032512 6.29692157235896 6.4048314102546025 0 0 0
198 1 17.50337824867698 7.656662275824785 7.690111611702191 0 0 0
829 1 22.306143340012174 6.21321608439272 6.552245183593048 0 0 0
916 1 23.771640846391524 7.880088939255314 8.138383108020827 0 0 0
913 1 25.7648954705171 6.363402051709903 9.240505435627636 0 0 0
832 1 28.34076629143648 6.1145283516951725 6.3346920127243616 0 0 0
917 1 29.663690638694295 7.619934468929405 8.265271059149386 0 0 0
200 1 1.2018934414678235 10.607358219591514 8.299473754606124 0 0 0
111 1 6.015982901374721 9.381491868616134 6.404964546602649 0 0 0
201 1 7.3676537825079444 10.468305844852685 8.454149831677839 0 0 0
202 1 12.37338433492432 8.998774426850105 6.274949226442926 0 0 0
203 1 13.982522827664114 10.536436386995511 7.851029885867843 0 0 0
197 1 15.96745357959184 9.281195465118545 9.439423873893427 0 0 0
918 1 20.35566038213813 11.076109464851626 7.883609830328837 0 0 0
836 1 24.974789717663132 9.749314036502335 6.58482633060854 0 0 0
919 1 26.946771483586936 11.052796536899463 8.00211429425025 0 0 0
841 1 31.666553473963383 9.166308555776498 6.760874789610163 0 0 0
921 1 33.29992456307314 10.457716480823535 8.487845355812349 0 0 0
205 1 2.6842110386073275 12.077216736064742 6.654535670629595 0 0 0
207 1 4.327711333079459 13.601307215111207 8.324853341440589 0 0 0
119 1 8.957018849488282 12.344964253701475 6.876059168137774 0 0 0
210 1 10.627912566226827 13.84041837188646 8.530930398371158 0 0 0
121 1 15.867510231696826 12.196102128883652 6.707591004832977 0 0 0
211 1 17.291960768446703 14.154009191364025 8.152115586603315 0 0 0
924 1 23.866081443123512 14.050812197881019 8.428437205531564 0 0 0
925 1 28.503608131787118 12.753355584759388 6.527756774528462 0 0 0
926 1 30.015091760115023 14.530672840609558 8.255846948877979 0 0 0
1000 1 31.36122429925712 12.286113922269232 9.292546223139443 0 0 0
843 1 34.48912834656914 12.747747112317986 7.032932664278476 0 0 0
22 1 -0.23164195683446223 15.796802401873157 6.799541842723761 0 0 0
213 1 1.5602058749960979 17.248342213239333 8.088645406183806 0 0 0
123 1 5.757173437070973 15.514064989867741 6.432822786728485 0 0 0
214 1 7.500714283445489 17.264471336987786 7.917315080988795 0 0 0
209 1 12.576990812283219 15.07049196601289 6.433398429563802 0 0 0
216 1 14.029371527829172 17.058232920764485 7.700494785214399 0 0 0
1316 1 19.04117384610973 15.626730056631311 6.524185345580259 0 0 0
928 1 20.530063714433172 17.477605270982536 8.238385889282032 0 0 0
845 1 25.03616157045654 15.771451780297722 6.677378566116831 0 0 0
929 1 26.686838766274956 17.28219597521869 8.11084630545022 0 0 0
850 1 31.156999994670855 16.0117371668393 6.508860313493768 0 0 0
931 1 32.70548930163479 17.3872981060052 8.035735374892287 0 0 0
219 1 4.663676924259797 20.28958206680249 8.056748848578808 0 0 0
126 1 9.479287712946645 18.76766626695384 6.601967003507274 0 0 0
221 1 10.682889663230897 20.27107224654579 8.295620626278252 0 0 0
134 1 16.030581414066774 18.711663854734876 6.5335519178087145 0 0 0
225 1 17.39526655816247 20.420741409060273 8.230647316184614 0 0 0
852 1 22.132003761070358 18.617000498055518 6.483466739982159 0 0 0
932 1 23.50881381547819 20.197658445054987 8.39931870628523 0 0 0
933 1 28.257693026225457 19.10044374566266 6.840158981867879 0 0 0
934 1 30.00521235027363 20.61182097422436 8.530442917139617 0 0 0
707 1 -0.09063456042341028 22.114793624913283 6.449805466225469 0 0 0
226 1 1.838699272850035 23.236289775599808 8.154072888915662 0 0 0
132 1 6.4235706567155635 21.635598153682395 6.850051616252357 0 0 0
227 1 7.7509033456227305 23.491156194002752 8.330060436998643 0 0 0
222 1 12.276237947422853 21.77432825070406 6.639611473481474 0 0 0
229 1 13.694874382915952 23.543514057767375 8.009691085292516 0 0 0
927 1 19.178571436013605 21.807576084068472 6.62966387098694 0 0 0
935 1 20.358334441574254 23.55944120696965 8.418459903449884 0 0 0
936 1 25.367655855922393 22.030189013703932 6.924400199971899 0 0 0
937 1 27.00479988728016 23.546302316561874 8.60081716501351 0 0 0
856 1 31.76430231828764 22.0646515694128 6.966594594463187 0 0 0
939 1 33.15517659665035 23.85972414407327 8.468941294810936 0 0 0
232 1 3.502325061662059 24.84008335425807 6.705843907593139 0 0 0
233 1 4.71818479306612 26.722236278196412 8.172415963870451 0 0 0
228 1 9.390760801368833 25.256413151346308 6.592626704588579 0 0 0
235 1 15.622790874052779 24.655624483129042 6.556321606441515 0 0 0
236 1 16.920963109116787 26.433023679436275 7.971625953220295 0 0 0
864 1 21.86713500058879 24.984889308031725 6.7514763483913 0 0 0
942 1 23.457085241213687 26.794349319759036 8.364257043411444 0 0 0
867 1 28.332784910239752 24.90895886871756 6.632502977330676 0 0 0
943 1 29.82533188386348 26.56925370050261 8.309296687627892 0 0 0
940 1 34.62378701100129 25.103544924344178 6.650447818976374 0 0 0
52 1 -0.14849034991968896 27.899929546361207 6.725395971607805 0 0 0
238 1 1.0744455181944792 29.430474626358976 8.381588522399769 0 0 0
151 1 5.750087643389417 28.414956515922704 6.364902149899148 0 0 0
239 1 7.535933072539469 29.880449492639162 7.987279486024486 0 0 0