

read_data data.ice_${TEMP}K_${PRES}atm_ML group ice
read_data data.ice_288K_${PRES}atm_ML group ice
read_data data.ice_288K_1atm_ML group ice
Reading data file ...
  orthogonal box = (-0.020644516 -0.018350681 -0.018350681) to (57.291155 50.925471 50.925471)
  3 by 1 by 2 MPI processor grid
  reading atoms ...
  4608 atoms
  reading velocities ...
  4608 velocities
  read_data CPU = 0.016 seconds
read_data data.liq_${TEMP}K_${PRES}atm_ML add append shift ${X_HI} ${YZ_LO} ${YZ_LO} group water
read_data data.liq_288K_${PRES}atm_ML add append shift ${X_HI} ${YZ_LO} ${YZ_LO} group water
read_data data.liq_288K_1atm_ML add append shift ${X_HI} ${YZ_LO} ${YZ_LO} group water
read_data data.liq_288K_1atm_ML add append shift 50.9254706806404 ${YZ_LO} ${YZ_LO} group water
read_data data.liq_288K_1atm_ML add append shift 50.9254706806404 0.0183506806425129 ${YZ_LO} group water
read_data data.liq_288K_1atm_ML add append shift 50.9254706806404 0.0183506806425129 0.0183506806425129 group water
Reading data file ...
  orthogonal box = (-0.020644516 -0.018350681 -0.018350681) to (104.32457 50.925471 50.925471)
  3 by 1 by 2 MPI processor grid
  reading atoms ...
  4608 atoms
  reading velocities ...
  4608 velocities
  read_data CPU = 0.012 seconds

write_data data.icewater_test
System init for write_data ...
WARNING: Communication cutoff is 0.0. No ghost atoms will be generated. Atoms may get lost. (../comm_brick.cpp:167)

# Define potential
#
pair_style sw
pair_coeff * * ../ML_mW.sw mW
Reading sw potential file ../ML_mW.sw with DATE: 2019-02-27

# Delete water and ice atoms that are overlapping
#
delete_atoms overlap 2.5 water ice
System init for delete_atoms ...
Neighbor list info ...
  update every 1 steps, delay 10 steps, check yes
  max neighbors/atom: 2000, page size: 100000
  master list distance cutoff = 6.0032907
  ghost atom cutoff = 6.0032907
  binsize = 3.0016454, bins = 35 17 17
  2 neighbor lists, perpetual/occasional/extra = 1 1 0
  (1) command delete_atoms, occasional, copy from (2)
      attributes: full, newton on
      pair build: copy
      stencil: none
      bin: none
  (2) pair sw, perpetual
      attributes: full, newton on
      pair build: full/bin/atomonly
      stencil: full/bin/3d
      bin: standard
Deleted 676 atoms, new total = 8540

# set timestep
#
timestep 10.0

# Define output
#
compute 1 all msd
thermo 50
thermo_style custom step temp press vol etotal ke pe c_1[4]

# Neighbor lists
#
neigh_modify delay 0 every 1 check yes

# Set fixes
#
fix 1 all momentum 10 linear 1 1 1 rescale
fix 2 all nph iso ${PRES} ${PRES} ${PCOUPL}
fix 2 all nph iso 1 ${PRES} ${PCOUPL}
fix 2 all nph iso 1 1 ${PCOUPL}
fix 2 all nph iso 1 1 10000.0
fix 3 all temp/csvr ${TEMP} ${TEMP} ${TCOUPL} 837492
fix 3 all temp/csvr 288 ${TEMP} ${TCOUPL} 837492
fix 3 all temp/csvr 288 288 ${TCOUPL} 837492
fix 3 all temp/csvr 288 288 5000.0 837492


# Fix ice atoms in place
#
velocity ice set 0.0 0.0 0.0
fix 4 ice setforce 0.0 0.0 0.0

# Run 1.0 ns equilibration of water
#
dump 1 all atom 1000 eq.all.${NAME}.dump
dump 1 all atom 1000 eq.all.coexist_288K_1atm_ML.dump
run 100000
Neighbor list info ...
  update every 1 steps, delay 0 steps, check yes
  max neighbors/atom: 2000, page size: 100000
  master list distance cutoff = 6.0032907
  ghost atom cutoff = 6.0032907
  binsize = 3.0016454, bins = 35 17 17
  1 neighbor lists, perpetual/occasional/extra = 1 0 0
  (1) pair sw, perpetual
      attributes: full, newton on
      pair build: full/bin/atomonly
      stencil: full/bin/3d
      bin: standard
Per MPI rank memory allocation (min/avg/max) = 4.590 | 4.597 | 4.602 Mbytes
Step Temp Press Volume TotEng KinEng PotEng c_1[4] 
       0    133.75969   -317.33767    270804.31   -84497.251    3404.6036   -87901.855            0 
      50    158.10647   -481.46169    270190.03   -84137.498    4024.3056   -88161.804   0.85897089 
     100    166.31178    212.98772    268581.79   -83841.572    4233.1564   -88074.729    1.7622452 
     150    170.72402    508.70789    267591.35   -83516.016    4345.4619   -87861.478    2.7375225 
     200    178.15547    318.40812    268157.24   -83228.919    4534.6157   -87763.535    3.7401961 
     250    181.18319   -66.446406    269302.71   -82955.444    4611.6805   -87567.124    4.8124899 
     300    185.06005    98.950582    270092.08   -82673.417    4710.3588   -87383.776    5.9851301 
     350    191.45061     -108.684    270393.22   -82368.708    4873.0187   -87241.726    7.4057028 
     400    194.30534    290.63305     270114.9   -82183.358    4945.6804   -87129.038    8.7678097 
     450    198.86741    -112.6134     270030.2   -81965.645    5061.7995   -87027.445     10.06523 
     500    203.89369   -148.44733    270027.69   -81760.594     5189.734   -86950.328    11.241767 
     550    205.92211    92.561829    270133.94   -81578.215    5241.3638   -86819.578    12.717955 
     600    210.32882   -161.00222    270273.77   -81374.898    5353.5284   -86728.427    14.519745 
     650    212.11291    211.57893    270226.47   -81204.726    5398.9388   -86603.665    16.239555 
     700    218.86087   -105.58467    270644.39   -80985.953    5570.6957   -86556.649    17.953857 
     750    221.85431    76.455678    271168.69   -80836.674    5646.8882   -86483.562    19.669276 
     800     217.8693    42.023717    271800.58   -80657.082    5545.4572   -86202.539    21.721833 
     850     222.5194   -286.46976    271845.94   -80529.413    5663.8168    -86193.23     23.71607 
     900    231.62943    152.97951    271117.84   -80383.979    5895.6957   -86279.675    25.787469 
     950    232.42674    336.45776    270756.98   -80246.533    5915.9896   -86162.523    28.007111 
    1000    232.18667    102.24584    271198.44   -80069.156     5909.879   -85979.035    30.272989 
    1050    237.76983     302.7988    271887.47   -79963.094    6051.9882   -86015.082    32.201142 
    1100    234.31398   -43.569894    272746.66   -79802.486    5964.0259   -85766.512    34.517842 
    1150     238.6037   -33.344093    272997.69   -79639.436    6073.2126   -85712.649     36.80265 
    1200    243.75238   -35.732805    272654.66   -79560.518    6204.2628   -85764.781    39.345783 
    1250    243.09149    228.57295     271966.2   -79460.208    6187.4411   -85647.649     41.92191 
    1300    248.13234    282.41029    271818.43   -79397.421    6315.7464   -85713.167    44.246219 
    1350    250.28922    143.33434    272523.69   -79249.142    6370.6458   -85619.788    46.836189 
    1400    249.57745   -445.74289    273385.03   -79145.426     6352.529   -85497.955    49.875908 
    1450    253.49301    25.464824    273317.95   -79024.176    6452.1923   -85476.369    52.402588 
    1500    256.59867    -49.50037    272929.74   -78995.746     6531.241   -85526.987    54.674871 
    1550    261.97165    165.77153    272528.59   -78885.714    6668.0003   -85553.715    56.890917 
    1600    258.72923    58.591202    272643.66    -78810.51    6585.4704    -85395.98    59.548333 
    1650     257.6801   -110.47185    273212.04   -78750.544    6558.7669   -85309.311    62.383947 
    1700    258.55888   -372.22698    273668.05   -78678.899    6581.1347   -85260.033    64.946958 
    1750    257.39769   -189.44088    273412.58   -78578.396    6551.5786   -85129.974    67.832678 
    1800    263.44647    233.32216    272715.95   -78545.326    6705.5392   -85250.865    70.297981 
    1850     264.1424    125.12759    272725.19   -78441.003    6723.2527   -85164.256    73.126836 
    1900    263.87129    64.684232    273383.51   -78384.369    6716.3522   -85100.721     76.17236 
    1950    266.97331   -54.005892    273869.49   -78323.878    6795.3083   -85119.187    78.992887 
    2000    268.47343   -82.653632     273826.8   -78219.939    6833.4909    -85053.43    81.286569 
    2050    270.40144    231.42202    273571.49   -78181.895    6882.5649    -85064.46    83.892626 
    2100    270.30301   -137.19626    273714.05   -78140.952    6880.0595   -85021.011    86.785369 
    2150    274.21949     121.1025    273627.63   -78046.172    6979.7463   -85025.918    89.555159 
    2200    269.29229    200.60206    273766.97   -77977.625    6854.3337   -84831.958     93.04885 
    2250    268.48708    78.723363    274151.52   -77959.381    6833.8384   -84793.219    96.518423 
    2300    273.65865   -170.09299    274462.45   -77936.293    6965.4712   -84901.764    100.24913 
    2350    275.59072    -220.8758    274365.32   -77867.934    7014.6483   -84882.583    103.53277 
    2400    273.14662   -107.36036    273958.19   -77871.785    6952.4383   -84824.223    105.80997 
    2450    277.14356    235.28353    273702.73   -77892.252    7054.1731   -84946.425    108.60408 
    2500    275.57567   -213.55199    273959.29   -77902.449    7014.2652   -84916.714    111.56311 
    2550    277.77592   -169.38666    273875.57    -77817.65    7070.2686   -84887.919    114.10822 
    2600    275.39455   -54.390052    273646.45   -77829.424    7009.6553    -84839.08    117.57691 
    2650     274.6264    123.55646     273793.2   -77843.961    6990.1035   -84834.064     120.4072 
    2700    273.35025   -89.446867    274158.26   -77796.208    6957.6215    -84753.83    123.02954 
    2750    280.33188   -247.49207    274384.28   -77754.305    7135.3257   -84889.631    125.84695 
    2800    277.62915    119.97538    274289.73   -77789.026    7066.5328   -84855.559     129.3797 
    2850    275.35053    148.59865    274119.94   -77740.874    7008.5347   -84749.409    132.12836 
    2900    274.86977    170.95121    274122.14   -77701.371     6996.298   -84697.669    134.81932 
    2950    276.33796    161.82947    274427.36   -77686.138     7033.668   -84719.806    137.75984 
    3000    273.06811   -20.831152    274577.54   -77682.267    6950.4399   -84632.707    140.65479 
    3050    279.28286   -40.169805    274335.85    -77655.43     7108.625   -84764.055    142.89146 
    3100    281.18997   -2.4799929    274098.82   -77584.519    7157.1669   -84741.686     146.0585 
    3150    284.61147    295.74031    273911.67   -77545.561    7244.2547   -84789.816    149.41307 
    3200    283.58745   -23.889596    274348.57   -77506.019    7218.1903    -84724.21    152.70371 
    3250    279.78408    64.370818    274971.48   -77470.873    7121.3825   -84592.255    156.22854 
    3300    281.23888   -230.24741    275130.33   -77474.041    7158.4117   -84632.453    160.07663 
    3350     280.7055    -264.0445    274445.55   -77495.103    7144.8356   -84639.939    162.56755 
    3400    285.09796    115.19035    273645.95   -77513.206    7256.6374   -84769.843     165.7496 
    3450    285.35133    155.50029    273680.13   -77568.766    7263.0864   -84831.853    168.51607 
    3500    280.33555    52.586752    274245.23   -77569.349    7135.4191   -84704.768    171.23143 
    3550    280.10535   -377.32933    274798.64   -77551.467    7129.5597   -84681.027    174.79628 
    3600    283.33261   -28.167722    274770.71     -77533.1    7211.7036   -84744.804    177.96327 
    3650    280.11168   0.15939791    274577.84    -77499.71     7129.721   -84629.431    180.89667 
    3700    278.99065      -108.37    274398.96   -77450.072    7101.1871   -84551.259    184.20061 
    3750    284.45833    223.26074    274243.61   -77352.628    7240.3569   -84592.985    187.39404 
    3800     283.1575    52.569234     274502.3   -77348.526    7207.2466   -84555.772    190.50665 
    3850    281.42101    169.39413    275007.77   -77298.985    7163.0475   -84462.032    193.49683 
    3900    287.65925   -246.85239    275303.78     -77266.2    7321.8303    -84588.03    197.25445 
    3950    286.09047   -150.98789    275005.93   -77251.208    7281.8999   -84533.108    200.05408 
    4000    286.01198    -122.9166    274386.65   -77306.789     7279.902   -84586.691    202.74775 
    4050    287.29996   -88.461702     274253.2   -77312.093    7312.6852   -84624.779    205.48529 
    4100    284.28375   -13.133725    274754.29   -77290.099    7235.9131   -84526.012    209.60521 
    4150    281.54436   -56.659093     275210.5   -77330.896    7166.1871   -84497.084    213.05709 
    4200    284.77604   -320.14835    275158.41    -77298.07    7248.4435   -84546.514    216.73289 
    4250     289.6185    90.003112    274535.73   -77274.406    7371.6993   -84646.105    219.53925 
    4300    285.03239   -155.39928    274298.19   -77257.535    7254.9686   -84512.504    223.06931 
    4350    288.33343    194.08743    274254.16   -77258.759    7338.9902   -84597.749    225.86523 
    4400    288.52223    -174.9696    274755.23   -77288.344    7343.7959    -84632.14    229.65121 
    4450    282.51402   -219.98574    275529.92   -77254.892     7190.868    -84445.76     234.4545 
    4500    284.59565   -277.98012    275569.95    -77230.12    7243.8522   -84473.972     237.9171 
    4550    284.02169   -60.892034    274887.04   -77221.788    7229.2429   -84451.031    240.78217 
    4600    288.10625    412.22622    273945.41   -77196.298    7333.2079   -84529.506    243.49538 
    4650    286.31361    259.07962    273932.47   -77207.802    7287.5795   -84495.381    246.64432 
    4700    286.30763    126.62417    274630.51   -77207.051    7287.4274   -84494.478    248.62097 
    4750    282.29823   -115.82445    275418.59    -77234.88    7185.3754   -84420.256    252.83335 
    4800    283.89936   -347.48752    275680.51   -77195.425    7226.1294   -84421.554    256.02999 
    4850    289.19605   -205.08656       275247   -77152.797    7360.9466   -84513.743    257.94546 
    4900    289.14892    68.548654    274734.79   -77162.074    7359.7471   -84521.821    260.12637 
    4950    287.39325    227.93506    274367.96   -77167.833    7315.0598   -84482.893    262.52892 
    5000     288.1691    50.587833    274376.32   -77165.836    7334.8076   -84500.644    265.32755 
    5050    284.11342    225.67598     274543.5   -77176.069    7231.5779   -84407.647    268.10923 
    5100    289.20298   -253.93125    275065.55   -77161.218    7361.1231   -84522.342    270.91743 
    5150    288.70745   -76.983259    275192.12   -77184.175    7348.5103   -84532.685    274.09659 
    5200    291.74628   -172.88769    274792.96   -77135.401    7425.8579   -84561.259    277.76035 
    5250    290.91044    204.27298     274472.1    -77113.14    7404.5833   -84517.723    281.30619 
    5300    296.07815    352.51852     274670.5   -77079.782    7536.1178     -84615.9    284.92468 
    5350    287.96511    54.278366    275094.85     -77062.7    7329.6155   -84392.315    288.37231 
    5400    290.28195   -24.621237    275447.85   -77072.233    7388.5861   -84460.819    291.68098 
    5450    286.74083   -168.06673    275539.06   -77055.746    7298.4536   -84354.199    295.60401 
    5500    288.96552   -151.77905    274973.13   -77061.037     7355.079   -84416.116     298.4688 
    5550    292.60837    66.630857    274501.87   -77100.556    7447.8009   -84548.357    301.06823 
    5600    286.66135    279.45628    274608.32   -77068.752    7296.4306   -84365.183    303.90604 
    5650    288.33388     -197.297    275215.02   -77062.832    7339.0019   -84401.834    308.21193 
    5700    293.39839   -222.61827    275666.07   -77010.475    7467.9095   -84478.385    311.17765 
    5750    290.53747    -159.7306    275347.75   -77037.882    7395.0899   -84432.972    313.58938 
    5800    291.91596    106.05755    274751.38    -77059.04    7430.1769   -84489.217     315.5619 
    5850     287.8984    350.54122    274458.27   -77045.671    7327.9174   -84373.589    318.02322 
    5900      290.486    16.623859    274674.03   -77005.586      7393.78   -84399.366    321.54857 
    5950    286.30302    31.546802    275032.02   -76973.188      7287.31   -84260.498    325.70382 
    6000     292.1086   -19.992041    275167.03   -77021.194    7435.0801   -84456.274    329.06856 
    6050    287.86261    150.73463    275206.77   -77069.092    7327.0065   -84396.098    332.45564 
    6100    291.21047   -194.08452       275219   -77067.097    7412.2199   -84479.317    335.61303 
    6150    292.75781    42.660653    274893.83   -77042.755    7451.6047    -84494.36    337.71299 
    6200    295.15883    89.187171    274626.16   -77040.131    7512.7182   -84552.849    340.30905 
    6250    289.23424    180.71854    274936.51   -77005.504    7361.9189   -84367.423    344.05624 
    6300    287.39471    -27.37035    275616.24   -77012.702    7315.0969   -84327.799    347.29578 
    6350    290.47792   -476.04824    275860.28   -77043.105    7393.5743   -84436.679    350.65858 
    6400    293.31907   -150.96703    275271.26    -76979.27    7465.8904   -84445.161     352.7974 
    6450    287.97209    364.65161    274495.41   -76965.716    7329.7931   -84295.509    355.66135 
    6500    289.08508    105.83336     274430.3   -76974.129    7358.1222   -84332.251    359.16593 
    6550    296.28598    4.5243735    275135.55   -76988.445    7541.4076   -84529.853    362.61561 
    6600    285.56785   -356.39127    275763.54   -77062.667    7268.5977   -84331.265    366.77608 
    6650    287.54465   -164.71736    275591.24   -77099.301    7318.9133   -84418.214    369.83735 
    6700    286.42651    162.87321    274819.82   -77108.762    7290.4532   -84399.216     372.0097 
    6750    288.01824    29.184283    274423.49   -77138.893    7330.9678   -84469.861    375.14164 
    6800    284.32764    232.16937    274590.31   -77148.198    7237.0305   -84385.229    378.67768 
    6850    284.91033   -57.970996    275124.44   -77153.872    7251.8617   -84405.734    382.06535 
    6900    288.22951   -268.05728    275208.88   -77169.095    7336.3453   -84505.441    385.47457 
    6950    291.08823    265.49408    274901.49   -77153.688    7409.1086   -84562.796    389.27598 
    7000    287.92484   -230.15723    274928.78   -77135.352    7328.5905   -84463.943     392.5988 
    7050     293.6967   -244.49328    274957.28   -77127.361    7475.5024   -84602.864    395.07866 
    7100    285.94464    159.19776     275033.5   -77068.975    7278.1881   -84347.163     398.0461 
    7150    289.58206    84.825653    274946.52   -77081.195    7370.7719   -84451.967    401.21453 
    7200    290.47435   -31.205038    274866.84   -77056.651    7393.4835   -84450.135    404.22381 
    7250    291.09939     47.29017    275094.63   -77019.834    7409.3927   -84429.227    408.12336 
    7300    294.08345    200.65845    275289.54   -77015.082    7485.3464   -84500.428    412.01017 
    7350    285.56711    107.54004    275270.16   -77030.216    7268.5788   -84298.794    415.04094 
    7400    292.12352   -35.960033    275044.57   -77039.097    7435.4599   -84474.557     417.7163 
    7450    289.17744     240.1494    274800.56   -77013.315     7360.473   -84373.788    420.53862 
    7500    291.49639   -6.1949869    274949.48   -77046.877    7419.4975   -84466.375    423.72413 
    7550    290.19604    143.27398    275220.51   -77096.593    7386.3995   -84482.992    426.90734 
    7600    289.67329   -163.72836    275449.39   -77094.985     7373.094    -84468.08    430.26307 
    7650    291.99979    93.561655    275086.09   -77065.038    7432.3107   -84497.349    433.31996 
    7700    293.18318    99.495105    274702.21   -77059.419    7462.4317   -84521.851    435.14501 
    7750    293.44084    100.62695    274571.57   -77084.927    7468.9898   -84553.917     437.2065 
    7800    287.29439    169.74618    274730.91   -77124.727    7312.5436   -84437.271    440.27163 
    7850    286.93029   -49.400498    274968.84   -77112.413     7303.276   -84415.689    444.84024 
    7900    286.95289   -129.05353    275224.42   -77069.387    7303.8513   -84373.238    448.06393 
    7950    288.72407   -76.852081    275237.42   -77082.509    7348.9333   -84431.442    451.43485 
    8000    287.62592    -1.808789    275146.98   -77074.831    7320.9821   -84395.813    452.73244 
    8050    290.12766    103.85116    275155.34   -77092.536    7384.6591   -84477.195    454.80777 
    8100     290.4347   -223.21826     275234.7   -77127.337    7392.4741   -84519.811    457.74187 
    8150    289.96068   -292.64792    274979.84   -77174.204     7380.409   -84554.613    460.42263 
    8200    291.24251    142.83279    274537.74   -77137.752    7413.0355   -84550.787    462.54544 
    8250    289.33977   -87.376101    274609.56   -77137.172    7364.6048   -84501.776    465.82958 
    8300    287.97093   -181.62057    274952.24   -77113.424    7329.7635   -84443.188    469.61792 
    8350     291.2125   -247.10482    275038.12   -77192.119    7412.2716   -84604.391    472.44047 
    8400     286.3584     24.57879    274995.78   -77200.598    7288.7197   -84489.318      474.649 
    8450    286.57806   -241.31259    275191.07   -77192.319    7294.3106    -84486.63    477.79197 
    8500    288.29642   -248.93255    275233.73   -77131.324    7338.0484   -84469.372     479.1949 
    8550    288.79173   -193.71103    275154.21   -77091.213    7350.6556   -84441.869     481.6213 
    8600    288.09895    43.364149     274959.3   -77097.502     7333.022   -84430.524    483.17334 
    8650    289.24083    17.070014    274573.12   -77053.069    7362.0864   -84415.155    485.37001 
    8700    288.74789    321.67588    274574.99   -77027.692    7349.5397   -84377.231    488.37189 
    8750    292.62992    106.48343     275144.3   -77010.683    7448.3495   -84459.033    491.73529 
    8800    293.37756   -103.67741    275697.98   -76997.034    7467.3791   -84464.413    494.17996 
    8850    289.50969   -108.88051    275585.36   -76969.386    7368.9298   -84338.316    496.26203 
    8900    294.06664   -4.0195561    275258.07   -76976.083    7484.9186   -84461.002    498.42012 
    8950    293.34276   -156.31952    275057.51   -76956.766    7466.4934   -84423.259    500.46684 
    9000    289.12065    123.19751    274802.29   -76969.912    7359.0276   -84328.939    502.57715 
    9050    289.80405    48.610632    274959.48   -76949.481    7376.4221   -84325.903    505.69636 
    9100      293.544    49.789221     275341.6   -76964.235    7471.6156    -84435.85    509.18871 
    9150    291.64808   -17.241629    275473.06    -76979.93    7423.3585   -84403.288    511.84475 
    9200    293.38739    60.115689    275137.88   -76939.567    7467.6296   -84407.196    513.22669 
    9250    289.20957    199.84023    274960.26   -76924.114    7361.2907   -84285.405    513.60504 
    9300    290.18717   -167.88156    275258.45   -76979.692    7386.1738   -84365.866    515.92892 
    9350    290.52416   -161.99984    275341.66   -76990.878    7394.7512    -84385.63    517.70142 
    9400     294.6154    120.09544    275113.98   -77037.353     7498.886   -84536.239    521.05828 
    9450    291.06933   -15.181528    274842.35   -77034.661    7408.6276   -84443.289    523.78177 
    9500    290.39406   -2.4295363    274578.56   -77028.248    7391.4398   -84419.688    525.77426 
    9550    293.98825    137.36787    274792.37   -77034.975    7482.9233   -84517.898    528.46089 
    9600    293.30671   -185.15402    275416.72   -77038.138    7465.5759   -84503.714    531.26279 
    9650    294.46776    14.744789    275481.69   -76998.908    7495.1282   -84494.036    535.04301 
    9700    294.18684    144.77777    275178.34   -76999.613    7487.9779   -84487.591    536.77684 
    9750    293.20247    65.787172     274904.8   -77081.239    7462.9228   -84544.162    539.02407 
    9800    286.38356    198.50529    275021.05   -77054.873      7289.36   -84344.233     542.5127 
    9850    289.13005   -367.11114    275286.43   -77054.821    7359.2667   -84414.088    545.59063 
    9900    293.07809    11.331789    275100.23   -77015.623    7459.7567    -84475.38    548.37407 
    9950    293.97499   -246.22669    274908.28   -77022.995    7482.5856   -84505.581     550.8233 
   10000    291.32616    89.972501    274798.07   -77041.585    7415.1647    -84456.75    553.48956 
   10050    291.91982   -16.656184    274856.85   -77042.773    7430.2752   -84473.048    556.84392 
   10100    289.75218    51.475579     275103.9   -77033.469    7375.1019   -84408.571    560.48163 
   10150    285.91158   -78.809181    275092.72    -77027.75    7277.3467   -84305.096    563.34372 
   10200    292.53134   -56.052419     274759.2   -77063.996    7445.8402   -84509.836    564.98791 
   10250    292.28013   -221.47499    274704.93   -77012.202    7439.4462   -84451.648    567.79198 
   10300    288.46853    80.825535     274855.2   -76970.411    7342.4291    -84312.84    569.53883 
   10350    288.97466    -31.92412    275143.86   -76997.069    7355.3116    -84352.38    573.51904 
   10400    291.92165    -143.5362    275410.36   -77018.306    7430.3218   -84448.627    576.98312 
   10450    290.21726    55.662389    275347.57   -76996.856    7386.9396   -84383.795    580.27932 
   10500    290.68234    314.22431    275143.32   -76974.954    7398.7774   -84373.732    583.28846 
   10550    295.75869   -40.075876    275079.67   -76953.846    7527.9865   -84481.832    585.76346 
   10600    290.22921    27.527645    274985.24   -76947.821    7387.2438   -84335.064     588.2851 
   10650    293.49716    42.234154    275111.79    -76977.48    7470.4233   -84447.904      590.918 
   10700    294.77636   -129.36947    275235.21   -77030.453    7502.9831   -84533.436    594.00694 
   10750    289.53855    28.615438    274893.96   -77022.704    7369.6645   -84392.369    596.76298 
   10800    294.37695    99.665701    274572.35   -77030.017    7492.8169   -84522.834    600.28352 
   10850    291.42416   -41.260057    274566.22    -77042.88    7417.6592   -84460.539    602.19373 
   10900    293.35464    140.15224    274775.78    -77044.73    7466.7958   -84511.526    604.25637 
   10950    289.81163    14.613519     275130.5   -77077.679    7376.6151   -84454.294    608.15272 
   11000    289.26076   -150.60233    275220.23    -77107.51    7362.5937   -84470.104    611.56169 
   11050    287.99084   -73.215788    274896.62   -77094.116    7330.2703   -84424.386     614.8985 
   11100    288.92764     234.7201    274421.58   -77140.327    7354.1148   -84494.442    617.23039 
   11150    286.97531    260.93404    274354.01   -77132.118     7304.422    -84436.54    620.77027 
   11200    286.68763   -86.234613    274776.12   -77151.851    7297.0994    -84448.95     624.9712 
   11250    288.74232   -78.489613     274903.8   -77141.798    7349.3979   -84491.196    627.76065 
   11300    284.00192    113.88274    274899.69    -77160.38    7228.7397    -84389.12    631.04877 
   11350    287.79879    231.15564    274898.27   -77175.376     7325.382   -84500.758    635.04304 
   11400    288.55531   -29.682963    274931.71   -77190.164    7344.6378   -84534.802     638.2031 
   11450    287.72075   -46.970956       274762   -77144.224    7323.3956    -84467.62    639.90401 
   11500    289.17783    25.143199    274774.99   -77075.116    7360.4828   -84435.599    642.84173 
   11550    289.07141    144.26009    275053.55    -77062.85    7357.7741   -84420.624    645.60038 
   11600    287.07012   -72.124711    275417.63    -77102.23    7306.8352   -84409.065    648.85054 
   11650    286.69526   -93.594884     275309.9   -77185.743    7297.2939   -84483.037    651.92932 
   11700     293.7313    14.091292    274997.49   -77159.518     7476.383   -84635.901    653.92053 
   11750    289.09926   -35.952371    274730.42    -77191.85    7358.4832   -84550.334     657.0607 
   11800    286.51227     115.6696    274459.35   -77229.206     7292.636   -84521.842    658.85423 
   11850    284.65383   -60.115961    274574.21   -77240.024     7245.333   -84485.357    662.70865 
   11900    286.46008   -19.806558    274888.18   -77229.175    7291.3077   -84520.482     665.8992 
   11950    289.72414   -36.228583    274990.34   -77210.692    7374.3882    -84585.08    667.96255 
   12000     287.6814    179.87068    274783.83   -77230.628    7322.3942   -84553.022    670.50102 
   12050    283.51335   -6.6317687    274718.95   -77257.251    7216.3041   -84473.555    673.38538 
   12100    287.83311    142.17416    274757.33   -77229.763    7326.2555   -84556.018    676.02865 
   12150    287.70678    -25.55153    275006.24    -77184.12    7323.0402    -84507.16    677.96848 
   12200    283.53145    19.535322    274964.65   -77143.048     7216.765   -84359.813    680.28211 
   12250    285.62342    119.72216    274757.94   -77177.099    7270.0122   -84447.111    682.35711 
   12300     287.9224    5.5600539    274679.26   -77089.264    7328.5282   -84417.793    685.42768 
   12350    290.61124    388.19085    274769.79   -77131.131    7396.9677   -84528.099    688.17494 
   12400    288.06463   -123.13927     275101.6   -77099.692    7332.1485    -84431.84    690.90174 
   12450    290.93122   -46.157119    275157.65   -77081.936    7405.1123   -84487.048    692.55455 
   12500    285.87112    94.489147    274954.87   -77097.762    7276.3169   -84374.078    693.43306 
   12550    288.82137    105.70108    274591.09   -77094.886    7351.4099   -84446.296    695.96144 
   12600    286.06826     94.09731     274531.7   -77110.202    7281.3346   -84391.537    699.10837 
   12650    288.37256    23.173667    274935.59   -77127.142    7339.9862   -84467.128    702.19246 
   12700    290.85595    30.318859    275389.24   -77142.797    7403.1963   -84545.993    705.19543 
   12750    287.42761   -86.388304    275396.64   -77134.878    7315.9344   -84450.813    709.63301 
   12800    288.32393   -87.658811    274652.87   -77155.424    7338.7485   -84494.173    710.63849 
   12850    292.72847    374.60365    273984.67   -77189.313    7450.8579   -84640.171    710.86147 
   12900    289.80086    145.80566    274236.27   -77167.769     7376.341    -84544.11    715.75527 
   12950    286.80828   -119.15426    275110.26   -77168.803    7300.1704   -84468.973    720.58959 
   13000    286.96101   -201.05507    275808.07   -77132.462    7304.0579    -84436.52    724.82787 
   13050    284.36216   -338.44931    275611.76   -77104.516    7237.9091   -84342.425    726.83029 
   13100    290.82218    178.94652    274749.58   -77059.879    7402.3369   -84462.216    726.61391 
   13150    294.91427    73.995112    274219.89   -77091.924    7506.4934   -84598.417    727.57023 
   13200    286.88438    271.76441    274359.09   -77106.338    7302.1075   -84408.445    729.20074 
   13250    288.22658   -270.98748    275175.12   -77087.938    7336.2706   -84424.208    734.10999 
   13300     292.2842   -300.47003    275655.52   -77090.423    7439.5499   -84529.973     736.8906 
   13350    289.80202   -310.49102    275515.27   -77085.958    7376.3705   -84462.328    738.21677 
   13400    283.30559   -10.648969    275015.99   -77129.224     7211.016    -84340.24    739.05907 
   13450    288.31686    214.42865    274720.08   -77088.417    7338.5687   -84426.985    740.92372 
   13500    289.78467     152.0164    274615.45   -77074.576     7375.929   -84450.505    742.80579 
   13550    290.98695    257.50185    274623.93   -77065.462    7406.5307   -84471.993    745.51028 
   13600    291.32698    43.794161    274872.62   -77090.308    7415.1855   -84505.494     748.2572 
   13650    283.47884    122.73994    274955.76   -77095.944    7215.4259    -84311.37    750.48604 
   13700    288.02412    85.953383    274672.19   -77112.537    7331.1175   -84443.655    753.23695 
   13750    290.12154   -159.08584    274730.23   -77104.809    7384.5033   -84489.313    755.92964 
   13800    293.37417   -174.95862    274671.53   -77089.589    7467.2929   -84556.881    759.15895 
   13850    283.93631    32.186942    274796.76    -77078.02    7227.0698    -84305.09    760.68394 
   13900    288.03623    263.23755    275119.57   -77101.848    7331.4256   -84433.273    765.01386 
   13950    292.25253   -355.36766    275432.31   -77125.541    7438.7437   -84564.285    771.22585 
   14000    293.20511   -188.62913    275256.85   -77133.832    7462.9897   -84596.822    773.30867 
   14050    287.39858    266.30048    274700.66   -77140.091    7315.1955   -84455.286    775.36857 
   14100    291.13622    330.44221    274419.03   -77110.591      7410.33   -84520.921    777.42555 
   14150    285.32093    178.05076    274788.76   -77124.225    7262.3128   -84386.538    780.23747 
   14200    291.28067   -209.58257    275500.04   -77163.459    7414.0067   -84577.466    782.83079 
   14250    280.89628   -19.162678    275408.67   -77194.376    7149.6914   -84344.067    784.54258 
   14300    291.35504    1.0385957    274621.03   -77197.067    7415.8997   -84612.967    783.71184 
   14350    288.34416    109.91671    273860.11    -77223.27    7339.2634   -84562.533    784.83069 
   14400    288.14147    333.75515    273880.49    -77212.76    7334.1044   -84546.865    787.06001 
   14450     287.3242     20.79247    274632.94   -77202.282    7313.3021   -84515.585     790.6698 
   14500    285.99274   -188.89681    275357.38   -77162.822    7279.4125   -84442.235    795.43298 
   14550    287.08378   -176.86372    275519.09   -77180.478    7307.1829   -84487.661    798.36665 
   14600    281.90847     14.00223    274963.15   -77186.349    7175.4549   -84361.804    799.17234 
   14650    286.92981    130.28488    274361.59   -77171.374    7303.2638   -84474.638    799.48641 
   14700     287.6282   -128.05795    274318.37   -77118.259    7321.0399   -84439.298    801.01423 
   14750    287.04459   -6.0104362    274603.32   -77141.722    7306.1853   -84447.907    805.85939 
   14800    285.40416   -428.00185    275228.13   -77132.284    7264.4311   -84396.715    810.84287 
   14850    287.67375   -164.35113    275088.11   -77140.926    7322.1993   -84463.126    813.90417 
   14900    291.53974      44.4096    274711.66   -77135.256    7420.6011   -84555.857    815.34942 
   14950    287.80747    48.978629    274460.17   -77201.244    7325.6031   -84526.847    817.25808 
   15000    288.68572    83.321298    274443.79   -77206.795    7347.9571   -84554.753     821.8801 
   15050    284.24534    6.2654066     274703.2   -77244.935    7234.9355   -84479.871    824.91473 
   15100    286.78832    166.18748    274947.82   -77252.322    7299.6625   -84551.985    827.07545 
   15150    286.02019    67.742116       275110    -77273.56    7280.1111   -84553.671    830.07467 
   15200    280.70438   -298.93369    275179.56   -77305.575    7144.8071   -84450.382    831.92362 
   15250    290.31187   -8.8703714    274816.98   -77292.564    7389.3478   -84681.911    832.29963 
   15300    284.19588   -31.460573     274480.9   -77287.174    7233.6766   -84520.851    834.67608 
   15350    281.33204    27.455509    274579.42   -77289.043    7160.7829   -84449.826    837.99501 
   15400    282.82843   -311.70905    274849.57   -77308.215    7198.8707   -84507.085    842.28006 
   15450     281.4484   -23.432734    274614.94   -77403.759    7163.7446   -84567.503    844.03767 
   15500    281.68828   -71.592599     274407.9   -77416.572    7169.8503   -84586.422    844.86803 
   15550    282.87782   -15.078617    274339.18   -77435.474    7200.1278   -84635.602    847.14822 
   15600    285.50006   -120.71759     274334.9   -77382.866    7266.8722   -84649.739    849.62753 
   15650    287.35045   -119.98584    274642.32   -77331.655    7313.9704   -84645.626    853.48859 
   15700    287.25671    -46.06993    274949.13   -77295.819    7311.5844   -84607.403     857.0333 
   15750    286.01191   -185.77094    275046.92    -77245.61    7279.9003    -84525.51    860.08267 
   15800    285.89935     116.2757    274751.48    -77264.21    7277.0354   -84541.246    860.92596 
   15850    290.24216    68.799683    274349.53   -77275.224    7387.5735   -84662.797    862.32776 
   15900    280.68151    420.30281    274272.82   -77272.415     7144.225    -84416.64    864.36752 
   15950    287.11408    99.949003    274807.53   -77296.528     7307.954   -84604.482    869.62449 
   16000    284.04792   -382.79911    275119.39   -77259.708    7229.9106   -84489.618    872.75051 
   16050    284.95228    -42.53091    274673.85   -77276.279    7252.9295   -84529.208    874.44242 
   16100    288.49447   -83.136999    274336.42   -77276.333    7343.0893   -84619.423    875.48181 
   16150    284.90368    209.48939    274343.67   -77255.625    7251.6925   -84507.317    878.01635 
   16200    287.72891    85.559182     274793.4   -77175.166    7323.6033    -84498.77    881.19812 
   16250    287.21182   -326.40825    275433.05   -77164.831    7310.4419   -84475.273     885.6495 
   16300    291.36577   -194.71572    275404.22   -77144.016    7416.1729   -84560.189    887.40031 
   16350    290.04146    165.33638    274661.22   -77106.786    7382.4651   -84489.251    887.87076 
   16400     287.2936    7.7948506    274147.66   -77143.547    7312.5235    -84456.07    890.83776 
   16450    290.96847    269.42256    274224.35   -77133.611    7406.0604   -84539.671    893.32188 
   16500    290.34681   -46.304408    274957.89   -77143.741    7390.2372   -84533.978    896.70114 
   16550    282.81634   -77.327921    275534.55   -77214.109    7198.5631   -84412.672     900.3782 
   16600    287.27343   -119.45313    275450.03   -77192.805    7312.0101   -84504.815    902.39211 
   16650    288.03142   -85.111206    274750.94   -77229.393    7331.3033   -84560.696    903.04626 
   16700      286.668   -296.28595    274369.38   -77200.592    7296.5999   -84497.192    903.58274 
   16750    288.69433    255.32966    274370.55   -77171.445    7348.1764   -84519.621    905.42894 
   16800    287.29232     167.0642    274988.86   -77139.385    7312.4908   -84451.876    909.35603 
   16850    289.08117   -297.39754    275577.63   -77121.208    7358.0225    -84479.23    912.48948 
   16900    291.95622   -258.93248     275348.9   -77141.038    7431.2018    -84572.24    914.56135 
   16950    290.87905    33.419197    274498.33   -77137.717    7403.7842   -84541.501     916.5262 
   17000    289.49958    494.57603    274063.23   -77150.277    7368.6725   -84518.949    918.84748 
   17050    292.60052   -49.094465    274705.33   -77127.829    7447.6011    -84575.43    921.84804 
   17100    284.86654   -48.965572    275435.75   -77113.613    7250.7471    -84364.36    926.61161 
   17150    288.98503   -324.83435    275334.04   -77133.404    7355.5755    -84488.98    928.79092 
   17200    289.23138    15.784315    274748.21   -77155.463     7361.846   -84517.309    930.84487 
   17250    284.08395    63.742585    274439.38   -77165.553    7230.8278   -84396.381    931.94798 
   17300    289.06477    9.0379701    274537.59   -77182.828    7357.6053   -84540.434    933.65972 
   17350    291.33871   -275.95434    274879.18   -77211.746    7415.4842   -84627.231    937.99498 
   17400    287.19615    27.705883     274943.5   -77230.635     7310.043   -84540.678    939.84477 
   17450    285.44474    148.69915    274631.46   -77220.851    7265.4641   -84486.315    942.84038 
   17500    288.97639    149.02984    274530.22   -77288.704    7355.3557    -84644.06    945.30835 
   17550    285.70691   -106.19746    274790.18   -77294.939    7272.1372   -84567.076    948.93366 
   17600     281.7201    5.0072271    274971.04   -77298.348    7170.6604   -84469.009     951.9494 
   17650    281.81964   -84.066879    275083.52   -77263.451     7173.194   -84436.645    954.01473 
   17700    284.24431   -52.171467    274968.82   -77288.329    7234.9094   -84523.238    955.03679 
   17750    288.30573    136.26145    274716.59   -77307.491    7338.2852   -84645.776    956.72973 
   17800      282.621   -124.43686    274630.67    -77321.36     7193.591   -84514.951    959.03721 
   17850    282.88466   -75.561263    274581.87   -77357.889     7200.302   -84558.191    961.40615 
   17900    290.88551     196.5901    274451.03    -77314.33    7403.9488   -84718.279    962.60511 
   17950    283.30445   -102.53878    274696.75   -77345.667     7210.987   -84556.654    965.68158 
   18000    283.54618   -77.746399    275007.38   -77341.055    7217.1397   -84558.195    969.30143 
   18050    281.86866    169.26923    275059.69   -77378.089    7174.4417   -84552.531     972.4847 
   18100    288.00989   -18.373456    274851.76   -77383.929    7330.7551   -84714.684    974.93364 
   18150    282.77593     252.9494    274439.48   -77390.218    7197.5345   -84587.752    978.13789 
   18200    287.77517   -35.092782    274118.35   -77392.447    7324.7809   -84717.228    979.16977 
   18250    278.21998     4.803471    274102.29   -77425.208    7081.5713    -84506.78    981.55184 
   18300    283.82643    19.423818    274498.42   -77402.471    7224.2729   -84626.744    984.42067 
   18350    282.74232    -312.8917    274863.66   -77373.553    7196.6791   -84570.232    986.94668 
   18400    280.37367   -129.66499    274705.06   -77402.614    7136.3895   -84539.003    988.16167 
   18450    280.40151    227.80943    273996.03   -77377.417    7137.0981   -84514.515    988.92435 
   18500     284.7481    50.997139    273862.14   -77342.943    7247.7324   -84590.675     990.5735 
   18550    280.91651    178.83948    274277.35   -77315.644    7150.2063   -84465.851    995.45349 
   18600    282.35871    -156.7085    275031.63    -77321.44     7186.915   -84508.355    999.66213 
   18650    284.12557   -392.54337    275360.58   -77290.281    7231.8871   -84522.168    1002.7104 
   18700    285.66328    91.484683    274841.34   -77222.389    7271.0265   -84493.415    1003.2837 
   18750    287.26055    106.56768    274325.01   -77216.966    7311.6821   -84528.648    1004.3066 
   18800    288.78658    152.46103    274126.58   -77154.133    7350.5243   -84504.657    1005.4294 
   18850    293.22343   -160.02299    274451.66   -77164.789    7463.4562   -84628.245    1007.4751 
   18900    285.62357   -149.42009    274938.37   -77210.741    7270.0159   -84480.757    1010.7198 
   18950    280.01252   -109.38137    275148.73   -77256.546     7127.197   -84383.743    1014.7784 
   19000    285.10397     106.5895       274791   -77230.858    7256.7903   -84487.648     1015.998 
   19050    288.78589   -7.1994406     274384.1   -77261.614    7350.5069   -84612.121    1016.7781 
   19100    286.43844    114.46716     274260.9   -77239.425    7290.7568   -84530.182    1018.1102 
   19150    289.53112    31.062922    274675.05   -77231.985    7369.4753    -84601.46    1020.2017 
   19200    288.03896   -133.31749    275067.06   -77214.821    7331.4952   -84546.316    1023.7499 
   19250    286.85925   -242.78342    275120.72    -77201.44    7301.4679   -84502.908    1026.9556 
   19300    284.63888   -269.63008    274950.59   -77199.804    7244.9524   -84444.756    1028.6184 
   19350    291.77251    14.708191    274624.79   -77183.649    7426.5255   -84610.174     1027.685 
   19400    284.81299    63.540541    274309.35   -77163.309     7249.384   -84412.693    1028.4428 
   19450    292.34442    334.43556    274302.38   -77139.703    7441.0825   -84580.785    1030.2663 
   19500    283.62209    22.567552    274811.78   -77135.681    7219.0719   -84354.753    1035.0828 
   19550    281.75477   -180.59643    275138.46   -77171.259    7171.5429   -84342.802    1038.2602 
   19600    287.03374   -249.67523    275052.82   -77190.477     7305.909   -84496.386    1039.4641 
   19650    282.94365    72.751156    274759.01    -77168.49    7201.8035   -84370.294     1039.698 
   19700    287.41413    126.44407     274746.7   -77176.953    7315.5913   -84492.545    1041.4815 
   19750    283.83662    143.64448     274901.3   -77157.244    7224.5323   -84381.776    1044.9461 
   19800    287.24296    157.55605    274843.39    -77148.43    7311.2345   -84459.665    1047.3042 
   19850    289.21928   -210.48216    274880.24    -77156.04    7361.5379   -84517.578    1049.7626 
   19900    285.13405   -14.539276    274655.38    -77135.01    7257.5561   -84392.566    1049.3911 
   19950    288.14011    41.873784    274319.44   -77136.266    7334.0697   -84470.335    1052.3861 
   20000    284.81637    201.26626    274499.67   -77155.526    7249.4701   -84404.996    1055.1088 
   20050    285.82143    93.239877    275017.25   -77170.322    7275.0519   -84445.374    1059.8557 
   20100    283.43184   -1.9217345    275148.34   -77195.261    7214.2294   -84409.491    1061.9503 
   20150    284.88823    36.887092    274841.82   -77249.412    7251.2992   -84500.712    1062.8938 
   20200    287.74884    251.78018    274236.14   -77235.956    7324.1106   -84560.067     1063.972 
   20250    286.16378    84.935096    274286.06   -77234.813    7283.7658   -84518.579    1066.3352 
   20300    284.18721   -136.43566     274919.7   -77232.961     7233.456   -84466.417    1071.1023 
   20350    284.89993   -553.51981    275403.89    -77193.21     7251.597   -84444.807    1076.3257 
   20400    287.63485    175.07323     275007.4   -77191.287    7321.2092   -84512.496    1078.9356 
   20450    285.25066    85.218418    274493.26   -77203.865    7260.5242   -84464.389    1080.1672 
   20500    285.61461    103.12167    274291.95   -77233.122    7269.7877    -84502.91    1082.6744 
   20550    290.63116     121.8714    274586.12   -77213.857    7397.4747   -84611.332    1086.6547 
   20600    286.01416   -329.69929    275419.01   -77201.607    7279.9575   -84481.565    1092.9666 
   20650    284.39985    -161.2824    275668.11   -77221.226    7238.8683   -84460.094    1095.3746 
   20700    286.42782    -311.6371    275357.33   -77238.222    7290.4866   -84528.709    1097.2892 
   20750    282.52382    74.882574    274595.89   -77195.255    7191.1175   -84386.373    1097.3963 
   20800    290.36491    67.843262     273994.5   -77226.558    7390.6977   -84617.256    1097.8761 
   20850    289.23845    423.45706    273832.73   -77201.001    7362.0259   -84563.027     1101.292 
   20900     290.2345   -123.07788    274528.25   -77198.839    7387.3784   -84586.217    1106.3263 
   20950    286.96416   -87.092436    275550.05   -77235.409    7304.1381   -84539.547    1110.5985 
   21000    288.77853   -400.34625    275722.99   -77208.793    7350.3196   -84559.113    1111.8493 
   21050    291.01714   -79.546153    275036.83   -77228.946    7407.2992   -84636.245    1112.8526 
   21100    288.13157     12.60268     274357.3   -77228.127    7333.8524   -84561.979    1113.9208 
   21150    289.54909     69.60347    274182.01    -77225.48    7369.9325   -84595.412    1115.8861 
   21200    281.30072    124.45745    274518.85   -77202.874    7159.9857   -84362.859    1119.8461 
   21250     284.0022   -80.158231     274888.1    -77206.55    7228.7468   -84435.297    1124.5661 
   21300    284.71327   -145.63319    274861.87   -77196.651     7246.846   -84443.497    1126.3877 
   21350    292.64201     13.30944     274305.5   -77202.887    7448.6571   -84651.544    1127.6588 
   21400    286.20828    67.059654    274239.78    -77193.22    7284.8985   -84478.119    1130.4234 
   21450     286.4417   -18.883552    274699.46    -77148.75      7290.84    -84439.59    1134.0573 
   21500    288.44495   -154.56152    275176.73   -77150.278    7341.8288   -84492.107    1136.5289 
   21550    286.70502    25.814771    275203.66   -77131.373    7297.5422   -84428.915    1138.9573 
   21600    285.24656    219.68528    275090.76   -77110.366    7260.4198   -84370.786     1142.168 
   21650    292.82735   -136.65392     274963.4   -77081.949    7453.3746   -84535.324    1145.2018 
   21700    292.33481    122.89812    274857.25    -77050.62    7440.8379   -84491.458    1147.2927 
   21750    292.88855    -614.5752    275224.29   -77079.671    7454.9325   -84534.603    1150.6709 
   21800    291.70349   -26.284168    275152.52    -77049.81     7424.769   -84474.579    1150.4931 
   21850    292.56402    307.10754    274930.82   -77035.647    7446.6721   -84482.319    1152.7596 
   21900    291.15561   -94.056584    274881.46   -77050.669    7410.8237   -84461.493    1154.4926 
   21950    287.39241    264.11624    274830.58   -77054.177    7315.0384   -84369.215    1154.2331 
   22000    289.40134   -108.50467    274903.85   -77053.385    7366.1721   -84419.557    1157.1289 
   22050    292.41334    218.71338    274769.71   -77034.401    7442.8367   -84477.238    1159.2137 
   22100    295.29453     -54.9026    274839.05   -77025.016    7516.1722   -84541.188    1160.3134 
   22150    288.82501     159.9205    275154.55   -77045.444    7351.5025   -84396.947    1163.0801 
   22200    292.17062   -87.089291    275513.89   -76988.685    7436.6587   -84425.344    1167.4149 
   22250    292.62338   -39.533491    275390.64   -76985.287     7448.183    -84433.47    1168.2456 
   22300    297.60666    103.44038    274899.06    -76928.77    7575.0231   -84503.793     1168.912 
   22350    292.90137    199.38326    274773.86   -76944.254    7455.2586   -84399.513    1171.9086 
   22400    289.28544    173.01033    275052.55    -76980.18    7363.2219   -84343.402    1174.3796 
   22450    291.28428   -88.065129    275414.64   -76982.622    7414.0987   -84396.721    1178.0402 
   22500    292.36344   -105.07752    275419.41   -76955.138    7441.5667   -84396.705    1181.5278 
   22550    292.14866    66.377007    275254.55   -76962.418    7436.0998   -84398.518    1183.6534 
   22600    283.11191      59.0743    275062.45    -77006.59    7206.0862   -84212.676    1185.7786 
   22650    291.79027    389.16469    274630.63   -76975.957    7426.9777   -84402.935    1186.2317 
   22700    288.69831    144.24139    274654.38   -76990.737    7348.2777   -84339.014    1188.4928 
   22750    289.56805    46.329633    274995.61   -76979.933    7370.4151   -84350.348    1190.4832 
   22800    289.82316   -168.68981    275381.56   -76993.164    7376.9087   -84370.073    1194.7018 
   22850    286.39651    54.557636    275512.82   -76997.962    7289.6897   -84287.652    1198.8986 
   22900    289.02163    -107.8489    275467.37   -77022.189    7356.5071   -84378.696    1200.8791 
   22950    289.23189   -11.821715    275043.35   -77032.661    7361.8589    -84394.52    1202.2627 
   23000     287.5979   -52.607938    274508.41   -77063.778    7320.2687   -84384.047    1202.2454 
   23050    292.40547    515.61229    274257.48   -77017.053    7442.6366    -84459.69     1204.437 
   23100    289.61826    145.58192    274850.04   -77000.206    7371.6934     -84371.9    1208.1246 
   23150    291.57165    -228.2177    275728.09   -77008.428    7421.4132   -84429.841    1213.1484 
   23200    286.54441   -21.540067    275824.27   -77004.926    7293.4542    -84298.38    1216.0109 
   23250    291.51717   -121.10458       275206   -77024.029    7420.0265   -84444.055    1217.8029 
   23300     294.2303    405.78118    274546.22   -77046.387    7489.0842   -84535.471    1218.3676 
   23350    289.31356   -17.815212    274579.72    -77044.95    7363.9378   -84408.888    1219.4316 
   23400    294.02165   -158.14382     274601.4   -77068.276    7483.7734   -84552.049    1222.2643 
   23450     287.6882   -108.00279    274924.35   -77070.017    7322.5671   -84392.584    1224.5812 
   23500    285.82051    191.08054    275228.98    -77113.59    7275.0287   -84388.618    1228.2808 
   23550    286.90786    -232.4833    275348.65   -77105.339    7302.7051   -84408.044    1230.4768 
   23600    283.51894    175.44608    274937.72   -77074.988    7216.4464   -84291.434     1233.018 
   23650    291.02385    111.59233    274601.94   -77054.364      7407.47   -84461.834    1234.4847 
   23700    295.67376     157.4763    274631.95   -77008.089    7525.8248   -84533.913    1235.9523 
   23750    290.03833   -87.094574    275047.62   -77005.796    7382.3853   -84388.181    1240.5513 
   23800    290.00973     61.74133     275050.6   -76978.483    7381.6575   -84360.141    1242.4065 
   23850    289.97649   -203.25011    275121.35   -76992.681    7380.8113   -84373.493    1244.5722 
   23900    291.91606     59.63362    275158.61   -77009.629    7430.1796   -84439.809    1246.3129 
   23950    287.10914    34.050533    274994.91   -77061.888    7307.8283   -84369.716    1248.6667 
   24000    288.51775   -39.789908    274933.39   -77076.255    7343.6818   -84419.936    1250.4465 
   24050    286.60187    13.234898    274800.98   -77037.826    7294.9166   -84332.743    1252.7735 
   24100    288.65807    166.84193    274642.77   -76996.578    7347.2533   -84343.831    1254.2806 
   24150    289.93998    127.93568    274973.02   -77013.754    7379.8821   -84393.636    1256.1184 
   24200    289.33804   -52.073009    275546.03   -77036.594    7364.5607   -84401.154    1260.6233 
   24250    289.47166   -333.18999    275819.19   -77066.534    7367.9619   -84434.495    1263.6836 
   24300    294.60781   -213.06938    275538.67   -77044.658    7498.6931   -84543.351    1264.8691 
   24350    291.21946   -6.3662896    274911.54   -77058.544    7412.4489   -84470.992    1265.4718 
   24400    294.76369    45.657148    274591.65   -77025.565    7502.6605   -84528.225    1265.4636 
   24450    290.49819    77.307981    274859.39   -77098.196    7394.0904   -84492.287    1268.0932 
   24500    288.03253    3.3753644    275304.17   -77105.342    7331.3314   -84436.673    1271.9609 
   24550    286.61585   -174.00425    275252.85    -77080.55    7295.2724   -84375.822    1273.3618 
   24600    287.53037    -71.51265    274924.04   -77072.086    7318.5499   -84390.636    1276.8475 
   24650    290.48405    377.54993    274654.38   -77067.354    7393.7304   -84461.085    1278.4091 
   24700    295.92196     234.5165    274883.81   -77023.066    7532.1421   -84555.208    1283.1043 
   24750     290.6914   -2.5550844    275343.71   -77006.254     7399.008   -84405.262    1286.3731 
   24800    292.04071   -40.089544    275389.81   -76945.749    7433.3523   -84379.102    1287.2871 
   24850    294.57223    38.797188    275028.75    -76922.94    7497.7873   -84420.727    1285.8313 
   24900    296.10974    37.078024    274690.89   -76911.559    7536.9217   -84448.481    1285.4569 
   24950    295.91218   -165.06644    274637.12   -76950.129    7531.8933   -84482.022    1286.9113 
   25000    290.20091    369.15724    274759.89   -76993.708    7386.5235   -84380.231    1292.4185 
   25050    289.58165    21.351426    275266.25   -77018.735    7370.7615   -84389.497    1296.9808 
   25100    287.63342    18.044627    275299.38    -76966.49    7321.1729   -84287.663    1300.4132 
   25150    293.68712    -91.71771    275186.21   -77000.592    7475.2584    -84475.85    1301.8563 
   25200    294.98103    266.70139     274912.8   -77029.835    7508.1926   -84538.028    1301.7011 
   25250    290.86714   -72.713404    275052.51   -77080.521    7403.4812   -84484.003    1304.7335 
   25300    288.51671    2.6181093    275211.09   -77121.908    7343.6553   -84465.563    1307.8968 
   25350    288.09974    110.51038    274918.36   -77160.713     7333.042   -84493.755     1311.389 
   25400    287.43376    65.915258    274580.71   -77179.073     7316.091   -84495.164    1311.9977 
   25450    296.34561   -78.241539    274410.99   -77131.654    7542.9253   -84674.579    1312.4165 
   25500    288.49163    42.866348    274720.56   -77127.148    7343.0171   -84470.165    1317.3076 
   25550    292.09329   -186.64978    274986.99   -77162.102    7434.6907   -84596.792    1320.6865 
   25600    289.57517   -214.54728    275146.55   -77175.956    7370.5964   -84546.552    1323.7348 
   25650       288.27    90.299092     275126.5   -77180.808    7337.3757   -84518.184    1324.3504 
   25700    290.57186    257.19456    274890.87   -77163.553    7395.9654   -84559.518    1323.9787 
   25750    287.14903    -174.9464    274945.76   -77157.379    7308.8437   -84466.223    1326.0367 
   25800     283.8364     108.3269    274570.63   -77157.008    7224.5267   -84381.534    1329.8987 
   25850     287.5637    91.274081    274385.96   -77148.844    7319.3983   -84468.242    1333.2056 
   25900    288.56201   -108.62664    274675.02   -77097.607    7344.8084   -84442.415    1334.5559 
   25950    289.00262   -118.70036    274803.84    -77133.26    7356.0234   -84489.284    1337.8981 
   26000    286.18224   -32.706185     274656.3   -77115.417    7284.2357   -84399.653    1337.8941 
   26050    288.19497    1.1307418    274639.97   -77198.702     7335.466   -84534.168    1339.6497 
   26100    286.72777   -72.792742     274842.8    -77224.33    7298.1211   -84522.451    1343.0906 
   26150    286.83968   -208.03339    274988.47   -77228.056    7300.9697   -84529.026    1345.3883 
   26200     289.6135    136.83977     274802.9   -77218.874    7371.5722   -84590.446    1347.3801 
   26250    285.90511    304.94863     274540.8   -77204.434    7277.1819   -84481.616     1349.832 
   26300    284.34042    65.845367     274555.9   -77231.485    7237.3556    -84468.84     1353.325 
   26350    284.56628    15.062671    274932.79   -77251.474    7243.1044   -84494.579    1357.0875 
   26400    285.80663   -82.619567    275104.01   -77242.938    7274.6753   -84517.613    1359.5536 
   26450    288.28458   -59.656268    274767.83   -77200.226     7337.747   -84537.973    1360.5261 
   26500    289.61213    231.69442    274254.64    -77212.79    7371.5373   -84584.327    1361.4897 
   26550      290.434    155.70386    274429.12   -77210.691    7392.4564   -84603.147    1364.1692 
   26600    285.99374   -82.652773    275197.62   -77222.955     7279.438   -84502.393    1369.6444 
   26650    286.26036   -55.263335    275385.96   -77206.357    7286.2242   -84492.581     1371.628 
   26700    292.43449   -108.10758    274768.93   -77181.891    7443.3751   -84625.266    1371.7001 
   26750     288.9032     480.1353    273957.06   -77187.126    7353.4926   -84540.619    1371.5423 
   26800    287.52532    610.60994    274218.02   -77244.659    7318.4214    -84563.08    1375.2808 
   26850    285.28543    42.676513    275315.31   -77233.259     7261.409   -84494.668    1381.9809 
   26900     284.1307   -1.1627127    275846.09    -77186.91    7232.0177   -84418.927    1387.5081 
   26950    287.26447   -186.53119    275692.42   -77211.222     7311.782   -84523.003    1389.2592 
   27000    288.74699    156.11235    274967.95    -77214.18    7349.5167   -84563.697    1388.8769 
   27050    287.30427    105.82453    274350.69   -77221.963     7312.795   -84534.758    1389.3146 
   27100    289.32069     105.5544    274213.61   -77191.819    7364.1191   -84555.938    1390.0476 
   27150    288.23242     46.41576    274523.97   -77213.501    7336.4193    -84549.92    1393.9705 
   27200    288.42359   -150.50604    275017.56   -77197.384    7341.2853   -84538.669    1397.1853 
   27250    283.60163   -65.428491    275175.85   -77178.677    7218.5512   -84397.228    1399.2579 
   27300    288.68506     -43.2327    274944.14   -77183.099    7347.9403   -84531.039    1400.8523 
   27350    290.50304   -216.01143    274569.85   -77156.045    7394.2137   -84550.259    1401.2864 
   27400     289.3336    16.056725    274279.01   -77108.123    7364.4479   -84472.571    1403.3031 
   27450    292.59339    12.226982    274730.54   -77146.874    7447.4197   -84594.294    1408.4942 
   27500    291.36763    62.516904    275293.42   -77128.111    7416.2202   -84544.331    1413.8512 
   27550    288.94034   -237.55978    275527.63   -77137.066     7354.438   -84491.504    1418.9305 
   27600    290.02227   -265.89507    275171.86   -77139.969    7381.9766   -84521.945    1418.6855 
   27650    288.44855    442.60712    274686.54    -77160.19    7341.9204   -84502.111    1417.6319 
   27700    286.68956   -99.363499    274606.16   -77173.274    7297.1487   -84470.423    1420.2837 
   27750    287.76193   -134.38104     274611.9   -77141.789    7324.4439   -84466.233    1422.8934 
   27800    291.23982    171.58308    274787.94   -77153.692    7412.9671   -84566.659    1426.7535 
   27850    293.15472    17.627395    275097.35   -77123.338    7461.7072   -84585.046    1429.8452 
   27900    289.57975   -92.665517    275132.31   -77143.196     7370.713   -84513.909    1430.4675 
   27950    289.45072    7.0545999    275035.56   -77157.286    7367.4287   -84524.715    1433.1723 
   28000    282.25941     28.03499    275042.47   -77155.152    7184.3874   -84339.539    1434.2699 
   28050    289.56486    572.90465    274651.46    -77145.13     7370.334   -84515.464    1436.0957 
   28100    285.84771   -34.838473    274863.47    -77163.43    7275.7208   -84439.151    1438.5556 
   28150    288.71645    194.87003    275115.41   -77142.958    7348.7394   -84491.698    1441.4191 
   28200    285.50163    -140.5026    275305.24   -77146.975    7266.9122   -84413.887    1445.9857 
   28250    288.77112   -67.335789    275045.14   -77207.587    7350.1309   -84557.718    1446.9229 
   28300    284.21751    147.86486    274917.43    -77190.78    7234.2272   -84425.007    1447.6394 
   28350    282.67147    33.039198    275143.12   -77180.773    7194.8756   -84375.649     1451.046 
   28400     289.4345   -109.21105    275116.31    -77136.03    7367.0161   -84503.046    1453.6293 
   28450    289.90771   -81.071527    274885.39   -77130.005    7379.0607   -84509.066    1454.6761 
   28500    289.09797   -52.787791    274696.09   -77140.863    7358.4501   -84499.314    1455.8399 
   28550    289.32303    14.821719    274778.44   -77168.341    7364.1786   -84532.519    1457.6074 
   28600     288.9564   -69.242004     275242.9   -77145.331    7354.8468   -84500.178    1461.5081 
   28650     287.3348   -285.99505    275517.43   -77157.828     7313.572     -84471.4    1465.4372 
   28700    290.89635   -240.48029    275318.64   -77166.414    7404.2247   -84570.638    1466.7056 
   28750    289.36885    83.191014    274788.18   -77170.239     7365.345   -84535.584    1467.3959 
   28800    290.11853    215.11205    274434.62    -77192.99    7384.4268   -84577.417    1468.4604 
   28850     285.8251    377.38529    274360.58   -77169.173    7275.1454   -84444.318    1470.6776 
   28900    286.00967    366.79121    274590.26    -77218.12    7279.8434   -84497.963    1472.2714 
   28950    289.38605   -29.645869    275060.67    -77242.72    7365.7827   -84608.503    1474.5635 
   29000    286.73147    -147.1952    275286.43   -77255.838    7298.2154   -84554.053    1477.9348 
   29050    285.17867    52.117643    274993.06   -77247.353    7258.6918   -84506.045    1478.7016 
   29100      285.641    51.649368    274384.83   -77278.509    7270.4596   -84548.968    1479.8379 
   29150    285.19607    252.04024    274190.33   -77273.119    7259.1347   -84532.254     1480.265 
   29200    286.59989   -86.932035    274807.64    -77283.76    7294.8662   -84578.626    1485.5205 
   29250    282.04227   -173.52375     275326.9   -77289.224    7178.8606   -84468.085    1489.2518 
   29300    286.08427   -386.74429    275429.13   -77311.272    7281.7422   -84593.014    1490.2546 
   29350    284.27973   -329.39556    274818.74    -77305.82    7235.8109   -84541.631    1489.6862 
   29400    286.93921    134.50111    273925.05   -77283.606    7303.5029   -84587.109    1488.0613 
   29450    289.50524    236.28332    273769.04   -77257.279    7368.8166   -84626.096    1492.5518 
   29500    285.03195     99.67135    274416.73   -77235.786    7254.9573   -84490.743    1497.2436 
   29550    287.53615   -207.76116    275336.41   -77181.658     7318.697   -84500.355    1503.3184 
   29600    288.58459   -108.03701    275646.09   -77182.921    7345.3831   -84528.304    1505.5172 
   29650    285.29704   -107.84535    275204.04   -77155.457    7261.7046   -84417.162     1507.064 
   29700    288.20785   -185.27495    274682.45   -77154.864    7335.7938   -84490.658    1506.6389 
   29750    289.98083    78.583728    274444.46   -77110.609    7380.9219   -84491.531    1509.1481 
   29800    286.53896   -81.167467    274803.02   -77082.082    7293.3155   -84375.397    1513.4926 
   29850    293.48024   -197.13515    275299.44   -77049.993    7469.9929   -84519.986    1517.1085 
   29900    291.07444   -21.555206    275439.64   -77060.901    7408.7577   -84469.658    1520.5124 
   29950    291.50616   -120.51085       275219   -77060.626    7419.7462   -84480.372    1522.7196 
   30000    290.75782    -192.2789    274660.42   -77041.649    7400.6986   -84442.348    1522.4246 
   30050    289.73629    259.00416    274227.73   -77035.143    7374.6975    -84409.84    1521.7301 
   30100    291.58022    -113.1046    274779.52   -77050.517    7421.6312   -84472.148    1527.9706 
   30150    290.18891    -177.2895    275796.81   -77034.288     7386.218   -84420.506     1533.535 
   30200     286.0762   -271.30543     275968.9   -77059.505    7281.5366   -84341.042    1536.2781 
   30250    289.82431   -60.141282    274973.84   -77078.377    7376.9378   -84455.315    1534.9216 
   30300    287.17678      194.306    274140.43   -77129.081    7309.5499   -84438.631     1534.655 
   30350    284.48184    477.07696    274065.31   -77155.886    7240.9552   -84396.841    1535.5119 
   30400    288.51017   -234.35217    274822.62   -77189.472    7343.4889   -84532.961    1540.6654 
   30450    283.46609   -350.43912     275155.3   -77216.647    7215.1013   -84431.748    1543.6008 
   30500     286.5969    97.296327    274947.73   -77201.782    7294.7901   -84496.572    1547.3887 
   30550    289.88399     162.4347    274737.59    -77142.45    7378.4569   -84520.907    1547.5835 
   30600    289.41893   -96.423619    274878.64   -77111.624    7366.6196   -84478.244    1548.2311 
   30650    291.32769   -58.705971    275171.81   -77064.995    7415.2037   -84480.198    1551.8326 
   30700    288.92355   -5.2416311    275290.65   -77059.531    7354.0106   -84413.541    1551.2837 
   30750     290.8485    135.80865    275155.24   -77046.049    7403.0068   -84449.056    1554.6553 
   30800    286.58732    133.91117    275263.72   -77051.694    7294.5463    -84346.24    1556.9032 
   30850    285.17931    -106.4198    275429.75   -77007.807     7258.708   -84266.515    1559.6915 
   30900    287.85019   -125.13565    275344.36   -76996.888    7326.6904   -84323.579    1562.3527 
   30950    291.91542   -75.199283    275033.55   -77032.542    7430.1631   -84462.705    1562.9845 
   31000    289.69924   -192.08178    274589.49   -77038.825    7373.7546   -84412.579    1562.6545 
   31050    287.14772     63.06766     274306.2   -77062.972    7308.8103   -84371.782    1564.3944 
   31100    290.52062    289.16272    274279.83   -77038.121     7394.661   -84432.782    1563.6897 
   31150    293.90923    262.66321     274633.2   -77019.788    7480.9119     -84500.7    1568.5167 
   31200    290.32787   -143.36255    275297.86   -77050.903     7389.755   -84440.658    1575.2159 
   31250    289.08502   -109.95514    275545.67   -77070.503    7358.1207   -84428.623    1578.7145 
   31300    289.47901     276.1764    275077.18   -77061.163     7368.149   -84429.312    1579.9873 
   31350    290.59991     109.1889    274762.68   -77078.487    7396.6793   -84475.166    1582.6829 
   31400    291.41987   -4.6470898    274714.65       -77087    7417.5498    -84504.55    1583.2981 
   31450    291.43088    86.527976    274860.26   -77096.991      7417.83   -84514.821    1586.2572 
   31500    288.86503    88.021385    275139.76   -77140.016    7352.5211   -84492.537    1591.7822 
   31550    287.10428   -342.64513    275171.06   -77210.354    7307.7045   -84518.058    1593.3794 
   31600    293.32254    103.04063     274820.7   -77161.912    7465.9789   -84627.891    1595.1234 
   31650    286.72814    415.91579    274789.27   -77134.215    7298.1305   -84432.345    1598.1622 
   31700    285.93754    9.0058083    275209.05   -77099.557    7278.0073   -84377.564    1601.7983 
   31750    289.81498   -136.99989    275351.85   -77068.949    7376.7003   -84445.649     1603.707 
   31800    290.05107   -87.836867    275265.92   -77120.474    7382.7096   -84503.183    1605.3869 
   31850    288.71488    146.18636    274937.42   -77098.605    7348.6994   -84447.304    1607.0228 
   31900    290.34641    88.446715    274560.36   -77087.031    7390.2269   -84477.258    1606.2793 
   31950     289.7015    179.77517    274398.32   -77072.837    7373.8121   -84446.649     1607.096 
   32000    290.64259    66.419406    274806.86   -77057.348    7397.7657   -84455.113    1611.6748 
   32050    287.68656   -248.23985    275345.28   -77075.581    7322.5255   -84398.107    1617.2814 
   32100    289.65905   -275.65054    275510.43   -77094.082    7372.7316   -84466.813     1621.281 
   32150    291.02613   -29.099148    275039.91   -77125.913     7407.528   -84533.441    1619.0626 
   32200    289.29172    254.13616    274488.61   -77135.558    7363.3819    -84498.94    1617.6165 
   32250    290.08953    187.14544    274377.84    -77069.38    7383.6885   -84453.069    1619.6337 
   32300    289.15956   -96.512733    274552.58   -77072.355     7360.018   -84432.373    1623.7372 
   32350    289.75315    118.11935     274981.2   -77119.517    7375.1265   -84494.643     1629.639 
   32400    281.54437   -150.25682    275625.12   -77155.638    7166.1873   -84321.826    1633.6845 
   32450    284.75136   -427.45631    275723.45   -77105.429    7247.8154   -84353.244    1637.4784 
   32500    283.22212   -64.974444    275126.86   -77079.005    7208.8914   -84287.896     1638.531 
   32550    292.09306    32.593106    274467.92   -77073.531    7434.6847   -84508.216    1636.4803 
   32600    289.99455    293.38132    274272.43   -77093.196    7381.2709   -84474.467    1635.9456 
   32650    291.16686    33.993497    274791.14   -77082.754      7411.11   -84493.864    1640.4576 
   32700    286.94224   -90.220572    275595.72     -77085.7    7303.5801    -84389.28    1647.0954 
   32750    287.75404   -147.19885    275703.08   -77099.424    7324.2431   -84423.667    1648.6661 
   32800    289.74107    261.77919    274959.06   -77071.538    7374.8192   -84446.357    1648.8495 
   32850     291.7309    24.602893    274429.96   -77063.384    7425.4666   -84488.851    1647.3863 
   32900    289.42195    283.13911    274264.45   -77042.427    7366.6965   -84409.123    1649.3402 
   32950    288.57276    32.033413    274789.32   -77062.544     7345.082   -84407.626    1652.6856 
   33000    288.84044    -376.9167    275566.18   -77070.098    7351.8954   -84421.993    1657.8556 
   33050    285.59833     244.0071    275370.43   -77049.104    7269.3735   -84318.478    1658.4145 
   33100    286.48086   -153.69363    274954.45    -77048.29    7291.8365   -84340.126    1659.6352 
   33150    288.46678    350.29098    274794.21   -77034.644    7342.3844   -84377.029     1662.671 
   33200    287.70308    125.66354    275046.53   -77063.766    7322.9458   -84386.711    1666.1726 
   33250    292.50286   -285.12071    275162.08   -77023.597    7445.1153   -84468.712    1668.7742 
   33300    295.57688   -31.301023    274924.39   -77004.687    7523.3588   -84528.046    1670.3052 
   33350    292.72868    126.57905    274851.86     -77000.6    7450.8632   -84451.463    1673.9471 
   33400    291.01963    39.826544    275031.43   -77006.451    7407.3625   -84413.813    1677.5637 
   33450    295.86941   -18.558855    275113.27   -76987.263    7530.8046   -84518.068    1680.5372 
   33500    292.52776    37.543127    274970.27    -76948.35     7445.749   -84394.099    1683.1434 
   33550    289.38561    65.448765    274986.09   -76889.481    7365.7715   -84255.252    1683.1251 
   33600    294.41124    27.091274    275192.69   -76905.708    7493.6896   -84399.398    1686.5246 
   33650    293.34849   -22.255004    275479.83   -76898.569    7466.6392   -84365.208    1691.6532 
   33700    292.87683    53.226467    275667.57   -76913.696    7454.6342    -84368.33    1694.2611 
   33750    293.08066   -172.33289    275550.62   -76952.675    7459.8222   -84412.497    1694.7612 
   33800    290.98728     3.867776    275137.38   -76978.009     7406.539   -84384.548    1695.4173 
   33850    290.47283    137.54558    274987.22   -77028.972    7393.4449   -84422.416    1696.7095 
   33900     289.9903    128.92832    275009.57   -77026.158    7381.1629   -84407.321    1700.6974 
   33950    286.85794    155.35226    275154.61   -77016.411    7301.4344   -84317.845    1705.9264 
   34000    288.84846   -178.53275    275171.47   -77017.328    7352.0994   -84369.428     1708.233 
   34050    282.80712     166.1873    274677.47   -77059.786    7198.3283   -84258.114    1708.5207 
   34100    289.76932    163.95439    274362.47   -77069.311    7375.5381    -84444.85    1710.4965 
   34150    290.82102   -79.714553    274446.22   -77100.754    7402.3073   -84503.061    1716.0836 
   34200    291.79455   -53.321228    274977.62    -77085.86    7427.0866   -84512.947    1718.1508 
   34250     283.5429    136.48791    275484.76   -77163.534    7217.0562    -84380.59    1723.2806 
   34300    284.53419    142.76457     275556.4   -77188.802    7242.2877    -84431.09    1728.3327 
   34350    286.19637   -80.752994    275374.65   -77164.649    7284.5954   -84449.245    1731.6044 
   34400    282.18246   -144.00812    274902.05   -77203.626    7182.4288   -84386.055    1732.6816 
   34450    288.87415    106.13642    274286.96   -77177.093    7352.7534   -84529.846    1733.4294 
   34500    287.42549    317.62141    274114.37    -77214.23    7315.8803    -84530.11    1733.9862 
   34550    292.80868    36.880032    274480.01   -77164.978    7452.8995   -84617.877    1737.5371 
   34600    289.74008    -335.7553    275108.97   -77144.904     7374.794   -84519.698    1741.9214 
   34650    285.89978   -108.74823    275475.58   -77143.955    7277.0462   -84421.001    1747.9562 
   34700    284.46046    31.332599    275314.13   -77121.734    7240.4111   -84362.145    1749.8046 
   34750     284.0843    207.76051     274919.2   -77219.776    7230.8367   -84450.613    1752.1531 
   34800    286.00978    43.727496    274717.34   -77199.086    7279.8462   -84478.932     1752.314 
   34850    285.36832    110.01434     274650.7   -77231.472     7263.519   -84494.991    1756.0091 
   34900    286.74935   -90.390159    274876.59   -77213.205    7298.6704   -84511.875    1760.6827 
   34950    289.60491   -61.784699    275001.26   -77235.887    7371.3535    -84607.24    1764.1529 
   35000    289.75779   -253.92219    275171.51   -77220.962    7375.2448   -84596.207    1767.4329 
   35050    282.35445    216.08642    275165.15   -77246.106    7186.8065   -84432.913    1770.9524 
   35100    289.63045    378.64393    274839.93   -77241.619    7372.0036   -84613.622    1770.5048 
   35150    285.35148   -156.79484     274695.4   -77232.616    7263.0904   -84495.706     1773.179 
   35200     286.1286    168.28682    274689.06   -77207.442    7282.8705   -84490.312    1775.7292 
   35250    290.43948    48.778769    275033.07   -77220.586    7392.5959   -84613.182    1780.0106 
   35300     290.5744   -364.16842    274969.24   -77151.884      7396.03   -84547.914     1781.629 
   35350    283.74367    150.28624    274613.64   -77153.237    7222.1665   -84375.403    1782.3603 
   35400    289.92715    24.760438    274615.98   -77137.497    7379.5554   -84517.052     1785.287 
   35450     284.4643    227.88409    274891.17    -77167.52    7240.5088   -84408.029     1786.856 
   35500    288.32612   -144.38705    275335.44   -77170.355    7338.8041   -84509.159    1790.1558 
   35550    289.68718   -269.46027    275336.99   -77179.307    7373.4475   -84552.754    1794.2908 
   35600    284.70989    44.275671     275135.6   -77118.636    7246.7599   -84365.396    1796.4059 
   35650    293.67648     189.1267    274605.56   -77123.865    7474.9877   -84598.853    1796.8167 
   35700    286.64541    280.49003    274371.43   -77135.653    7296.0249   -84431.678    1797.1422 
   35750    288.38932   -162.05658    274705.55   -77115.613    7340.4128   -84456.026    1800.3344 
   35800    286.14237    55.169955    275032.39   -77110.366     7283.221   -84393.587    1804.3968 
   35850    286.58296    135.26069    275057.93   -77112.944    7294.4353    -84407.38     1807.186 
   35900    294.64816   -199.65286    275145.37   -77075.859    7499.7199   -84575.579    1808.7799 
   35950    288.97081    214.29761    275004.63   -77098.935    7355.2136   -84454.148    1809.5391 
   36000    292.62804    31.258949    275043.87   -77099.623    7448.3016   -84547.924    1810.0733 
   36050    288.55168    23.720736    275159.01   -77157.027    7344.5456   -84501.572    1812.2417 
   36100    289.88654   -243.00623     275248.1   -77105.668    7378.5219    -84484.19    1812.8092 
   36150    288.38965    293.80404    274825.38   -77122.301    7340.4212   -84462.723    1812.9034 
   36200    286.10733     203.3191    274653.61   -77150.076     7282.329   -84432.405     1814.992 
   36250    284.75971   -83.213556    275105.74    -77164.03     7248.028   -84412.059    1820.0077 
   36300    288.70179   -393.27993    275321.88    -77179.22    7348.3663   -84527.587    1824.5297 
   36350    288.13506     25.78164    275043.14   -77193.808    7333.9412    -84527.75    1824.4972 
   36400    290.48968    52.129708    274736.78   -77196.992    7393.8737   -84590.866    1825.3243 
   36450    291.35963   -118.32698    274616.45   -77145.378    7416.0167   -84561.395    1828.3915 
   36500    289.92326    162.72952    274703.13   -77088.076    7379.4565   -84467.533    1834.2282 
   36550    285.99819   -132.25019    275123.34   -77094.868    7279.5511   -84374.419    1836.9027 
   36600     286.5271     168.9996    275088.54   -77157.961    7293.0136   -84450.975    1838.4018 
   36650    287.79234   -23.395415    274809.47   -77166.302    7325.2179    -84491.52     1840.244 
   36700     287.6217    55.111075    274576.24   -77203.331    7320.8746   -84524.206    1841.1857 
   36750    285.86233    11.975013    274743.04   -77193.371    7276.0931   -84469.465    1842.0759 
   36800    286.09624   -1.4031065    274680.38   -77199.559    7282.0467   -84481.605    1841.8016 
   36850    286.72276    58.145302     274649.6   -77181.903    7297.9938   -84479.897    1843.9475 
   36900    286.28289  -0.63675877    274716.96   -77172.871    7286.7977   -84459.669    1847.0646 
   36950    288.33571   -162.25305    274791.59   -77181.044    7339.0484   -84520.093    1848.0556 
   37000    282.46419   -190.20245    275035.62   -77189.133    7189.5997   -84378.733    1851.2864 
   37050    288.57888   -39.516064     274755.9   -77183.718    7345.2377   -84528.956    1850.8046 
   37100    291.22126    213.78675    274358.86   -77121.432    7412.4946   -84533.927    1850.7407 
   37150     289.3522   -145.71444    274503.95   -77105.861    7364.9212   -84470.783     1851.069 
   37200    286.10771    11.065755    274718.85   -77118.199    7282.3386   -84400.538    1856.4184 
   37250    286.97755    43.314074    274968.18   -77144.139    7304.4788   -84448.618    1862.1005 
   37300    287.81366    133.15727    275156.04   -77172.746    7325.7607   -84498.507    1864.2565 
   37350    290.96819   -190.15865    275231.79   -77154.782    7406.0532   -84560.836    1866.9112 
   37400    292.17588    129.94364    274845.16   -77123.914    7436.7927   -84560.707     1867.269 
   37450    282.59071    280.19517    274504.91   -77105.725    7192.8201   -84298.545    1867.4804 
   37500    287.35323    497.10098    274829.61   -77075.125    7314.0412   -84389.166    1870.9623 
   37550    284.86743   -66.056051    275720.41    -77138.76    7250.7697    -84389.53    1876.9535 
   37600    282.74655   -123.42002    276000.37   -77153.063    7196.7867    -84349.85    1881.6074 
   37650     288.6359   -109.57483    275421.45    -77154.65    7346.6892   -84501.339    1879.5914 
   37700    291.74989    -15.32493    274476.42   -77154.491      7425.95   -84580.441    1878.3486 
[...]
   90850     281.6948    153.76077    274720.46   -77233.934    7170.0163    -84403.95    4324.9608 
   90900    290.43197    312.06352    274259.37   -77233.656    7392.4047    -84626.06    4325.7212 
   90950    289.74915    155.12044    274332.89   -77235.457    7375.0249   -84610.482    4330.2328 
   91000    284.45408    68.469201    274867.93   -77255.118    7240.2487   -84495.367    4339.2237 
   91050    283.14645    -412.1391    275360.51   -77280.699    7206.9655   -84487.664    4345.5711 
   91100    285.22673   -106.99651    275129.09   -77224.614    7259.9149   -84484.529    4344.6875 
   91150     285.3671    -7.121143    274917.63   -77190.323    7263.4878   -84453.811    4341.2439 
   91200    287.83551    29.853562    274749.57   -77208.576    7326.3166   -84534.893    4341.0075 
   91250    285.27162     38.17642    274826.84    -77166.95    7261.0576   -84428.007    4344.3772 
   91300    284.79244   -73.641205    275199.75   -77174.476    7248.8611   -84423.337    4349.9502 
   91350    284.32852   -155.62049     275058.8   -77187.319    7237.0529   -84424.372    4348.0258 
   91400     288.4437    95.602735    274383.41   -77217.357    7341.7969   -84559.153    4341.4465 
   91450    288.69133    229.48501     274167.6   -77171.868    7348.0999   -84519.967    4342.4416 
   91500    284.23209    37.298395    274726.17   -77222.068    7234.5984   -84456.666    4347.2307 
   91550    284.40168   -146.65931    275294.21   -77178.887    7238.9149   -84417.802    4357.7304 
   91600    288.42823   -365.72392    275356.62   -77187.963    7341.4033   -84529.366    4359.0831 
   91650    286.35952    260.78299    274907.12    -77162.41    7288.7481   -84451.158    4356.4803 
   91700    286.65897    341.93754    274582.73   -77181.751      7296.37   -84478.121    4357.2929 
   91750    288.11312    7.6895346       274818   -77158.222    7333.3827   -84491.605    4359.6227 
   91800    290.64215   -13.896842     274860.2   -77170.065    7397.7545   -84567.819    4360.5579 
   91850    290.47625   -79.876549    275043.57   -77166.849    7393.5317    -84560.38    4365.3427 
   91900    288.37802   -69.316161    275193.23   -77152.715    7340.1254   -84492.841    4370.2333 
   91950    287.39053    11.582428    274951.08   -77139.227    7314.9905   -84454.218    4371.4616 
   92000     285.7553    30.621759    274594.91   -77196.946    7273.3688   -84470.314    4370.2861 
   92050    285.37518    372.46609    274499.88   -77210.766    7263.6936    -84474.46    4375.4458 
   92100    288.89363   -2.6900168    274786.47   -77176.736    7353.2491   -84529.985     4382.948 
   92150    278.14962    141.98567       274800   -77208.926    7079.7804   -84288.707    4383.5785 
   92200    283.98161   -94.599635     274756.9   -77176.322     7228.223   -84404.545    4383.5951 
   92250    282.28566    89.657483    274762.37   -77142.506    7185.0555   -84327.561    4384.9695 
   92300    288.93475    44.848956    274734.97    -77135.18    7354.2957   -84489.476    4388.8954 
   92350    287.15044    -123.0538    274839.43   -77098.608    7308.8796   -84407.487    4391.4687 
   92400    289.57122  -0.40819761     275021.6   -77129.397     7370.496   -84499.893    4396.7986 
   92450      285.674   -21.089014    275192.79   -77135.072    7271.2994   -84406.371    4401.1026 
   92500    286.02923    124.27763    274965.66   -77183.234    7280.3412   -84463.575    4398.5254 
   92550    287.43051   -274.98759    274701.78   -77209.679    7316.0081   -84525.687    4398.3659 
   92600    290.99365    80.793107    274310.83    -77183.85    7406.7011   -84590.551    4389.9064 
   92650    287.52705    182.47971    274148.32   -77163.197    7318.4654   -84481.663    4389.7933 
   92700    285.06254     110.5944    274515.02   -77167.988     7255.736   -84423.724    4398.2355 
   92750    286.37845  0.062157747    275046.13   -77146.332      7289.23   -84435.562     4404.051 
   92800    286.57667   -125.12549    275222.74   -77147.838    7294.2753   -84442.114    4407.4075 
   92850    288.73481    139.64579    275040.47   -77106.602    7349.2066   -84455.808    4407.8369 
   92900    289.10809    123.60148    274964.62   -77099.961    7358.7079   -84458.669    4408.6114 
   92950    286.80326    -102.6241    274866.36   -77071.824    7300.0427   -84371.866     4409.828 
   93000    295.06996    187.46156    274694.61   -77010.746    7510.4562   -84521.202    4409.7689 
   93050    291.73776    76.549326    274815.93   -76992.088    7425.6411   -84417.729    4414.1359 
   93100    288.32736    141.97935    274965.12   -77019.389    7338.8359   -84358.225    4419.8323 
   93150    290.11221   -234.12444    275171.38   -77051.819    7384.2659   -84436.085    4421.8116 
   93200    288.15449   -5.8433232    274977.09   -77098.744    7334.4356   -84433.179    4420.5957 
   93250    291.77706    60.956912     274655.8   -77100.067    7426.6415   -84526.709    4418.1989 
   93300    288.58941    363.85109    274529.73   -77086.137    7345.5058   -84431.643    4419.0168 
   93350    283.54592   -31.875965    274820.15   -77098.057     7217.133    -84315.19    4424.0363 
   93400    292.92287    53.189628    274943.52   -77063.487    7455.8059   -84519.293    4427.9067 
   93450    292.81624    21.202993    275294.85   -77072.344    7453.0919   -84525.436    4432.7908 
   93500    290.18176   -109.77115    275216.49   -77102.128    7386.0362   -84488.165    4435.6399 
   93550    291.66806   -177.23348    275027.13   -77061.052    7423.8672    -84484.92    4434.7888 
   93600    289.05486   -91.052351    274613.87   -77048.949    7357.3528   -84406.302    4431.3405 
   93650    290.98189     287.5158       274301   -77036.707     7406.402   -84443.109    4429.2981 
   93700    289.57378     143.3395    274638.25   -77001.894     7370.561   -84372.455    4434.4192 
   93750    291.11309   -208.65689    275437.26   -77048.456    7409.7415   -84458.198    4450.6513 
   93800    289.02522   -360.00939    275821.55   -77075.519    7356.5985   -84432.117    4461.9726 
   93850    288.09493    147.55815    275260.49   -77080.214    7332.9198   -84413.134    4460.5034 
   93900     291.3983   -6.5524364    274674.99   -77060.258    7417.0008   -84477.259    4455.7748 
   93950    290.79387    75.583972    274466.47   -77068.894    7401.6162    -84470.51     4453.809 
   94000    291.73394   -25.303586    274870.21   -77127.942    7425.5439   -84553.486     4461.754 
   94050    282.37147   -225.41308    275472.46   -77185.515    7187.2397   -84372.755     4473.397 
   94100    288.28746    60.238849    275420.51   -77195.847    7337.8202   -84533.667    4473.6701 
   94150    289.20441    -196.6183    275010.49   -77223.914    7361.1594   -84585.074    4471.5953 
   94200    288.93217    254.55116    274482.79   -77190.705      7354.23   -84544.935     4466.358 
   94250    282.73773    61.560465    274296.33   -77139.576    7196.5621   -84336.138    4468.2546 
   94300    284.55231    178.36722    274626.76   -77137.317     7242.749   -84380.066    4476.4285 
   94350    287.97996   -275.56768    274991.41   -77158.603    7329.9933   -84488.596    4484.3687 
   94400    285.71741   -60.960821    274984.24   -77153.163    7272.4043   -84425.567    4485.5101 
   94450    283.85616    27.710168    275064.22   -77145.466    7225.0297   -84370.496    4489.1895 
   94500    290.03895   -374.91411    275025.35   -77175.304     7382.401   -84557.705    4492.8239 
   94550     288.2124    61.537751    274553.41   -77158.638    7335.9096   -84494.548    4491.3854 
   94600     289.6426   -8.3294145    274581.03   -77148.954    7372.3128   -84521.267    4490.6627 
   94650     286.3463    149.35796    275065.18    -77170.91    7288.4117   -84459.321    4493.3893 
   94700    287.77065   -236.91243    275512.11   -77151.998    7324.6657   -84476.664    4500.9592 
   94750    287.17362   -116.82418    275333.26     -77196.2    7309.4694   -84505.669    4502.0728 
   94800    286.89486     293.6132     274779.3   -77238.444    7302.3741   -84540.819    4499.8139 
   94850    284.69768   -59.340932    274461.77   -77271.499     7246.449   -84517.948    4498.3063 
   94900    285.52688   -217.34369    274295.97    -77271.77    7267.5547   -84539.324    4499.2966 
   94950    287.34015    337.07979    274183.55   -77233.434    7313.7081   -84547.142     4500.968 
   95000    285.65219    80.616485    274800.06   -77294.729    7270.7443   -84565.474    4512.3242 
   95050    286.09653   -515.63405     275756.9   -77305.836    7282.0542    -84587.89     4522.387 
   95100    279.80981   -180.11849    275799.64    -77265.33    7122.0374   -84387.367     4523.383 
   95150     289.2517   -53.836316    274923.28   -77229.542    7362.3631   -84591.905    4512.7113 
   95200    290.42983    141.16949    273989.18   -77252.676    7392.3502   -84645.027    4503.3997 
   95250    288.94898    347.72585    273595.66    -77277.53    7354.6581   -84632.188    4502.5657 
   95300    284.98316    267.48255     274154.7   -77305.816    7253.7154   -84559.532    4511.7884 
   95350    281.63055   -59.536609    275099.44   -77298.751    7168.3809   -84467.132    4526.4674 
   95400    288.35727   -206.22326    275323.44   -77251.595     7339.597   -84591.192    4531.7654 
   95450    282.00855    164.52362     274908.1    -77234.39    7178.0022   -84412.392    4530.1502 
   95500    286.94269    63.626843    274429.24   -77215.321    7303.5917   -84518.912    4525.5875 
   95550    295.59234    214.06986    274293.32   -77172.236    7523.7525   -84695.988    4526.0749 
   95600    283.36213   -133.86526    274872.21    -77179.69     7212.455   -84392.145    4537.3936 
   95650    288.35283   -247.86834    275310.77   -77147.316    7339.4842   -84486.801    4542.5858 
   95700    285.24807   -296.01533     275431.8   -77131.791    7260.4582   -84392.249    4545.7942 
   95750    285.09818    160.38108    274669.21   -77129.328     7256.643   -84385.971    4538.9969 
   95800    290.75996    268.46887    274062.29   -77120.096    7400.7531   -84520.849    4536.5975 
   95850    290.27538   -196.41194    274264.92   -77114.962    7388.4191   -84503.381    4542.1473 
   95900    288.02539    1.1621293    274807.22   -77122.883    7331.1498   -84454.032    4551.5089 
   95950    288.87064   -405.65126    275474.91   -77106.003    7352.6641   -84458.667    4564.2513 
   96000    285.55826   -249.77496    275562.17   -77094.672    7268.3536   -84363.026    4571.0194 
   96050    286.59939    235.06599    275172.98   -77085.824    7294.8535   -84380.678     4571.284 
   96100     285.8122   -40.507981     274891.3   -77145.472    7274.8171   -84420.289    4570.4536 
   96150    290.83446    272.06116    274627.48   -77170.799    7402.6492   -84573.448    4570.4739 
   96200    284.95219    159.86503    274708.61   -77146.949     7252.927   -84399.876    4571.6337 
   96250    285.22186    188.68913    274810.95   -77172.952    7259.7911   -84432.744    4576.1707 
   96300    285.22022   -215.93923    275143.95   -77137.335    7259.7492   -84397.084    4584.8977 
   96350    290.65092    125.61418    275125.41   -77159.834    7397.9776   -84557.812    4586.5331 
   96400    284.01585    41.020806    274903.25    -77182.01    7229.0944   -84411.104    4589.7329 
   96450    290.33116    124.12157    274831.59   -77148.491    7389.8387    -84538.33    4592.0929 
   96500    285.29167    97.417374    275048.63    -77134.73     7261.568   -84396.298    4596.5056 
   96550    285.91642   -94.408395    275061.39   -77159.081    7277.4698   -84436.551    4597.5829 
   96600    288.17246    388.17196    274786.77   -77222.647     7334.893    -84557.54    4598.6827 
   96650    289.14135   -28.863722    274771.06   -77246.598    7359.5545   -84606.153    4604.6032 
   96700    288.80934   -313.42148    274960.87   -77255.374    7351.1037   -84606.478    4608.9354 
   96750    285.16066   -143.82293    274835.13   -77282.282    7258.2334   -84540.516    4613.2834 
   96800    281.86023   -106.27539    274562.51   -77305.504    7174.2271   -84479.731    4612.4613 
   96850    286.42548    25.212267    274348.58     -77300.8    7290.4271   -84591.227    4615.0357 
   96900    285.34043    64.194085    274453.61   -77274.952     7262.809   -84537.761    4616.3317 
   96950    291.45362   -226.24421    274929.26   -77282.252    7418.4089   -84700.661    4624.4694 
   97000    291.12391   -190.42191       275049   -77208.191    7410.0168   -84618.207    4625.9699 
   97050    287.63594   -249.07848    274828.54   -77206.419     7321.237   -84527.656    4621.7513 
   97100    290.78172    170.31861    274529.07   -77220.884     7401.307   -84622.191    4620.6336 
   97150    283.36118    196.30349    274421.87   -77256.684    7212.4309   -84469.114    4622.2716 
   97200    286.43542   -106.55867    274723.41    -77239.48      7290.68    -84530.16      4628.87 
   97250    285.28203   -221.43019    275323.81   -77237.973    7261.3227   -84499.296    4637.8132 
   97300    286.20672   -78.915909    275456.47   -77179.715    7284.8589   -84464.574    4643.6135 
   97350    286.39834    52.993828    275222.83    -77142.73    7289.7363   -84432.467    4642.9273 
   97400    288.38524    122.59517    274775.62   -77122.524    7340.3091   -84462.833    4639.4963 
   97450    288.23579   -1.0534146    274570.56   -77110.414     7336.505   -84446.919    4639.7251 
   97500    288.95012    15.913449     274621.1   -77131.023     7354.687    -84485.71    4642.3003 
   97550    284.94608   -73.188101    274951.18   -77126.582    7252.7716   -84379.353     4651.159 
   97600    288.13953   -273.15326    275373.04   -77103.081    7334.0549   -84437.136    4662.0355 
   97650    292.98561   -314.17643    275416.17   -77086.723    7457.4028   -84544.126    4663.8486 
   97700    289.93036   -4.8419644    274927.42   -77090.229    7379.6373   -84469.867    4657.1256 
   97750    289.94662    232.45471    274674.49   -77085.646    7380.0511   -84465.697    4659.6158 
   97800    287.70332     128.2629    274942.57   -77104.767     7322.952    -84427.72    4662.7694 
   97850    289.01223   -203.72836    275078.27   -77124.361    7356.2679   -84480.628    4665.8744 
   97900     286.7463   -62.905316    274890.12   -77110.825     7298.593   -84409.418    4665.4822 
   97950       286.54    60.017372    274674.64    -77099.03    7293.3418   -84392.371    4665.8857 
   98000    289.02809    70.625996    274735.31   -77078.301    7356.6716   -84434.973    4669.3679 
   98050    290.12673   -22.184661    275022.61   -77089.541    7384.6354   -84474.176    4675.4086 
   98100    286.74978   -61.342838    275143.42   -77086.907    7298.6813   -84385.588    4679.6862 
   98150    287.22477   -216.48494    274942.21    -77108.42    7310.7715   -84419.191    4679.8142 
   98200    290.99378   -22.395808    274782.59   -77075.906    7406.7047    -84482.61    4682.5016 
   98250    293.07295   -97.244543    274832.25   -77020.576     7459.626   -84480.202    4685.4968 
   98300    287.36455     10.51779     275139.1   -77014.658    7314.3294   -84328.987    4693.0528 
   98350     284.6775    6.6872742    275605.41   -76950.145    7245.9354    -84196.08    4700.3372 
   98400    288.56042   -190.15373    275553.92   -76983.603     7344.768   -84328.371    4701.9952 
   98450    291.82499    89.644711    275023.33   -77014.288    7427.8613   -84442.149    4695.4087 
   98500    293.09276    113.74136    274512.96   -77061.866    7460.1302   -84521.997      4694.38 
   98550    287.90253    145.42771    274566.23   -77056.643    7328.0224   -84384.665    4699.9439 
   98600    290.76421   -14.076221     275037.3   -77053.143    7400.8612   -84454.004    4706.9698 
   98650     293.2752    105.48645     275140.7   -77012.503    7464.7739   -84477.277    4710.4962 
   98700    291.39872   -250.71127    275086.18   -77020.926    7417.0116   -84437.938    4713.5177 
   98750    292.54364   -111.90736    274815.37   -76989.062    7446.1534   -84435.216    4715.5235 
   98800    294.51199    280.59826    274484.97   -77013.547    7496.2542   -84509.801    4714.3271 
   98850    292.48514   -41.535063    274715.15   -77037.532    7444.6643   -84482.196     4721.413 
   98900    288.15012    182.58938       275002   -77035.085    7334.3244   -84369.409    4725.0097 
   98950    291.82754   -118.94717    275369.63   -77023.167    7427.9265   -84451.094    4736.2811 
   99000    288.92772   -349.98346    275336.33   -77025.958    7354.1169   -84380.075     4738.708 
   99050    288.27329    244.41474    274705.77   -77088.489    7337.4596   -84425.948    4733.9385 
   99100    291.35149    333.73416     274207.1   -77045.498    7415.8095   -84461.308    4729.2544 
   99150     286.4553    283.16998    274611.25   -77110.666    7291.1859   -84401.852     4735.982 
   99200    281.03818   -97.423505    275220.25   -77164.812    7153.3033   -84318.115    4745.9162 
   99250    285.35142   -182.12647     275270.6   -77200.755    7263.0888   -84463.844    4746.3637 
   99300    285.28073    374.79143    274635.96   -77214.164    7261.2895   -84475.454    4741.8347 
   99350     285.3469    293.39518    274321.28   -77261.315    7262.9736   -84524.289    4744.3025 
   99400    285.04724    11.763511    274395.79    -77298.48    7255.3465   -84553.826    4751.0751 
   99450    284.42671   -304.82991    274803.87   -77288.839    7239.5519   -84528.391    4760.8492 
   99500    285.91681    85.898574    274988.13   -77284.736    7277.4797   -84562.216     4766.412 
   99550     281.0058   -20.016396    275023.14    -77309.79    7152.4793   -84462.269    4765.5096 
   99600    282.62422     20.34129    274750.38    -77319.97     7193.673   -84513.643    4766.7341 
   99650     284.2319    108.06631     274489.9   -77266.385    7234.5935   -84500.978    4763.3724 
   99700    289.75404    168.55893    274392.65   -77252.284    7375.1492   -84627.433     4764.687 
   99750    287.19142    436.70632    274697.39   -77225.877    7309.9225   -84535.799    4773.2906 
   99800     284.3596   -74.000643       275164   -77245.027    7237.8439    -84482.87     4786.644 
   99850     281.9587    5.0264345    275281.56   -77274.693    7176.7334   -84451.426    4793.0792 
   99900    283.11342   -142.48112    274799.05   -77246.615    7206.1247    -84452.74    4791.9159 
   99950    287.67265    324.16396    274092.16   -77229.256    7322.1713   -84551.427    4785.8938 
  100000    287.46942    285.18859    274224.59   -77237.309    7316.9985   -84554.308     4786.956 
Loop time of 253.821 on 6 procs for 100000 steps with 8540 atoms

Performance: 340.398 ns/day, 0.071 hours/ns, 393.979 timesteps/s
99.5% CPU use with 6 MPI tasks x no OpenMP threads

MPI task timing breakdown:
Section |  min time  |  avg time  |  max time  |%varavg| %total
---------------------------------------------------------------
Pair    | 71.784     | 130.65     | 201.21     | 460.5 | 51.47
Neigh   | 30.714     | 36.152     | 39.92      |  61.3 | 14.24
Comm    | 6.4467     | 80.768     | 144.31     | 623.2 | 31.82
Output  | 0.14516    | 0.14769    | 0.15814    |   1.2 |  0.06
Modify  | 5.0501     | 5.1126     | 5.1767     |   1.7 |  2.01
Other   |            | 0.9867     |            |       |  0.39

Nlocal:        1423.33 ave        1450 max        1383 min
Histogram: 2 0 0 0 0 0 0 1 1 2
Nghost:        2005.67 ave        2051 max        1969 min
Histogram: 1 0 1 2 0 0 0 1 0 1
Neighs:        0.00000 ave           0 max           0 min
Histogram: 6 0 0 0 0 0 0 0 0 0
FullNghs:      39956.0 ave       40522 max       39285 min
Histogram: 2 0 0 0 1 0 0 1 0 2

Total # of neighbors = 239736
Ave neighs/atom = 28.072131
Neighbor list builds = 20643
Dangerous builds = 0

# Create data file for import to other simulations
#
write_data data.${NAME}
write_data data.coexist_288K_1atm_ML
System init for write_data ...

Total wall time: 0:04:13
