
# Create simulation box of size 50 x 50 x 50 Angstrom
#
lattice	            sc 1
Lattice spacing in x,y,z = 1.0000000 1.0000000 1.0000000
region 	            all block 0 ${X} ${YZ_LO} ${YZ_HI} ${YZ_LO} ${YZ_HI} units box
region 	            all block 0 53.4 ${YZ_LO} ${YZ_HI} ${YZ_LO} ${YZ_HI} units box
region 	            all block 0 53.4 -0.018350680642512884.0 ${YZ_HI} ${YZ_LO} ${YZ_HI} units box
region 	            all block 0 53.4 -0.018350680642512884.0 50.92547068064044.0 ${YZ_LO} ${YZ_HI} units box
region 	            all block 0 53.4 -0.018350680642512884.0 50.92547068064044.0 -0.018350680642512884.0 ${YZ_HI} units box
region 	            all block 0 53.4 -0.018350680642512884.0 50.92547068064044.0 -0.018350680642512884.0 50.92547068064044.0 units box
create_box          1 all
Created orthogonal box = (0.0000000 -0.018350681 -0.018350681) to (53.400000 50.925471 50.925471)
  3 by 1 by 2 MPI processor grid

# fill box with 4175 randomly distributed atoms
#
create_atoms        1 random 4608 63782 all
Created 4608 atoms
  create_atoms CPU = 0.000 seconds
mass                1 18.015

# Define potential
#
pair_style          sw
pair_coeff          * * ../ML_mW.sw mW
Reading sw potential file ../ML_mW.sw with DATE: 2019-02-27

# Run minimization
#
minimize            1.0e-8 1.0e-8 10000 1000
WARNING: Using 'neigh_modify every 1 delay 0 check yes' setting during minimization (../min.cpp:187)
Neighbor list info ...
  update every 1 steps, delay 0 steps, check yes
  max neighbors/atom: 2000, page size: 100000
  master list distance cutoff = 6.0032907
  ghost atom cutoff = 6.0032907
  binsize = 3.0016454, bins = 18 17 17
  1 neighbor lists, perpetual/occasional/extra = 1 0 0
  (1) pair sw, perpetual
      attributes: full, newton on
      pair build: full/bin/atomonly
      stencil: full/bin/3d
      bin: standard
Per MPI rank memory allocation (min/avg/max) = 4.234 | 4.248 | 4.253 Mbytes
Step Temp E_pair E_mol TotEng Press 
       0            0    7249632.7            0    7249632.7    4972012.5 
     648            0   -49840.261            0   -49840.261   -439.66671 
Loop time of 1.24403 on 6 procs for 648 steps with 4608 atoms

98.7% CPU use with 6 MPI tasks x no OpenMP threads

Minimization stats:
  Stopping criterion = max force evaluations
  Energy initial, next-to-last, final = 
      7249632.65140952  -49839.9711442032  -49840.2613350499
  Force two-norm initial, final = 1.6664008e+08 4.5666655
  Force max component initial, final = 88613796.0 1.0595573
  Final line search alpha, max atom move = 0.05262531 0.055759529
  Iterations, force evaluations = 648 1001

MPI task timing breakdown:
Section |  min time  |  avg time  |  max time  |%varavg| %total
---------------------------------------------------------------
Pair    | 0.99127    | 1.0718     | 1.1289     |   4.0 | 86.15
Neigh   | 0.025257   | 0.026612   | 0.028657   |   0.7 |  2.14
Comm    | 0.067152   | 0.1241     | 0.20541    |  11.9 |  9.98
Output  | 0          | 0          | 0          |   0.0 |  0.00
Modify  | 0          | 0          | 0          |   0.0 |  0.00
Other   |            | 0.02154    |            |       |  1.73

Nlocal:        768.000 ave         782 max         753 min
Histogram: 2 0 0 0 0 1 1 0 0 2
Nghost:        1574.33 ave        1600 max        1542 min
Histogram: 1 0 0 1 0 1 0 2 0 1
Neighs:        0.00000 ave           0 max           0 min
Histogram: 6 0 0 0 0 0 0 0 0 0
FullNghs:      21924.7 ave       22702 max       21333 min
Histogram: 2 0 0 1 1 0 0 0 1 1

Total # of neighbors = 131548
Ave neighs/atom = 28.547743
Neighbor list builds = 25
Dangerous builds = 0

# Add velocity/set timestep
#
velocity            all create ${TEMP} 120598 rot yes dist gaussian
velocity            all create 288 120598 rot yes dist gaussian
timestep            5.0

# Define output
#
compute	            1 all msd
thermo	            100
thermo_style        custom step temp press vol etotal ke pe c_1[4] density

# Neighbor lists
#
neigh_modify        delay 0 every 1 check yes

# Set fixes
#
fix                 1 all momentum 10 linear 1 1 1 rescale
fix                 2 all nve
fix                 3 all temp/csvr ${TEMP} ${TEMP} 500.0 928347
fix                 3 all temp/csvr 288 ${TEMP} 500.0 928347
fix                 3 all temp/csvr 288 288 500.0 928347
fix                 4 all press/berendsen iso ${PRES} ${PRES} 1000.0 modulus 20000
fix                 4 all press/berendsen iso 1 ${PRES} 1000.0 modulus 20000
fix                 4 all press/berendsen iso 1 1 1000.0 modulus 20000

# Run 0.5 ns equilibration
#
dump                1 all custom 1000 eq.${NAME}.dump id type x y z vx vy vz
dump                1 all custom 1000 eq.liq_288K_1atm_ML.dump id type x y z vx vy vz
run                 100000
Per MPI rank memory allocation (min/avg/max) = 3.484 | 3.499 | 3.503 Mbytes
Step Temp Press Volume TotEng KinEng PotEng c_1[4] Density 
     648          288    864.86175    138587.57   -45885.275    3954.9865   -49840.261 3.4324957e-33   0.99465278 
     700    169.00278    60.668535    139115.46   -44916.188    2320.8461   -47237.034    0.2857622   0.99087848 
     800    214.89744    81.930752    139359.68   -43683.538    2951.0988   -46634.637   0.78513051   0.98914202 
     900    236.32798    82.712724    139464.08   -42949.541    3245.3957   -46194.937    1.4037578   0.98840156 
    1000    256.05339     26.00185    139388.51    -42425.05    3516.2767   -45941.326    2.1268715   0.98893746 
    1100     267.1618    102.75967    139144.58   -42041.201     3668.824   -45710.025    3.0351653    0.9906711 
    1200    273.37114   -79.671733       139279   -41750.741    3754.0944   -45504.835    3.9388883   0.98971503 
    1300     279.6859   -136.85964    139083.24   -41585.265    3840.8124   -45426.077    4.9142398   0.99110803 
    1400    284.88926   -280.59393    138917.98   -41497.853    3912.2679   -45410.121    5.8626903    0.9922871 
    1500    278.70351    75.941521    138927.91    -41413.12    3827.3215   -45240.441     6.938745   0.99221615 
    1600    284.73475    36.369526    138852.26   -41377.011    3910.1461   -45287.157    7.9541108   0.99275671 
    1700    287.46061    57.883903    138756.82   -41357.919    3947.5793   -45305.498    9.0108454   0.99343961 
    1800    280.04385    -108.6563    138313.64   -41362.683    3845.7279   -45208.411    9.9541088   0.99662271 
    1900    285.32165   -151.92984    138114.95    -41237.39    3918.2057   -45155.595    11.058135   0.99805647 
    2000     286.4316    56.169886    138054.61   -41224.415    3933.4483   -45157.863    12.268281   0.99849264 
    2100    286.87328    255.12247    137956.78   -41294.637    3939.5137   -45234.151    13.403492   0.99920071 
    2200     284.0413    172.88087    137899.23   -41222.021    3900.6233   -45122.645    14.618417   0.99961776 
    2300    285.09077    9.6099265    137862.67   -41224.685    3915.0352    -45139.72    15.777903   0.99988284 
    2400     284.8703    14.189155    138056.07   -41206.151    3912.0076   -45118.159    17.063644   0.99848212 
    2500     287.1795   -231.05894    138006.37   -41155.111    3943.7188    -45098.83    18.417481   0.99884167 
    2600    288.39312    4.9505819    138085.17   -41068.651     3960.385   -45029.036    20.098015   0.99827173 
    2700    284.51268       -170.9    138057.45   -41142.269    3907.0965   -45049.365    21.421698   0.99847217 
    2800    287.85504   -94.450998    137872.65   -41152.747    3952.9957   -45105.742    22.262693   0.99981047 
    2900     294.7477    156.52671    137885.23   -41087.103    4047.6499   -45134.753    23.440427   0.99971927 
    3000    293.69377    173.82233    137988.31   -41096.628    4033.1767   -45129.805    24.613243   0.99897243 
    3100    290.72912   -2.6948015     138129.4   -41106.964    3992.4644   -45099.429    25.807272   0.99795205 
    3200    292.90294   -91.771547    138044.05   -41116.624    4022.3165    -45138.94    27.134037   0.99856903 
    3300    284.66594    127.96199    138289.78   -41118.752    3909.2012   -45027.954    28.515711    0.9967947 
    3400    286.39378     235.3634    138316.21   -41123.203    3932.9289   -45056.132    29.554089   0.99660417 
    3500     290.7367   -80.269763    138010.35   -41049.977    3992.5685   -45042.545    30.787614    0.9988129 
    3600    291.44123   -397.57991    138295.14   -41101.435    4002.2435   -45103.678    31.801131   0.99675605 
    3700    291.42973    207.09423    138069.81   -41139.502    4002.0855   -45141.588    32.836318   0.99838272 
    3800    291.29988    134.17588    138246.91   -41103.289    4000.3023   -45103.592    33.959628    0.9971038 
    3900    279.27002   -235.79316    138179.58   -41253.456    3835.1012   -45088.557    34.937452   0.99758965 
    4000    279.73148   -261.04507    137791.85   -41206.361    3841.4382   -45047.799    35.927589    1.0003968 
    4100    286.83584   -167.40924    137776.64   -41141.296    3938.9995   -45080.296    37.142877    1.0005072 
    4200    288.04895   -42.527952    137434.96    -41157.59    3955.6586   -45113.249    38.109358    1.0029946 
    4300    285.43952   -168.98958    137390.15   -41145.762    3919.8244   -45065.587    39.243448    1.0033217 
    4400    289.09965   -106.18316     137408.9   -41114.461    3970.0876   -45084.549    40.262989    1.0031848 
    4500    285.96268    202.05749    137554.39   -41074.983    3927.0088   -45001.991    41.655765    1.0021237 
    4600    289.68265    162.62212    137351.61   -41145.695    3978.0937   -45123.788     42.80118    1.0036032 
    4700    287.94925    43.683818    137845.72   -41211.614    3954.2895   -45165.903    44.061185    1.0000058 
    4800    291.95761    163.29876    138150.11   -41124.857    4009.3347   -45134.192    45.389957   0.99780246 
    4900     291.5812    -245.6053    137962.32   -41217.419    4004.1656   -45221.584    46.603732   0.99916061 
    5000    290.18546   -1.2049126    137878.96   -41170.151    3984.9985   -45155.149    47.636525   0.99976472 
    5100    292.55326   -111.12862    137680.47   -41221.064    4017.5146   -45238.579     48.92421     1.001206 
    5200    281.82803    17.268211    137749.37   -41310.705    3870.2294   -45180.934    49.940169    1.0007052 
    5300    286.94293    6.1859083    137912.09   -41226.762    3940.4701   -45167.232    51.068634   0.99952452 
    5400    290.44406     95.50444    138062.88   -41111.298    3988.5497   -45099.848    52.205439   0.99843285 
    5500     289.4054   -159.25963    138073.21   -41102.321    3974.2862   -45076.607    53.292862   0.99835815 
    5600    296.50287    311.14606    138232.58   -41068.728    4071.7529   -45140.481    54.321285   0.99720716 
    5700    289.52067    20.727611    138148.32   -41119.691    3975.8692    -45095.56    55.382037    0.9978154 
    5800    288.80256   -19.509393    138389.48   -41060.943    3966.0077   -45026.951    56.913294   0.99607652 
    5900    282.36152   -219.48845    138256.16     -41235.8    3877.5555   -45113.355    57.841074   0.99703704 
    6000    286.29753    97.542007    138226.01   -41279.204    3931.6071   -45210.811    58.900963   0.99725456 
    6100      289.869    9.7702756    138158.18   -41229.966    3980.6526   -45210.618    60.522843   0.99774413 
    6200    282.64963    57.808012     138188.4   -41318.291    3881.5121   -45199.803    61.893801   0.99752597 
    6300    289.41987   -212.20413    138126.86   -41295.435     3974.485    -45269.92    63.197492   0.99797041 
    6400    288.40532   -67.197101    137861.67   -41281.141    3960.5525   -45241.693    64.106619    0.9998901 
    6500    284.44414   -70.944744    137869.29   -41312.552    3906.1553   -45218.707    65.269524   0.99983481 
    6600    284.93289    11.481992    137684.99    -41320.11     3912.867   -45232.977     66.41815    1.0011732 
    6700    280.74103    91.355409    138005.36   -41381.097     3855.302   -45236.399    67.990429     0.998849 
    6800    278.57885    53.246691    138002.78   -41326.345    3825.6096   -45151.954    69.022717   0.99886771 
    6900    286.27718   -80.052935    138054.91   -41235.936    3931.3277   -45167.263    70.277922   0.99849048 
    7000    285.26454   -263.24097    137897.24   -41235.855    3917.4216   -45153.276    71.167107   0.99963215 
    7100    283.36776     154.2573    137997.57    -41299.29    3891.3738   -45190.664    72.066501   0.99890539 
    7200    282.61818   -102.03102    138456.04   -41356.641    3881.0802   -45237.721    73.396141   0.99559773 
    7300    287.38605   -63.971036    138506.37   -41312.282    3946.5553   -45258.838    74.937157   0.99523593 
    7400    285.38229    35.189056    138331.01   -41344.611    3919.0385    -45263.65    76.043886   0.99649757 
    7500    285.00483   -239.52504    138153.19   -41257.636     3913.855   -45171.491    76.862652   0.99778021 
    7600    283.71151    54.685939    138350.27   -41236.594    3896.0944   -45132.689    78.121467   0.99635882 
    7700    286.41475    -123.1952    138332.18   -41245.721    3933.2169   -45178.938    79.203496   0.99648916 
    7800    288.23413    90.328247    138336.56   -41268.083    3958.2017   -45226.285    80.567528   0.99645762 
    7900    283.79453    184.24493    138122.66   -41401.387    3897.2344   -45298.622    81.627058   0.99800071 
    8000    285.83449    92.779588    138180.58   -41306.149    3925.2484   -45231.397    82.566126    0.9975824 
    8100     287.9627   -183.92912    138126.84   -41231.119    3954.4742   -45185.593    83.503589   0.99797052 
    8200    290.43377    82.867651    138092.96    -41271.62    3988.4084   -45260.029     84.69102   0.99821536 
    8300    287.94034   -64.046028    138218.97   -41236.688    3954.1672   -45190.855    85.509961   0.99730534 
    8400    288.32916    -193.2414    137938.16   -41320.679    3959.5067   -45280.185    86.346624   0.99933565 
    8500    281.18871     225.8128    138073.26   -41333.289    3861.4499   -45194.739    87.570057   0.99835783 
    8600    287.44457   -93.894822    138025.05   -41254.797    3947.3589   -45202.156    88.725774   0.99870654 
    8700    290.41541   -262.05487    138220.09   -41182.008    3988.1563   -45170.164     90.28988   0.99729729 
    8800    288.00019     326.3089    138204.78   -41178.525    3954.9891   -45133.515    92.098103   0.99740777 
    8900     287.0303     133.3508    138206.76   -41158.109      3941.67   -45099.779    93.488617   0.99739344 
    9000    292.60482    41.478491    138283.34   -41061.899    4018.2226   -45080.122    94.755358   0.99684112 
    9100     291.8655   -14.129605    138076.42   -41097.879    4008.0697   -45105.949    95.703999   0.99833492 
    9200    285.30841    183.44702    138171.26   -41153.127     3918.024    -45071.15    96.874774   0.99764971 
    9300      292.064    148.13697     138197.8   -41083.228    4010.7958   -45094.024    98.241408   0.99745809 
    9400    286.33331    73.874369    138040.11   -41174.243    3932.0985   -45106.342    99.538609   0.99859759 
    9500    287.98042   -185.89488    138056.03   -41213.361    3954.7176   -45168.079    100.66426   0.99848241 
    9600    288.71998    299.98413    138398.59   -41230.177    3964.8737    -45195.05    102.25394   0.99601102 
    9700    289.15826    119.79126     138641.8   -41185.622    3970.8924   -45156.515    103.29602   0.99426374 
    9800     294.4498    116.89082    138695.83   -41160.594     4043.559   -45204.153    104.56715   0.99387641 
    9900    287.39031    -117.2656    138352.84   -41197.632    3946.6138   -45144.246    105.29775   0.99634038 
   10000    288.01748   -57.554426    138532.32   -41289.455    3955.2266   -45244.681    106.77627   0.99504952 
   10100    284.60732    83.070903    138361.06   -41294.381    3908.3962   -45202.777    107.76224   0.99628114 
   10200    285.05136   -83.264883    138292.16   -41313.575     3914.494   -45228.069    109.04729   0.99677751 
   10300    286.73545    88.525086     138473.9   -41252.846    3937.6209   -45190.467    110.48547    0.9954693 
   10400    289.63664   -20.485602    138699.53   -41157.092    3977.4618   -45134.554    111.34577   0.99384994 
   10500    286.34713   -142.82559    138583.65   -41162.536    3932.2883   -45094.825    112.29548   0.99468095 
   10600    289.60269    12.864176    138404.07   -41172.209    3976.9956   -45149.205     113.3011   0.99597158 
   10700    289.57422   -102.95147     137820.9   -41198.481    3976.6046   -45175.086    114.00068    1.0001859 
   10800    290.55255   -15.849568    137968.97   -41112.956    3990.0396   -45102.996    115.05713   0.99911248 
   10900    288.01363    95.968223    137705.21   -41132.009    3955.1737   -45087.183    115.89144    1.0010262 
   11000    290.85214     60.14082    137849.09   -41072.377    3994.1537   -45066.531    117.45032   0.99998131 
   11100     286.5633    86.783669    138276.75   -41146.743    3935.2568       -45082    119.10628   0.99688858 
   11200    287.30406   -185.92282    138234.34   -41131.996    3945.4295   -45077.425    120.95301   0.99719441 
   11300    293.91102   -364.35922     138207.8   -41212.596    4036.1601   -45248.756    122.25759   0.99738595 
   11400    285.30261    15.667847    138198.49   -41268.957    3917.9443   -45186.902    123.57286   0.99745312 
   11500     287.3222   -128.13332    138301.35   -41389.567    3945.6785   -45335.245    125.12012   0.99671126 
   11600    283.32652    118.92084    138102.18   -41430.476    3890.8074   -45321.283    126.28634   0.99814873 
   11700    288.96665    98.005146    138325.82   -41365.542    3968.2611   -45333.803    127.43462   0.99653494 
   11800    284.12606   -86.888259    138011.95   -41369.255    3901.7873   -45271.042    128.53103   0.99880132 
   11900    289.38838   -85.801116    138228.24   -41421.479    3974.0525   -45395.531    129.82125   0.99723846 
   12000    288.73396   -134.74477    138248.58    -41388.04    3965.0657   -45353.106    131.31183    0.9970917 
   12100    286.44217    286.85675    138211.49   -41303.528    3933.5935   -45237.122    132.66103   0.99735933 
   12200    286.91596    135.20471    138396.55   -41146.577    3940.0998   -45086.677    134.10047   0.99602568 
   12300    290.28877   -157.52866    138368.14   -41093.952    3986.4172   -45080.369    135.21399    0.9962302 
   12400    294.66002    445.89892    138230.76   -41096.629    4046.4458   -45143.075     135.7851   0.99722029 
   12500    293.88186    122.46229     138493.9    -41135.69    4035.7597   -45171.449    136.81564   0.99532558 
   12600    288.12611   -3.8750243    138691.95   -41108.501    3956.7183   -45065.219    137.41965   0.99390424 
   12700    293.20263    -122.1599    138764.65   -41142.567    4026.4321   -45168.999    138.04508   0.99338354 
   12800    287.89884   -146.52636    138593.14    -41156.72    3953.5973   -45110.317    138.96794   0.99461285 
   12900    288.63157    4.1391477    138333.13   -41222.621    3963.6595   -45186.281    139.80062   0.99648231 
   13000    292.76004   -115.22056    138244.04   -41273.803    4020.3541   -45294.158     141.1212   0.99712449 
   13100     287.3507    129.25563    138196.79   -41240.755    3946.0699   -45186.825    142.19012   0.99746538 
   13200    295.74704    2.5841502    138509.23   -41138.012    4061.3734   -45199.385    143.53655   0.99521537 
   13300    287.04545   -136.86061    138583.44   -41156.843     3941.878   -45098.721    144.91032   0.99468247 
   13400    290.98872   -113.00872    138107.11   -41181.084    3996.0293   -45177.114    146.22356   0.99811312 
   13500    287.27256    347.56101    138409.27   -41214.569    3944.9969   -45159.566    148.04791   0.99593415 
   13600    288.93715  -0.72289293    138255.39   -41247.809     3967.856   -45215.665    149.91817   0.99704263 
   13700    287.11351    232.07757    138412.81   -41282.215    3942.8126   -45225.028    151.34766   0.99590868 
   13800    281.48835    47.713515    138561.52   -41339.952    3865.5646   -45205.517    152.58839   0.99483979 
   13900     280.8342    145.47059    138287.34   -41294.453    3856.5815   -45151.035    153.51862   0.99681227 
   14000    282.52654   -213.98606     138039.8   -41399.952    3879.8217   -45279.774    154.92771   0.99859983 
   14100    283.94454   -32.911337    138116.62   -41299.993    3899.2944   -45199.288     156.3594   0.99804438 
   14200    283.45731    299.68924    137942.57   -41290.549    3892.6036   -45183.153    157.83965   0.99930365 
   14300    284.53861   -92.274186    138078.24   -41292.518    3907.4527    -45199.97    160.04172   0.99832181 
   14400     285.4219     66.27736    137854.84   -41213.228    3919.5825   -45132.811    161.41158   0.99993966 
   14500     289.4746    19.898671    137832.71   -41299.167    3975.2366   -45274.403    162.91078    1.0001002 
   14600    287.94646   -18.505174    137799.57   -41165.194    3954.2512   -45119.446    163.90337    1.0003407 
   14700    285.17303   -93.037803    137744.29   -41197.753    3916.1648   -45113.917    165.26262    1.0007422 
   14800    289.47686    97.192486    137993.02   -41192.107    3975.2676   -45167.375    166.51409   0.99893835 
   14900    293.83706    155.67646    138107.43   -41160.136    4035.1445    -45195.28    167.54832   0.99811076 
   15000    286.34926   -203.61221    138075.07   -41277.439    3932.3176   -45209.756    168.80013   0.99834474 
   15100    285.88243    -26.16619    138067.51   -41263.018    3925.9067   -45188.925    170.06761   0.99839937 
   15200    288.98342    34.980492    137880.99   -41326.227    3968.4914   -45294.719    171.65674   0.99974999 
   15300    283.32809    160.41909    137871.14   -41267.419     3890.829   -45158.248    173.15391   0.99982137 
   15400    292.06391   -203.36423    138029.14   -41185.467    4010.7945   -45196.261    174.71208   0.99867693 
   15500    289.52681    335.72508     138215.7    -41208.37    3975.9536   -45184.324    176.10544   0.99732892 
   15600    285.20822    -168.0125    138491.44   -41233.309    3916.6481   -45149.957    178.14449    0.9953432 
   15700    289.73102   -22.052532    138425.68   -41242.235    3978.7578   -45220.993    179.57003   0.99581604 
   15800    294.17552   -85.291774    138409.26   -41240.936    4039.7924   -45280.729    180.84607   0.99593422 
   15900     284.8618   -71.388779    138299.63   -41255.099    3911.8908    -45166.99    182.26271   0.99672368 
   16000    282.25085    156.91377    138354.93   -41275.264    3876.0358   -45151.299    183.34966   0.99632529 
   16100    288.70881    -72.56248    138311.06   -41278.418    3964.7202   -45243.138    184.67084   0.99664135 
   16200    288.74498   -11.385764    138018.21   -41120.515    3965.2169   -45085.732    185.60266   0.99875604 
   16300    291.68784   -140.90066    138091.29   -41097.702      4005.63   -45103.332    186.93747   0.99822746 
   16400    290.00244   -139.57156    138275.16   -41096.386    3982.4851   -45078.871    188.21935   0.99690009 
   16500    289.93298    101.29151    138008.38   -41112.086    3981.5313   -45093.617    188.90364   0.99882718 
   16600    287.83116    171.33026    138113.81   -41154.206    3952.6679   -45106.874    190.07516   0.99806469 
   16700    286.96185    92.205736     138573.2   -41227.131      3940.73   -45167.861    191.47582   0.99475596 
   16800    289.18344    302.52072    138626.26   -41175.482    3971.2381   -45146.721    192.37911   0.99437525 
   16900    285.95434   -145.97889    138462.26   -41212.198    3926.8942   -45139.093     192.9257   0.99555297 
   17000    290.46826     39.12088    138076.83   -41177.924     3988.882   -45166.806    193.45246   0.99833201 
   17100    291.58754    116.81866    138209.94   -41137.178    4004.2528   -45141.431     195.0951    0.9973705 
   17200    291.25957    315.80068    138115.53   -41123.204    3999.7489   -45122.953    196.29114   0.99805226 
   17300     285.6988   -10.155441    138403.72   -41151.137     3923.385   -45074.522     197.7366   0.99597404 
   17400     290.4626     99.81762     138370.5   -41155.168    3988.8044   -45143.973    199.15159   0.99621316 
   17500    288.47103   -113.30487    138514.23   -41200.279     3961.455   -45161.734    200.85598   0.99517949 
   17600      287.549    255.09452    138314.62   -41202.088     3948.793   -45150.881    201.63051   0.99661567 
   17700    290.33159   -318.54711    138016.16   -41179.399    3987.0053   -45166.404    202.82663   0.99877086 
   17800    292.31167    103.18486    138144.39   -41234.267    4014.1968   -45248.464    204.30226   0.99784372 
   17900    285.37033   -52.904843    138292.89   -41287.425    3918.8742   -45206.299    205.17485    0.9967723 
   18000    279.37538   -130.54266    137859.33   -41352.248    3836.5481   -45188.796    205.56225   0.99990705 
   18100    287.07778     174.2573    137783.98   -41290.326     3942.322   -45232.648    206.77493    1.0004539 
   18200    286.74661   -126.86097     137744.8   -41242.521    3937.7742   -45180.296    207.71822    1.0007385 
   18300    284.46753    68.835333    138033.09   -41228.558    3906.4765   -45135.035    208.89408   0.99864831 
   18400    285.79374    178.64105    138242.54   -41288.095    3924.6888   -45212.784    210.59457   0.99713529 
   18500    287.49138   -103.84801    138437.51   -41202.572    3948.0018   -45150.574    212.13399   0.99573099 
   18600    288.82843    44.158926    138234.91   -41216.373     3966.363   -45182.736      212.568   0.99719033 
   18700    288.44962    -20.51374    138357.22   -41113.855    3961.1609   -45075.016      214.035   0.99630879 
   18800     286.4652     23.20008    138409.75   -41190.455    3933.9097   -45124.365    215.24247   0.99593067 
   18900     288.3395   -157.78288       138306   -41214.684    3959.6487   -45174.332    216.52964   0.99667781 
   19000    288.19753   -92.142915    138191.18   -41223.612     3957.699   -45181.311    217.58558   0.99750591 
   19100    286.15859   -142.29124    138133.74   -41274.052    3929.6991   -45203.751    218.90205   0.99792071 
   19200    288.67866   -166.97562    138109.55   -41237.149    3964.3062   -45201.455    220.75636   0.99809545 
   19300    289.46964    155.18773    138205.53   -41199.648    3975.1684   -45174.816     222.1928   0.99740231 
   19400    290.33692   -133.20907    138139.71   -41262.908    3987.0784   -45249.987    223.74088   0.99787753 
   19500    289.77048    110.72068    138244.05   -41248.496    3979.2998   -45227.796     225.4301   0.99712443 
   19600    285.04917    10.142025    138286.75   -41233.083    3914.4639   -45147.547    226.76141   0.99681654 
   19700    288.09811   -89.379707    137804.23   -41188.181    3956.3338   -45144.515    227.87189    1.0003069 
   19800    286.46165     212.2274    137509.82     -41191.5    3933.8609   -45125.361    228.79713    1.0024485 
   19900    285.30545     58.53139    137700.28   -41148.685    3917.9833   -45066.668    229.86449     1.001062 
   20000    289.68854    3.2209839     138116.1   -41114.221    3978.1745   -45092.396    231.96437   0.99804816 
   20100    290.57964    52.358889    137917.65   -41141.382    3990.4116   -45131.794    232.93534    0.9994842 
   20200    289.15268    192.41171    137998.66   -41108.711    3970.8157   -45079.526     234.5123   0.99889754 
   20300    295.24741    -207.7182    137947.36   -41077.904    4054.5123   -45132.416    235.58825   0.99926897 
   20400    290.22913   -66.488265    137710.02   -41123.332    3985.5982    -45108.93    236.28615    1.0009912 
   20500    291.51375   -120.80223    137790.01   -41071.125    4003.2393   -45074.364    237.22237    1.0004101 
   20600    289.77843   -94.904431    137724.35   -41145.853    3979.4089   -45125.262    238.30073     1.000887 
   20700    283.45461    160.75896    137835.06   -41245.165    3892.5665   -45137.732    239.77171    1.0000831 
   20800     283.3314    135.05511    138111.95   -41270.204    3890.8745   -45161.079    240.88854   0.99807811 
   20900    288.94841   -146.85861    138082.85    -41186.76    3968.0106    -45154.77    241.70386   0.99828844 
   21000     286.5036   -59.282045    138180.99     -41131.2     3934.437   -45065.637    243.41252   0.99757943 
   21100    283.11773   -128.00477    138109.78   -41202.942    3887.9402   -45090.882    244.52096    0.9980938 
   21200    285.86294   -49.897834    137970.18   -41278.024    3925.6391   -45203.663    245.21478    0.9991037 
   21300    289.33385   -47.774482    137588.25   -41307.847    3973.3037   -45281.151    245.73358    1.0018771 
   21400    292.59507   -68.437587    137631.89   -41219.382    4018.0886   -45237.471    246.94734    1.0015594 
   21500    291.23158     168.3001    137668.12   -41165.049    3999.3645   -45164.413    248.41877    1.0012958 
   21600    289.80617    213.22686    138011.87   -41192.272    3979.7899   -45172.062    250.38581   0.99880187 
   21700    290.24935   -64.183146    138358.61   -41185.208    3985.8758   -45171.084     251.8696   0.99629877 
   21800    292.54061    266.22041    138409.26   -41108.959    4017.3408     -45126.3    253.14521   0.99593423 
   21900    292.97662   -5.0392258    138442.41   -41093.833    4023.3283   -45117.161      254.498   0.99569574 
   22000    290.95532    72.966718     138262.2   -41164.034    3995.5707   -45159.605    256.17793   0.99699354 
   22100    287.55677    85.698075    138699.92   -41100.873    3948.8998   -45049.773    257.68341   0.99384709 
   22200    292.93008   -211.52653    138590.23   -41077.619    4022.6892   -45100.309    258.62166   0.99463371 
   22300    290.12055    95.613071    138619.44   -41104.767    3984.1072   -45088.875    260.11645   0.99442415 
   22400    289.43311   -347.16447    138345.17   -41179.415    3974.6668   -45154.082    260.39138    0.9963956 
   22500    284.12698   -54.146943    138275.12   -41223.659    3901.7998   -45125.459     260.8722   0.99690034 
   22600    286.70944   -6.1614237    138282.67   -41252.183    3937.2638   -45189.447    261.87922    0.9968459 
   22700    290.78752   -162.62136    138298.16    -41209.58    3993.2663   -45202.847    262.83712   0.99673428 
   22800     284.4844   -60.338503    138231.08   -41307.362    3906.7082    -45214.07    263.26385   0.99721799 
   22900    289.20141    197.70786    138182.67   -41266.215     3971.485     -45237.7    264.49703   0.99756733 
   23000    291.99117   -118.50203    138350.16   -41137.419    4009.7955   -45147.215    265.18259   0.99635967 
   23100    288.59471    7.7169851    138014.48   -41148.723    3963.1534   -45111.876     265.9537   0.99878301 
   23200    288.55074   -14.255605    138047.42   -41183.829    3962.5496   -45146.379    267.40098   0.99854467 
   23300    289.17564   -152.48096    138047.59   -41285.368    3971.1311   -45256.499     268.2619   0.99854342 
   23400    284.93597   -61.742294    137838.93   -41229.505    3912.9094   -45142.415    269.31676    1.0000551 
   23500     284.7937    122.49029    137809.44   -41252.841    3910.9556   -45163.796      270.098     1.000269 
   23600    284.03312   -20.928311    137608.17   -41275.018     3900.511   -45175.529    271.51043     1.001732 
   23700    286.37695   -233.75829    137776.49   -41304.653    3932.6978   -45237.351    272.98854    1.0005083 
   23800    285.65152    27.495076    137667.21   -41223.765    3922.7357   -45146.501    274.32583    1.0013025 
   23900    288.90642   -20.557439    137518.69   -41179.432    3967.4339   -45146.866    276.02693    1.0023839 
   24000    284.56718   -171.45431    137743.48   -41144.536    3907.8449   -45052.381    277.59889     1.000748 
   24100    293.69686    -127.2697    137706.76   -41148.239    4033.2191   -45181.458    278.89438    1.0010149 
   24200    295.44048   -174.79138    137889.58   -41087.577    4057.1635   -45144.741    280.58213   0.99968773 
   24300    293.79067    -28.85835    138413.73   -41168.949    4034.5073   -45203.457     282.8387   0.99590208 
   24400    295.27926    48.530498    138367.27   -41108.672    4054.9496   -45163.621    283.96013   0.99623644 
   24500    288.62165     27.21962    138160.28   -41198.273    3963.5234   -45161.796    284.79786   0.99772901 
   24600    289.42706   -87.787031    138431.93    -41193.06    3974.5837   -45167.644    286.22988   0.99577112 
   24700    288.26338    108.89417    138286.45   -41217.461    3958.6034   -45176.064     286.8323   0.99681866 
   24800    286.82763    56.491019    138274.04   -41242.988    3938.8868   -45181.874    287.57964   0.99690815 
   24900    287.38794   -82.310745    138177.27    -41239.27    3946.5813   -45185.851    287.74589   0.99760633 
   25000    291.45179   -172.48861    138055.65   -41284.807    4002.3885   -45287.195    288.15627   0.99848513 
   25100     282.3222    328.72629    137653.34   -41311.551    3877.0155   -45188.566    288.47043    1.0014034 
   25200     285.6201    237.47757    138177.55   -41309.809    3922.3043   -45232.114    290.29461   0.99760426 
   25300    285.41213   -61.894263    138201.47   -41332.019    3919.4483   -45251.467    291.37304   0.99743163 
   25400    289.97342    163.52711    138098.72   -41251.034    3982.0867   -45233.121    291.95164   0.99817375 
   25500    288.66893   -311.98651     138030.7   -41324.815    3964.1726   -45288.987    292.94204   0.99866566 
   25600    283.93463    249.30416    137983.64   -41368.522    3899.1584    -45267.68    294.38832   0.99900623 
   25700    287.17688   -243.71968    138085.66   -41344.908    3943.6829   -45288.591    295.01523   0.99826817 
   25800    281.07207    0.8030762    138148.34   -41442.964    3859.8481   -45302.812    296.26521   0.99781519 
   25900    283.97511    134.82785    138204.58   -41432.196    3899.7143    -45331.91    297.60172    0.9974092 
   26000     287.4685   -2.2567905    138394.53   -41287.731    3947.6875   -45235.418    298.92077    0.9960402 
   26100    279.12149    93.230304    138074.17   -41304.481    3833.0615   -45137.543    298.88363   0.99835125 
   26200    285.75754    78.667056    137816.78   -41131.465    3924.1917   -45055.657    300.21285    1.0002158 
   26300    285.98979    86.838561    137803.81   -41190.126     3927.381   -45117.507    301.37386    1.0003099 
   26400    291.52778    23.683379    137745.91   -41135.087    4003.4321   -45138.519    302.74068    1.0007304 
   26500    292.70618    213.70807    137807.66    -41056.64    4019.6145   -45076.254    304.69599     1.000282 
   26600    288.58894    127.06791    137688.03   -41195.526    3963.0742     -45158.6    305.97993    1.0011511 
   26700    283.06501   -42.500298    137758.98    -41133.74    3887.2163   -45020.957    307.62255    1.0006354 
   26800    287.22747   -172.39749    137567.42   -41183.738    3944.3776   -45128.116    308.60414    1.0020288 
   26900    283.38359    88.377303    137796.47   -41284.125    3891.5912   -45175.716    310.64229    1.0003632 
   27000    281.72083    22.290033    137892.86   -41294.655    3868.7572   -45163.413    311.85329   0.99966393 
   27100    287.60023    104.48397    138125.16   -41182.681    3949.4966   -45132.178    313.84084   0.99798271 
   27200    287.68214    39.733874    138011.54   -41116.025    3950.6214   -45066.647    314.48826   0.99880425 
   27300    291.02977    191.49424    138104.75   -41035.515    3996.5931   -45032.108    315.53307   0.99813018 
   27400     293.5655     293.4153    137967.81   -41085.411    4031.4151   -45116.826    316.41005   0.99912087 
   27500    290.95148    41.531349    138173.44   -41118.605    3995.5179   -45114.123    318.04004   0.99763395 
   27600    290.55782    50.349646    138357.41   -41049.792     3990.112   -45039.904    320.20495   0.99630747 
   27700    291.09947   -218.86887    138145.15   -41054.385    3997.5502   -45051.935    320.89776   0.99783825 
   27800    289.27703   -59.100421    138063.85   -41102.367    3972.5234    -45074.89    322.92448   0.99842588 
   27900    291.92453    103.98453    137961.93   -41062.515    4008.8804   -45071.395    324.38214   0.99916347 
   28000    291.42011    138.43446    138304.54   -41025.163    4001.9535   -45027.116      326.699   0.99668831 
   28100    290.07453     122.4758    138203.11   -41132.981    3983.4752   -45116.456    328.39791   0.99741976 
   28200    289.15738   -218.83348    138196.76   -41262.039    3970.8802   -45232.919    329.80815   0.99746559 
   28300    284.30836    11.630363    138287.65   -41259.967    3904.2907   -45164.258    331.51943   0.99681003 
   28400    289.59448    127.97209    138141.15   -41154.543    3976.8828   -45131.426    332.57863   0.99786719 
   28500    287.13419    201.69271    138126.37   -41239.964    3943.0967   -45183.061    333.84345   0.99797391 
   28600    285.70744    -79.20256    138125.18   -41283.914    3923.5037   -45207.418    334.81453   0.99798252 
   28700    289.98927   -101.60554    138024.85   -41312.232    3982.3044   -45294.536    336.00217   0.99870799 
   28800    286.23868       225.61    138224.82   -41247.131    3930.7989    -45177.93    337.56552    0.9972631 
   28900     287.0723    30.208741    138262.29   -41238.264    3942.2468   -45180.511    338.36017   0.99699286 
   29000    285.06854   -234.35519       138469   -41229.079      3914.73   -45143.809    339.54081   0.99550451 
   29100     285.1358   -99.864257    138284.37   -41204.922    3915.6536   -45120.575    340.25963   0.99683369 
   29200    287.26056   -45.102892    137900.99   -41274.847    3944.8321    -45219.68    340.94524   0.99960502 
   29300    292.11492   -36.242383       137965   -41210.637     4011.495   -45222.132    341.80522    0.9991412 
   29400    284.10259    -149.0064    138311.29    -41284.57    3901.4649   -45186.035    342.83273   0.99663969 
   29500    286.73871    140.83712    138403.45   -41222.283    3937.6657   -45159.948    343.66226   0.99597601 
   29600    282.81594    69.845692    138486.29   -41240.642     3883.796   -45124.438    345.10609   0.99538025 
   29700    287.10433    40.689581    138291.32   -41177.702    3942.6867   -45120.389    345.27048   0.99678356 
   29800    287.47717   -228.44077    138042.37   -41119.535    3947.8067   -45067.342    345.82088   0.99858122 
   29900     291.6698    172.02473    138115.18   -41113.682    4005.3823   -45119.064    347.24146   0.99805476 
   30000    286.07735    280.92642    138419.87   -41119.869    3928.5835   -45048.453    349.16964    0.9958579 
   30100    284.62971   -48.942624    138352.37   -41081.931    3908.7036   -44990.635    350.43987   0.99634373 
   30200    290.27335   -72.731542    138179.88   -41087.348    3986.2054   -45073.553    352.53428   0.99758745 
   30300    285.79277   -162.03226    138117.29    -41099.49    3924.6755   -45024.166    354.37397   0.99803957 
   30400    284.10022    20.600953    137777.76   -41226.308    3901.4324   -45127.741     354.8149     1.000499 
   30500    283.17702   -11.536357    137705.21   -41242.201    3888.7544   -45130.955    355.60364    1.0010262 
   30600    281.33939    195.92783    137768.39   -41285.274    3863.5191   -45148.793    356.64388    1.0005671 
   30700    288.15313    143.60566    138165.74   -41211.208    3957.0893   -45168.297    357.82455   0.99768958 
   30800    283.41471     23.96168    138033.84   -41147.244    3892.0186   -45039.263    358.46451   0.99864292 
   30900    286.93819    55.433835    138198.05   -41195.653    3940.4051   -45136.059    360.22113   0.99745633 
   31000    286.63104    1.3727005    137911.29   -41164.579    3936.1871   -45100.766    360.79445   0.99953036 
   31100    282.00487   -177.64555    137894.34   -41266.442    3872.6579   -45139.099    362.16741   0.99965321 
   31200    288.20632    169.66952    137729.28   -41218.989    3957.8198   -45176.809    363.69084    1.0008512 
   31300    286.93218    -35.61656    137809.23   -41211.295    3940.3225   -45151.618    365.18869    1.0002706 
   31400    285.94138   -101.21894    137851.07    -41226.01    3926.7162   -45152.726    366.38777   0.99996695 
   31500    286.97354   -192.76576    137928.15   -41099.206    3940.8905   -45040.096    368.24357   0.99940812 
   31600    286.93488   -16.612304    137766.85   -41176.242    3940.3596   -45116.601     369.3693    1.0005783 
   31700    286.93499    15.994579    137989.15   -41208.124    3940.3611   -45148.485     371.0773   0.99896633 
   31800    289.95431   -73.958599    138047.75   -41215.251    3981.8242   -45197.076    372.77263   0.99854226 
   31900    286.55361    152.44265    138110.47   -41145.159    3935.1237   -45080.283    373.91291    0.9980888 
   32000    287.66095   -110.20404     137964.9   -41156.385    3950.3305   -45106.715    374.54362   0.99914191 
   32100    284.59395    22.666299    138109.81   -41170.932    3908.2125   -45079.144    376.56399   0.99809361 
   32200    285.81245    129.52605    138299.67   -41184.282    3924.9457   -45109.227    378.24754   0.99672336 
   32300    290.44491    86.452346    138399.41   -41158.651    3988.5615   -45147.212     379.9416   0.99600508 
   32400    292.00704    172.82915    138411.58   -41078.487    4010.0135     -45088.5    380.52336   0.99591749 
   32500    291.73717   -162.08207    138264.07   -41199.013    4006.3074    -45205.32    381.46316   0.99698001 
   32600    287.28127    37.448925    137951.26   -41253.401    3945.1165   -45198.518    381.19472   0.99924075 
   32700    290.91069    77.541183    138148.38   -41190.938    3994.9577   -45185.896    383.30513   0.99781495 
   32800    284.10321    140.42371     137960.8   -41259.727    3901.4734   -45161.201    383.57647   0.99917164 
   32900    284.99568      122.197    138070.96   -41357.673    3913.7293   -45271.402    384.59989   0.99837444 
   33000    287.34284    158.72842    138521.84   -41303.091    3945.9619   -45249.053    385.97748   0.99512479 
   33100    287.24257    14.839221    138410.53   -41238.508    3944.5849   -45183.093    386.76958   0.99592505 
   33200    287.38869    235.49826    138352.98   -41195.887    3946.5916   -45142.479    388.09744   0.99633934 
   33300    287.41583   -16.472026    138208.55   -41178.039    3946.9643   -45125.004    389.20425   0.99738052 
   33400    285.73236    147.46164    137990.54   -41182.083    3923.8459   -45105.928    389.11263   0.99895626 
   33500    293.61874   -112.88505    137759.15   -41112.327    4032.1463   -45144.473    389.66187    1.0006342 
   33600    288.78914   -279.89137    137627.41   -41174.195    3965.8234   -45140.018    390.56677     1.001592 
   33700    292.79865    144.73399    137320.11   -41177.858    4020.8844   -45198.742    390.92859    1.0038334 
   33800     287.2491    76.982862    137578.41   -41174.498    3944.6746   -45119.173    393.09174    1.0019487 
   33900    294.01772   -93.516936    137782.11   -41153.073    4037.6253   -45190.698    394.82845    1.0004675 
   34000     288.3762   -252.41221    137585.47   -41235.402    3960.1526   -45195.554    394.96826    1.0018974 
   34100    284.13971    44.083601    137553.07   -41325.798    3901.9746   -45227.773    395.85767    1.0021333 
   34200    283.00661   -31.369755    137721.45   -41292.459    3886.4143   -45178.873    396.83572    1.0009081 
   34300    290.77275   -18.593184    137611.94   -41231.601    3993.0636   -45224.664    397.23135    1.0017046 
   34400    292.06491    64.991943    137778.61   -41114.852    4010.8082    -45125.66    398.77722    1.0004929 
   34500    294.09323    48.481932    137825.72   -41069.335    4038.6623   -45107.997    399.36779    1.0001509 
   34600    288.09655   -158.82382    137999.28   -41166.164    3956.3123   -45122.476    400.34652   0.99889302 
   34700    292.11701    100.70461    137957.14   -41206.133    4011.5237   -45217.657    401.40847   0.99919811 
   34800    288.55096    8.5102624    138265.65   -41235.057    3962.5525   -45197.609    402.66055   0.99696861 
   34900     287.7049    2.7011004    138263.16   -41207.654     3950.934   -45158.588    404.10307   0.99698656 
   35000    282.29403    -90.40835    138050.36   -41278.892    3876.6287   -45155.521    405.33041   0.99852345 
   35100    286.58899    153.87019     138156.7   -41192.752    3935.6096   -45128.362    406.89789   0.99775483 
   35200    292.69694   -112.11163    138243.05   -41056.238    4019.4876   -45075.726    408.05777   0.99713163 
   35300    289.16466   -16.281038    138266.08   -41168.657    3970.9803   -45139.638    409.67452   0.99696553 
   35400    288.17065    44.581493    138087.15   -41265.959    3957.3299   -45223.288    410.68307   0.99825737 
   35500    282.74579    137.76477    138121.74    -41224.12    3882.8326   -45106.952    412.35149   0.99800736 
   35600     289.6356   -88.102519    138302.81   -41231.778    3977.4475   -45209.225     414.7467   0.99670076 
   35700    290.66728    40.039199    137989.66   -41197.298    3991.6151   -45188.913    415.87241   0.99896265 
   35800    289.73443     89.56373    138241.98   -41195.724    3978.8047   -45174.529    417.17372   0.99713934 
   35900     290.8203   -117.60394    138516.19   -41140.573    3993.7165   -45134.289    418.83658   0.99516539 
   36000    290.87391   -75.438161    138461.07    -41184.64    3994.4527   -45179.092    419.40998   0.99556154 
   36100    286.57496     70.01072    138581.59   -41228.187     3935.417   -45163.604    421.80398   0.99469574 
   36200    291.11989   -125.19881    138601.21   -41169.864    3997.8306   -45167.694    423.69871   0.99455492 
   36300    294.78883    6.9332873    138167.52   -41156.603    4048.2147   -45204.818    423.99896   0.99767669 
   36400    288.51192    123.18165    138112.91   -41061.394    3962.0165    -45023.41    425.08905   0.99807121 
   36500    290.96717    40.271865    138357.76   -41044.471    3995.7334   -45040.204    427.68896   0.99630488 
   36600    285.40868   -64.469071    138238.55   -41171.707    3919.4009   -45091.108    428.69295   0.99716407 
   36700    288.01351    1.8642322    138246.93   -41169.464     3955.172   -45124.636    431.33747   0.99710361 
   36800    286.92565   -73.972538    137999.23   -41220.682    3940.2329   -45160.915     431.7261   0.99889339 
   36900    287.32862    45.843929    137804.58   -41258.272    3945.7667   -45204.039    433.36234    1.0003044 
   37000    285.56398   -4.2410149    138084.81   -41211.956    3921.5336    -45133.49    434.77021   0.99827433 
   37100    290.46979   -190.92721    138288.89   -41205.202    3988.9031   -45194.105    435.97801    0.9968011 
   37200    289.46011    145.86471    138381.29   -41217.757    3975.0376   -45192.794     437.6605   0.99613553 
   37300    291.41274   -175.25178    138271.71   -41212.603    4001.8523   -45214.455    437.11567   0.99692493 
   37400    290.83987    45.450493    138038.94   -41286.289    3993.9853   -45280.275    437.93096   0.99860601 
   37500    280.60261   -189.51899    137872.46   -41322.548    3853.4011   -45175.949    438.84494   0.99981184 
   37600    286.55137   -75.124697    138099.08   -41292.708     3935.093   -45227.801    440.47813   0.99817113 
   37700    282.21023    102.67994    138090.49   -41327.915    3875.4779   -45203.392    441.74129   0.99823322 
   37800    286.12815   -227.67066    138114.08   -41295.896    3929.2811   -45225.177     442.5138   0.99806275 
   37900    284.19008    114.61294    138228.08    -41289.45    3902.6664   -45192.116    443.27493   0.99723965 
   38000    285.57338   -181.93284    137829.87   -41283.058    3921.6626    -45204.72    442.84518    1.0001207 
   38100    283.78044    57.174709    137831.29   -41262.536     3897.041   -45159.577    443.50559    1.0001105 
   38200    281.73339    195.80273    137761.95   -41320.029    3868.9297   -45188.959    443.93414    1.0006139 
   38300    283.00474    45.830553    137664.37   -41375.074    3886.3886   -45261.463     444.8189    1.0013232 
   38400    281.02481   -154.98552    137637.71   -41443.115     3859.199   -45302.314    445.70915    1.0015171 
   38500    284.90784    230.29029    137587.73   -41389.768    3912.5231   -45302.291    447.13071    1.0018809 
   38600    284.34321    52.706043    137961.94   -41298.122    3904.7693   -45202.891    448.63998   0.99916335 
   38700    287.93748    163.70704    138145.69   -41271.455     3954.128   -45225.583    449.74677   0.99783435 
   38800    287.12866    100.97536    137847.82   -41257.582    3943.0206   -45200.603    450.31285   0.99999054 
   38900    286.03281   -175.61257    138074.85   -41170.613    3927.9719   -45098.585    451.74951   0.99834631 
   39000    286.00617    114.85112    137825.17   -41176.602     3927.606   -45104.208     452.2312    1.0001549 
   39100    284.73904    275.87079    137902.84   -41249.364    3910.2051   -45159.569    452.59865   0.99959157 
   39200     291.0495    87.048275     138101.7   -41202.872    3996.8641   -45199.736    454.30832   0.99815224 
   39300    287.98513   -249.32223    138072.81   -41230.789    3954.7823   -45185.571    455.34432   0.99836103 
   39400    294.99575     -202.489    137932.91    -41258.21    4051.0563   -45309.266    455.82716   0.99937366 
   39500    287.60062    59.559949    137858.24   -41199.557     3949.502   -45149.059    456.48924   0.99991493 
   39600    289.15729    349.25877    138080.74   -41197.643     3970.879   -45168.522    457.63753   0.99830371 
   39700    289.30544   -41.965872    138030.98    -41263.38    3972.9136   -45236.294    458.11006   0.99866362 
   39800    288.11733    173.67711    137804.32   -41262.948    3956.5977   -45219.545    459.64398    1.0003062 
   39900    282.16931    209.73615    137815.84   -41405.538     3874.916   -45280.454     460.2118    1.0002226 
   40000    283.41892    146.37947    137930.78   -41272.405    3892.0764   -45164.481    461.50345   0.99938912 
   40100    289.00071    21.825803    137931.86   -41200.124    3968.7288   -45168.853    462.05684    0.9993813 
   40200    289.40139    -27.26799    138081.04   -41142.733    3974.2311   -45116.964    463.66588   0.99830153 
   40300    281.51189    18.022979    137993.98   -41216.649    3865.8879   -45082.537    464.20555   0.99893141 
   40400    284.67508    46.272476    138350.25   -41209.632    3909.3267   -45118.959    466.08915   0.99635899 
   40500    284.42903     279.0432    138296.98   -41187.954    3905.9478   -45093.901    466.86559   0.99674275 
   40600     286.8922    37.883297    138064.89   -41197.343    3939.7735   -45137.117     467.6142   0.99841836 
   40700    289.27699   -130.72181    138265.85   -41181.505    3972.5228   -45154.028    469.51224   0.99696718 
   40800    285.57225    18.096899    138065.16   -41232.219    3921.6471   -45153.866    470.87117   0.99841637 
   40900    288.63921   -31.909808    138211.92   -41217.347    3963.7645   -45181.111    473.57378   0.99735618 
   41000    286.15781    -3.922806    138207.93   -41221.182    3929.6884   -45150.871      474.194   0.99738499 
   41100    290.90378    366.48679    138837.76   -41214.919    3994.8629   -45209.781    477.25096   0.99286041 
   41200    291.17556   -138.02812    138723.34    -41156.78    3998.5951   -45155.375    477.83494   0.99367936 
   41300    290.67326   -5.4845852    138511.25   -41288.362    3991.6973    -45280.06     478.7551   0.99520089 
   41400    287.61431    -61.58565    138841.39    -41262.91    3949.6899     -45212.6    480.81018   0.99283444 
   41500    281.84647   -185.01954    138846.89   -41272.396    3870.4825   -45142.879     481.6763   0.99279516 
   41600     291.0193    56.694532    138540.88   -41244.007    3996.4493   -45240.456    482.31296     0.994988 
   41700    283.77377    202.38744    138647.45   -41352.465    3896.9494   -45249.414    484.01452   0.99422322 
   41800    289.94257    -162.2905    138615.93   -41232.503     3981.663   -45214.166    485.91653    0.9944493 
   41900    285.53489  -0.43483797    138474.52   -41235.313    3921.1342   -45156.447    486.25261   0.99546485 
   42000    283.81221   -53.395808    137987.99   -41241.817    3897.4773   -45139.294    486.68686   0.99897471 
   42100    288.51432    166.19124     138189.6   -41213.815    3962.0494   -45175.865    488.09361   0.99751734 
   42200    286.98997   -23.983271    137768.61    -41187.52    3941.1161   -45128.636    488.65887    1.0005655 
   42300    283.58311   -159.44989     137660.6     -41277.6    3894.3311   -45171.931     489.5679    1.0013505 
   42400    289.23577    272.07312     137757.8   -41199.313    3971.9568   -45171.269    491.19844     1.000644 
   42500    281.29643    266.59394    137986.36   -41269.887    3862.9291   -45132.816     492.9573   0.99898651 
   42600    287.53706    37.868101    138170.06   -41262.442    3948.6291   -45211.071    494.59601   0.99765835 
   42700    280.53591   -58.223404    137751.17   -41343.133    3852.4852   -45195.618    494.65373    1.0006922 
   42800    285.10733  -0.28975727    137668.86   -41305.193    3915.2625   -45220.455    495.45106    1.0012905 
   42900    286.43211   -10.479427     138009.5   -41264.794    3933.4552   -45198.249    497.61671   0.99881907 
   43000    286.18411    279.11768    137950.47   -41221.929    3930.0496   -45151.979    498.82859   0.99924648 
   43100    285.65551   -42.333118     138235.3   -41260.105    3922.7905   -45182.895    500.69899   0.99718749 
   43200    285.86727    160.34537    138292.86   -41262.031    3925.6986   -45187.729    501.67365    0.9967725 
   43300    285.84217   -254.41256    138134.58   -41319.219    3925.3539   -45244.573    501.90378   0.99791461 
   43400    285.82923    107.91726    137962.35   -41282.574    3925.1762   -45207.751     502.6559   0.99916037 
   43500    285.05262    244.53301    138048.79    -41285.41    3914.5113   -45199.922    504.61738   0.99853475 
   43600    282.45665   -127.49923    138039.96   -41280.388    3878.8619    -45159.25    505.44196   0.99859861 
   43700    287.62302   -87.212891     138150.2   -41216.005    3949.8095   -45165.814    507.01246   0.99780182 
   43800    290.11587   -64.907718    138156.94   -41175.874    3984.0429   -45159.916    508.16995   0.99775312 
   43900    289.03722    168.82601    138200.44    -41272.16    3969.2301    -45241.39     509.6524   0.99743905 
   44000     289.2855     157.4563    138147.82    -41223.09    3972.6398    -45195.73    510.43976     0.997819 
   44100    294.05541    -7.804223    138279.35   -41103.278     4038.143   -45141.421    511.91692   0.99686985 
   44200    286.20399    83.248412     138143.1    -41218.78    3930.3226   -45149.102    512.51238   0.99785307 
   44300    283.59688    6.7727844    138092.33   -41332.176    3894.5202   -45226.696    513.29667   0.99821993 
   44400    286.65126   -118.68021    138173.21    -41324.78    3936.4647   -45261.245    514.94996   0.99763563 
   44500    285.71475    -12.58961     138239.5   -41337.401     3923.604   -45261.005    515.98429   0.99715726 
   44600    285.23082    459.52448     138327.1   -41353.949    3916.9584   -45270.907    517.37841   0.99652577 
   44700    283.19569    46.051604     138434.3    -41391.43    3889.0108   -45280.441    518.24702   0.99575404 
   44800    282.53317    55.287251    138325.23   -41298.357    3879.9127   -45178.269    519.08587   0.99653919 
   44900    283.04216   0.50821922    138445.72   -41322.074    3886.9025   -45208.976    520.44769   0.99567193 
   45000    289.97205    15.404846    138264.26    -41312.81    3982.0678   -45294.877    521.37018   0.99697863 
   45100    287.21548   -102.29406    138018.56   -41265.089     3944.213   -45209.302    520.91286   0.99875345 
   45200    280.75606   -234.25245    137816.31   -41326.681    3855.5084   -45182.189    522.30427    1.0002192 
   45300    285.31513    140.82135    138042.86   -41347.204    3918.1163    -45265.32    523.50061   0.99857768 
   45400    286.69084    100.75385    138457.18   -41363.129    3937.0083   -45300.137    526.31133   0.99558953 
   45500    288.01068   -62.459769    138401.07   -41278.017    3955.1331    -45233.15    526.70831   0.99599316 
   45600    285.22823    155.27736    138076.06    -41319.14    3916.9229   -45236.063    526.43704   0.99833753 
   45700    285.95093    182.12252    138524.27   -41232.108    3926.8474   -45158.955    529.48748   0.99510733 
   45800    288.76545   -42.065996    138400.74   -41230.566    3965.4981   -45196.064    529.53394   0.99599554 
   45900    285.10763    129.38107    138222.19   -41214.559    3915.2667   -45129.826    530.82383   0.99728212 
   46000    291.24583   -2.1496828    137999.45   -41249.266    3999.5601   -45248.826    531.98145    0.9988918 
   46100    285.20002    302.20788    138048.17    -41202.79    3916.5355   -45119.325    533.73438   0.99853929 
   46200    292.44035    290.56892    137900.72   -41183.413     4015.964   -45199.377    534.13687   0.99960694 
   46300    286.61182    88.127706    137990.15   -41227.822    3935.9232   -45163.745    535.83457   0.99895908 
   46400    288.38245    40.077367    138192.01   -41220.897    3960.2385   -45181.136    537.80262   0.99749991 
   46500    285.84598   -112.01919    137737.93   -41181.051    3925.4062   -45106.457     537.8676    1.0007884 
   46600    286.81847   -236.60531    137777.08    -41109.47     3938.761   -45048.231    539.62876     1.000504 
   46700    290.70307    -171.1778    137564.76   -41054.005    3992.1066   -45046.112    540.68284    1.0020482 
   46800    290.82807     390.2133    137659.06   -41043.422    3993.8231   -45037.245    542.86921    1.0013617 
   46900    289.14208   -156.04871    137998.51   -41080.713    3970.6701   -45051.383    546.01308   0.99889858 
   47000    287.11121    217.45151    137769.75   -41166.825    3942.7811   -45109.606    547.06577    1.0005572 
   47100    288.26127    118.54266    138109.04   -41154.788    3958.5743   -45113.363    549.11726   0.99809918 
   47200    288.28761    53.974129    137688.47   -41165.606    3958.9361   -45124.542    548.65814    1.0011478 
   47300    290.94632    52.168022    137625.61   -41144.609     3995.447   -45140.056     548.5938    1.0016051 
   47400    292.12683    79.442354    138219.38   -41153.933    4011.6585   -45165.591    551.24409   0.99730236 
   47500    289.33799   -191.87341     138277.6   -41152.226    3973.3605   -45125.586    552.81016   0.99688248 
   47600    292.48465    69.573625    138366.41   -41129.292    4016.5723   -45145.865    554.40239   0.99624266 
   47700    290.87317   -214.15039    138175.04   -41269.234    3994.4426   -45263.676    554.87984   0.99762241 
   47800    287.22916   -366.50075    138022.68   -41315.219    3944.4008   -45259.619    555.36179   0.99872368 
   47900    284.00091    263.24369    137952.53   -41276.272    3900.0686   -45176.341    556.62414   0.99923156 
   48000    285.45423    6.8297461    137871.54   -41238.247    3920.0264   -45158.273    558.27786   0.99981849 
   48100     290.1639   -97.709084    138041.07   -41268.573    3984.7025   -45253.275    559.73273   0.99859058 
   48200    286.70955   -106.37481    137918.77   -41267.238    3937.2653   -45204.503    560.51316   0.99947609 
   48300    288.40532    73.479806     138062.7   -41245.619    3960.5525   -45206.172    561.90799   0.99843414 
   48400    289.16657   -139.43944    138130.66   -41218.824    3971.0065    -45189.83    562.93976   0.99794294 
   48500    283.35872   -100.72729    137975.72   -41304.118    3891.2496   -45195.368    563.59265   0.99906358 
   48600    286.33808   -193.14897    138009.39     -41284.7     3932.164   -45216.864    565.14365   0.99881981 
   48700    285.36348   -173.64991    137937.56   -41356.204    3918.7802   -45274.984    567.18145   0.99933995 
   48800    288.72246   -135.40198    138042.43   -41288.885    3964.9078   -45253.792    569.66236    0.9985808 
   48900    285.18112   -8.6987912    138043.21   -41263.246    3916.2759   -45179.522    570.86639   0.99857514 
   49000    286.47848    181.82556    138447.14   -41256.682     3934.092   -45190.774    572.94403   0.99566172 
   49100    285.90338    28.991335    138356.12   -41319.989    3926.1944   -45246.184    573.94256   0.99631674 
   49200    285.99047   -141.33932    137983.77   -41385.108    3927.3905   -45312.499    574.94428   0.99900531 
   49300     283.4283    247.82295    137954.97   -41312.815    3892.2052    -45205.02    574.96282   0.99921387 
   49400    286.27694   -90.592707    137978.66   -41307.753    3931.3244   -45239.077    575.85397   0.99904226 
   49500    287.84528   -70.057064    137984.92   -41278.179    3952.8617   -45231.041    576.91875   0.99899694 
   49600    281.59957    14.601243    138168.02   -41314.774     3867.092   -45181.866    578.54659   0.99767313 
   49700    285.52934    35.126641    138362.86    -41208.89    3921.0579   -45129.948     579.5934    0.9962682 
   49800    285.86853    157.20613    138327.25   -41168.304    3925.7159    -45094.02    580.47167   0.99652467 
   49900    288.15936   -35.844625     137945.4   -41237.722    3957.1749   -45194.896    580.66477   0.99928317 
   50000    283.97114   -38.718527    137875.68   -41286.106    3899.6597   -45185.766    581.54982   0.99978848 
   50100    287.18336   -110.35477    138195.27   -41275.299    3943.7719   -45219.071    583.08087   0.99747638 
   50200    288.26222    266.40618     138192.7   -41292.904    3958.5875   -45251.492    584.55881    0.9974949 
   50300    289.14212   -177.74897     138207.6   -41262.418    3970.6708   -45233.089    585.72195   0.99738741 
   50400    281.15719    182.23188    137868.56   -41286.925     3861.017   -45147.942    586.20813   0.99984011 
   50500     289.3297    27.808482    137904.86   -41317.871    3973.2467   -45291.118    587.87093   0.99957696 
   50600    286.08577   -103.64229    137985.12   -41275.009    3928.6992   -45203.708    589.05242   0.99899551 
   50700    291.86109    -290.2753    137975.21   -41177.243    4008.0093   -45185.252     590.7733   0.99906725 
   50800    289.33042   -10.304976    138183.37   -41156.877    3973.2565   -45130.133    593.57262   0.99756229 
   50900    287.27162   -43.659121    138544.16   -41195.372    3944.9839   -45140.356    595.72977   0.99496446 
   51000    290.72787   -301.30505    138450.06   -41223.755    3992.4472   -45216.202    596.04024    0.9956407 
   51100    290.19546   -67.089805    138499.69    -41179.38    3985.1358   -45164.516    597.99496   0.99528392 
   51200    292.45479    193.36572    138441.47   -41051.904    4016.1623   -45068.067    598.81636   0.99570249 
   51300    290.83573    -80.63188     137824.4   -41118.143    3993.9284   -45112.072     598.2001    1.0001605 
   51400    282.35305    70.061071    137829.29   -41305.493    3877.4392   -45182.932    599.21202     1.000125 
   51500    289.33761   -8.4896769    137686.04   -41308.488    3973.3553   -45281.844    599.83698    1.0011655 
   51600     287.1339     5.394185    137944.31   -41264.642    3943.0927   -45207.735    601.38842   0.99929106 
   51700    287.03142   -87.416921    137672.85   -41256.092    3941.6854   -45197.778    602.59446    1.0012614 
   51800    284.21909    67.229608    137571.93   -41280.194    3903.0648   -45183.259    603.29286    1.0019959 
   51900    287.20016    7.4302192    137630.92   -41366.966    3944.0027   -45310.969    605.44837    1.0015665 
   52000    290.45714    90.818783    138004.98   -41284.627    3988.7293   -45273.357    607.27433   0.99885176 
   52100    282.46004   -269.55227    137786.78   -41354.649    3878.9084   -45233.558    607.59581    1.0004336 
   52200    286.68678   -106.03513    138003.95   -41345.055    3936.9525   -45282.007    608.92434   0.99885922 
   52300    285.94222   -55.673969    138101.51   -41295.192    3926.7278    -45221.92    609.96082   0.99815361 
   52400    285.92112    115.38128    138178.98   -41198.706    3926.4381   -45125.144    611.81741   0.99759397 
   52500    283.56618   -48.306571    138216.22   -41197.147    3894.0987   -45091.246    613.60877   0.99732522 
   52600    283.59671    161.40489    138016.96   -41274.336    3894.5179   -45168.854    613.29135   0.99876507 
   52700    284.49635   -157.10192    137908.44   -41249.796    3906.8723   -45156.669    613.98886   0.99955097 
   52800    282.34701    182.05659    137733.83   -41316.019    3877.3563   -45193.375    614.90423    1.0008181 
   52900    283.65981    214.97636     137939.6    -41373.83    3895.3844   -45269.215    615.90629   0.99932516 
   53000    281.33469    187.57667    137996.78   -41439.631    3863.4545   -45303.086     617.9335   0.99891113 
   53100    285.88187   -322.63768    137999.93   -41465.692    3925.8991   -45391.591    618.79574   0.99888832 
   53200    280.66797    176.29757    137966.12   -41307.877    3854.2988   -45162.176    619.45396   0.99913312 
   53300    289.33971    65.603873     138141.5    -41265.58    3973.3842   -45238.964    620.69603   0.99786463 
   53400    291.26532    90.428618    138180.78   -41146.888    3999.8277   -45146.716    621.76905   0.99758096 
   53500    289.73885   -45.948072    138477.85   -41159.525    3978.8654   -45138.391    624.06861   0.99544094 
   53600    289.83686   -203.29469    138419.97   -41142.933    3980.2113   -45123.144    624.57087   0.99585715 
   53700    287.96427   -211.22636    138513.68   -41238.283    3954.4958   -45192.778    625.05535   0.99518338 
   53800    289.81031   -65.936119    138507.71   -41293.452    3979.8467   -45273.299     626.8996   0.99522628 
   53900    287.59147   -141.99214    138323.12   -41322.108    3949.3763   -45271.485    627.03116   0.99655441 
   54000    284.14721    81.377754    138170.36   -41269.668    3902.0777   -45171.745     628.6773   0.99765623 
   54100    289.95367   -177.21307    137921.56   -41233.367    3981.8154   -45215.183    629.11774    0.9994559 
   54200    283.58206   -70.703978    137858.36   -41301.751    3894.3167   -45196.068    630.08041   0.99991413 
   54300    295.52831    20.754124    137928.87   -41214.286    4058.3697   -45272.656    632.35719   0.99940295 
   54400    285.99405   -302.90341    137630.32    -41316.59    3927.4395   -45244.029     631.9552    1.0015709 
   54500    288.34834   -85.617859     137613.6   -41257.701    3959.7701   -45217.471    633.55644    1.0016926 
   54600    294.02031   -311.44788    137690.77   -41263.965    4037.6609   -45301.626    635.58455    1.0011312 
   54700    286.43604    29.170228    137602.88    -41276.65    3933.5092   -45210.159    636.16335    1.0017706 
   54800    289.18825    243.95043    137898.64   -41247.569    3971.3043   -45218.874    638.15347   0.99962201 
   54900    285.31265    211.02114    137928.11   -41205.197    3918.0821   -45123.279    639.09107   0.99940842 
   55000    289.09713    -29.56848    138146.36   -41118.698    3970.0529   -45088.751    640.88505   0.99782954 
   55100    289.56407    -279.5336    137937.63   -41129.141    3976.4651   -45105.606    641.09884   0.99933948 
   55200    288.02046   -17.384292    138174.44   -41134.392    3955.2674   -45089.659    643.00378   0.99762674 
   55300    291.17112   -119.67487    138287.27   -41145.768    3998.5342   -45144.302     645.2981   0.99681275 
   55400    290.23788   -212.81219    138405.83   -41122.907    3985.7184   -45108.626    645.79065   0.99595891 
   55500    294.19521   -13.880179     138431.5   -41122.282    4040.0627   -45162.345    647.90462   0.99577419 
   55600    289.04978    29.219146    137976.77   -41117.657    3969.4027    -45087.06    648.02147   0.99905598 
   55700    287.94073   -288.60888    137952.63   -41183.941    3954.1725   -45138.113    648.37517   0.99923082 
   55800    283.91879    6.9660602    137727.27   -41319.256    3898.9408   -45218.197     648.9802    1.0008658 
   55900    281.59932    51.348512    137588.24    -41353.72    3867.0885   -45220.809    650.30575    1.0018772 
   56000    285.55719   -63.232546    137697.41   -41332.426    3921.4403   -45253.866    651.32895    1.0010828 
   56100    283.51187    69.026288    137964.96   -41354.127    3893.3528    -45247.48    653.90831   0.99914153 
   56200    288.57402   -67.730746    138033.63   -41258.824    3962.8693   -45221.693      655.484    0.9986444 
   56300    288.68035    140.80797    138414.73   -41145.882    3964.3294   -45110.211    657.74149   0.99589483 
   56400    291.59066    81.935907    138423.82   -41028.661    4004.2955   -45032.957    658.16811   0.99582945 
   56500    288.39336    -207.6995    138366.87   -41138.147    3960.3884   -45098.535    660.23464   0.99623929 
   56600    286.59191   -53.265196    138110.36   -41120.018    3935.6498   -45055.667    661.09494   0.99808963 
   56700    283.62206    59.441261    138003.38   -41155.854    3894.8659    -45050.72    662.14717   0.99886333 
   56800    293.92153    114.85327     138302.8   -41114.908    4036.3045   -45151.212    663.79054   0.99670081 
   56900    288.06849    173.67745       138453   -41203.945     3955.927   -45159.872    665.82602   0.99561957 
   57000    281.96704   -16.703137    138384.62   -41301.594    3872.1382   -45173.732    666.77809   0.99611152 
   57100    286.19427   -176.15026     138416.5   -41420.291    3930.1891    -45350.48    667.42818   0.99588215 
   57200    278.54667    -119.7154    138191.29   -41423.798    3825.1678   -45248.966    668.74502   0.99750508 
   57300    281.87883   -52.318982    137688.32   -41357.478     3870.927   -45228.405    667.73198     1.001149 
   57400    284.88261    33.739962    137863.13   -41340.088    3912.1766   -45252.265    668.91161   0.99987953 
   57500    284.79728   -50.747606     137946.8   -41282.128    3911.0048   -45193.133    670.04914   0.99927303 
   57600    284.49433    29.100512    138135.39   -41353.574    3906.8445   -45260.419    672.05705   0.99790873 
   57700    290.08745   -393.77279    137983.19   -41249.171    3983.6525   -45232.823    673.42806   0.99900949 
   57800     290.6114   -155.83872    137817.01   -41234.803    3990.8478   -45225.651    674.51409    1.0002141 
   57900    282.87445    -206.6084    137855.17   -41334.302    3884.5994   -45218.901    675.99699   0.99993723 
   58000     288.7054    5.3361118    137570.54   -41276.644    3964.6734   -45241.317    676.14751     1.002006 
   58100    287.96934    230.45829    137820.67   -41184.671    3954.5654   -45139.237    677.61968    1.0001875 
   58200    287.20338     120.6007    137634.28   -41315.252    3944.0468   -45259.298    678.21697     1.001542 
   58300    287.51105   -67.976169    137923.84    -41287.11    3948.2719   -45235.382    680.73892   0.99943936 
   58400    288.91671    144.87467    138167.42   -41267.789    3967.5752   -45235.364    682.15702   0.99767742 
   58500    285.94546    113.65732     138254.5   -41150.617    3926.7723    -45077.39    684.50466   0.99704902 
   58600    292.10082    139.24537    138355.34   -41195.421    4011.3013   -45206.722    685.39744   0.99632233 
   58700    288.32062   -51.941024    138451.97   -41201.202    3959.3894   -45160.592    686.34557   0.99562697 
   58800    292.53892    76.436194     138211.5   -41139.749    4017.3175   -45157.066    686.56761   0.99735926 
   58900    289.01249   -72.065615    138238.42   -41141.271    3968.8906   -45110.161     688.1187   0.99716499 
   59000    288.33222    162.65408     138234.1   -41190.568    3959.5487   -45150.116    688.73574   0.99719621 
   59100    286.69158   -55.265915    137953.99   -41226.758    3937.0184   -45163.776    688.80243   0.99922094 
   59200    286.49236   -136.07019    138219.11   -41262.596    3934.2827   -45196.879    690.75192   0.99730435 
   59300    287.84969    16.977802    138214.55   -41221.714    3952.9223   -45174.636    692.78632   0.99733721 
   59400    295.70928    12.522241     138330.5   -41224.873    4060.8548   -45285.728    695.30338   0.99650124 
   59500    290.84188   -23.649457     138192.1   -41213.259    3994.0129   -45207.272     696.0143   0.99749922 
   59600    289.22112   -119.44847    137909.73     -41132.5    3971.7556   -45104.256    696.07339   0.99954165 
   59700    288.48079    303.91999    137852.55   -41139.129    3961.5889   -45100.718    697.68165   0.99995626 
   59800    289.70889     31.37186     138010.3   -41195.195     3978.454   -45173.649    699.17205   0.99881325 
   59900    289.39502    -74.24516    137681.95   -41189.727    3974.1438   -45163.871    698.54655    1.0011953 
   60000     285.6435    253.60335    137863.67   -41225.352    3922.6256   -45147.978    700.76862   0.99987561 
   60100    280.21187    20.465141    138260.32    -41293.57    3848.0352   -45141.605    702.93026    0.9970071 
   60200    287.18586    199.29128    138088.54   -41286.457    3943.8062   -45230.263    704.12786   0.99824732 
   60300    294.07013    125.43721    138339.62   -41225.831     4038.345   -45264.176    705.84494   0.99643554 
   60400      288.291   -154.68708    138253.76   -41289.742    3958.9826   -45248.724    706.84008   0.99705438 
   60500    285.57568   -433.62721    138139.05    -41361.94    3921.6943   -45283.634    709.32272    0.9978823 
   60600    281.86998    69.062953    138078.82   -41266.044    3870.8054   -45136.849    710.53505   0.99831758 
   60700    286.72261   -20.901914    137980.88   -41267.963    3937.4446   -45205.408    711.37116   0.99902621 
   60800    283.48914   -104.83933    138249.23   -41277.901    3893.0407   -45170.942    712.69897   0.99708705 
   60900    287.85296     110.9602    138391.81   -41212.906    3952.9672   -45165.873    715.07672   0.99605982 
   61000    288.90234   -67.426464    138032.85    -41192.37     3967.378   -45159.748    715.56975   0.99865008 
   61100    290.25227   -33.962469    137985.68   -41172.091    3985.9159   -45158.007    716.57413   0.99899149 
   61200    286.96132   -29.236234    138013.92   -41192.099    3940.7227   -45132.822    717.08145   0.99878703 
   61300    289.93825    81.174551    137954.06   -41152.726    3981.6037   -45134.329    717.36264   0.99922045 
   61400    287.63274    91.026714    138132.75   -41078.045    3949.9431   -45027.989     720.4096   0.99792787 
   61500    288.86809   -226.31655    138346.94   -41089.778    3966.9076   -45056.685    722.06504   0.99638287 
   61600    287.26652   -282.56095    138327.97   -41150.162    3944.9139   -45095.076    724.15408   0.99651951 
   61700    288.61524   -152.07364    138514.86   -41156.379    3963.4354   -45119.814    726.83127   0.99517496 
   61800    290.70143   -514.90874    138203.92   -41135.331    3992.0841   -45127.415    725.82917   0.99741392 
   61900    284.67911    65.879605    138140.38   -41145.045    3909.3821   -45054.427    726.86438   0.99787273 
   62000    285.34783    58.769424    137944.13   -41161.696    3918.5652   -45080.261    727.99646   0.99929234 
   62100    290.55812    128.42066    137839.34   -41192.799     3990.116   -45182.916    727.92785    1.0000521 
   62200    289.43168    175.27694    137988.18   -41220.923    3974.6472    -45195.57    729.14985   0.99897338 
   62300    289.96747    329.47216    137991.05   -41265.659    3982.0049   -45247.664    729.73592   0.99895262 
   62400    283.62633   -176.07436    137895.47   -41308.946    3894.9246    -45203.87    731.12161   0.99964496 
   62500    285.51037    273.37141    137737.05   -41278.807    3920.7974   -45199.604    732.25398    1.0007948 
   62600    292.39494    172.35948    138045.67    -41207.61    4015.3403   -45222.951    734.98434   0.99855735 
   62700    282.93353   -147.86397    138081.51   -41282.826    3885.4107   -45168.237    737.52494   0.99829815 
   62800    291.16971    -540.2936    137896.97   -41218.144    3998.5148   -45216.659    738.05458   0.99963415 
   62900    285.61785    286.41546    137922.23   -41304.209    3922.2734   -45226.482    739.12195   0.99945106 
   63000    288.01995     202.0976    137931.88   -41238.956    3955.2604   -45194.216    740.50426    0.9993811 
   63100    286.89192    36.127236    138226.24   -41222.635    3939.7696   -45162.404    742.65946   0.99725288 
   63200    283.81679    188.00033     138163.1   -41247.857    3897.5401   -45145.397    744.25979   0.99770863 
   63300     280.2734     61.36294    138070.15   -41328.239    3848.8803   -45177.119    745.43146   0.99838027 
   63400    280.75875   -70.041326    138146.28   -41387.599    3855.5453   -45243.144    747.11394   0.99783009 
   63500    286.27617      168.447    138072.99   -41254.119    3931.3139   -45185.433    748.24112   0.99835978 
   63600    285.19735   -252.77303    138232.76   -41199.559    3916.4988   -45116.057    750.53432   0.99720584 
   63700      281.821   -40.011617    138179.54   -41295.699    3870.1327   -45165.832    751.16148   0.99758995 
   63800    287.89393   -98.282872    138178.52   -41294.835    3953.5298   -45248.365    752.95355   0.99759729 
   63900    286.28297   -176.22394    138003.97   -41264.117    3931.4073   -45195.525    753.48658   0.99885905 
   64000    285.43114  -0.39436746    138094.34   -41311.107    3919.7093   -45230.817    755.78253   0.99820539 
   64100    286.94327   -231.77209    138228.71   -41299.455    3940.4748   -45239.929    757.27697   0.99723503 
   64200    291.75314  -0.36706015    138261.88   -41347.423    4006.5269   -45353.949    758.82665   0.99699582 
   64300    286.97734   -8.5695499    138266.54   -41375.068    3940.9427   -45316.011    760.82577   0.99696221 
   64400    280.74106    155.42374    138143.96   -41417.166    3855.3024   -45272.469    761.66624   0.99784688 
   64500     284.1472    243.92743    138131.54   -41391.252    3902.0776   -45293.329    763.43135    0.9979366 
   64600    284.82359     24.55907    138307.84   -41341.356    3911.3661   -45252.722    765.41818   0.99666455 
   64700    287.38743   -141.93493    138224.21   -41283.219    3946.5742   -45229.793    765.48153   0.99726757 
   64800    285.88114    14.384415    138293.48   -41219.324     3925.889   -45145.213    766.53447   0.99676799 
   64900    291.14307   -104.39763    137878.06    -41237.81    3998.1489   -45235.959    766.51237   0.99977122 
   65000     289.4641   -175.10912    138152.92   -41272.359    3975.0924   -45247.451    769.64096   0.99778217 
   65100    287.65397   -72.431062    137965.81    -41313.61    3950.2346   -45263.845    770.60547   0.99913535 
   65200    285.91826    18.255981    138160.56   -41291.787    3926.3988   -45218.186    772.32025   0.99772696 
   65300    285.44524    225.52924    138152.76   -41289.461     3919.903   -45209.364    774.00162   0.99778331 
   65400    283.65413    193.23376    138085.59   -41378.629    3895.3064   -45273.935    774.64844   0.99826868 
   65500    287.23021    10.301645    138361.42   -41234.647    3944.4153   -45179.062    775.92289   0.99627859 
   65600    289.41246   -61.868367    138279.94    -41154.81    3974.3832   -45129.193    776.95354   0.99686559 
   65700    289.24732   -53.256182    138307.35   -41186.414    3972.1154    -45158.53    778.68126   0.99666805 
   65800    289.47047   -131.00028    138246.26   -41207.592    3975.1798   -45182.772    779.50943   0.99710845 
   65900    286.05087   -8.8574872    137723.77    -41217.47    3928.2199    -45145.69    779.57606    1.0008912 
   66000    282.08275    -247.4255    137708.59   -41310.829    3873.7272   -45184.556    780.89045    1.0010016 
   66100    290.24212   -87.658438     137908.4    -41214.19    3985.7766   -45199.967    782.17603   0.99955128 
   66200    290.60176   -77.975795    137807.02   -41159.911    3990.7154   -45150.627    781.99644    1.0002866 
   66300    293.19203    46.927213    137915.32   -41116.881    4026.2864   -45143.168    783.04866   0.99950111 
[...]
   84600    285.28831    99.833924     138265.8   -41383.482     3917.748    -45301.23    1008.0516   0.99696758 
   84700    289.23278    67.168017    138364.97   -41354.029    3971.9157   -45325.944    1008.6486   0.99625298 
   84800    284.91032    196.37938    138404.26   -41306.195    3912.5572   -45218.752    1010.1927   0.99597015 
   84900    281.93067     80.94117       138433   -41317.089    3871.6388   -45188.727    1011.0809   0.99576339 
   85000    288.29031   -11.498303    138572.19   -41283.432    3958.9732   -45242.405    1013.9981   0.99476325 
   85100    286.52606    25.977205    138376.73    -41319.34    3934.7455   -45254.085     1014.393   0.99616834 
   85200    290.83486   -145.53163    138077.89    -41251.52    3993.9165   -45245.436    1015.0171   0.99832431 
   85300    284.58379     52.24594    138049.17   -41225.469    3908.0731   -45133.543    1015.4667   0.99853204 
   85400    288.40093    112.17402     138024.5   -41231.998    3960.4923    -45192.49    1014.5881   0.99871048 
   85500    288.94008    -161.1792     138079.2    -41243.63    3967.8962   -45211.526    1016.6926   0.99831489 
   85600    288.31963    243.63695    137814.61   -41219.823    3959.3758   -45179.198    1015.5577    1.0002315 
   85700    293.17661   -83.764239    137833.75   -41236.164    4026.0748   -45262.239    1017.2752    1.0000926 
   85800    288.32754   -47.785203    137703.13   -41232.011    3959.4844   -45191.495    1017.5326    1.0010412 
   85900    283.10111    134.90653    137793.32   -41263.435     3887.712   -45151.148    1019.2178     1.000386 
   86000    283.72925    214.75352    137785.43   -41290.383     3896.338   -45186.721    1020.3459    1.0004433 
   86100     289.6694   -229.13322    137754.47    -41242.46    3977.9116   -45220.372      1021.13    1.0006682 
   86200    285.42857      180.155    137727.39    -41289.96     3919.674   -45209.634    1021.8798     1.000865 
   86300    284.70155    142.67932    137815.93   -41294.411    3909.6902   -45204.101    1024.8384    1.0002219 
   86400    279.54101    117.38008    137805.49   -41311.258    3838.8226    -45150.08    1026.2489    1.0002977 
   86500    287.81805   -254.79956    137791.69   -41242.402    3952.4879    -45194.89    1028.2355    1.0003979 
   86600    289.33378    82.596783    137809.14   -41240.673    3973.3027   -45213.976    1029.2021    1.0002712 
   86700     288.0332    230.10759    137740.02   -41239.223    3955.4424   -45194.665    1029.6685    1.0007732 
   86800    293.68473     240.6787    138321.84   -41193.567    4033.0526    -45226.62    1034.0121   0.99656367 
   86900    289.22003    231.84573    138362.28   -41255.937    3971.7406   -45227.677    1035.0225   0.99627235 
   87000    285.75366   -18.454439     138814.4   -41308.251    3924.1385    -45232.39    1038.7292   0.99302748 
   87100    290.53462   -249.81393    138534.13   -41275.073    3989.7934   -45264.866    1037.3642   0.99503648 
   87200    287.80608    47.592704    138349.76   -41265.164    3952.3235   -45217.487    1037.9064    0.9963625 
   87300    289.34005    68.767441    138766.42    -41161.92    3973.3889   -45135.309    1039.4741   0.99337083 
   87400    288.18171    122.70877    138805.44   -41253.069    3957.4818    -45210.55    1039.9845   0.99309157 
   87500     287.3206   -227.20928    138705.37   -41289.708    3945.6565   -45235.365    1039.1968    0.9938081 
   87600    287.15572    -54.44653     138084.5   -41261.109    3943.3923   -45204.502    1036.4735   0.99827654 
   87700    282.22098    85.218463    138202.12   -41261.553    3875.6255   -45137.178    1038.0521   0.99742697 
   87800    287.22262   -16.514009    138550.66   -41151.412    3944.3111   -45095.723    1041.8521    0.9949178 
   87900    291.27745    117.93119    138401.81   -41103.738    3999.9943   -45103.732    1041.6551   0.99598782 
   88000    287.75973   -19.402305     138500.9   -41188.788     3951.687   -45140.475     1042.727   0.99527522 
   88100    288.10175   -10.643278    138106.43   -41158.479    3956.3837   -45114.863    1040.9401   0.99811805 
   88200    286.09601    6.2253454    137965.56   -41132.549    3928.8398   -45061.389    1042.1807   0.99913713 
   88300    287.46216    -24.27869    137964.31   -41122.889    3947.6006    -45070.49    1042.6778   0.99914619 
   88400    288.01247    -108.8822    137812.37   -41212.719    3955.1577   -45167.877    1042.4285    1.0002478 
   88500    284.57969    8.7954883    138012.45   -41208.814    3908.0167    -45116.83    1044.6196   0.99879767 
   88600     286.1389    85.319439    138161.67   -41181.672    3929.4288   -45111.101    1047.3457   0.99771899 
   88700    291.59899   0.47867289    138326.59   -41144.749    4004.4099   -45149.158    1050.2939   0.99652939 
   88800    285.62593    -10.59451     138266.2   -41175.882    3922.3843   -45098.266     1050.981   0.99696467 
   88900    287.82227   -63.849604    137872.95   -41246.408    3952.5458   -45198.954    1050.4051   0.99980826 
   89000    286.01584     -68.6139    137871.18   -41142.107    3927.7388   -45069.846    1051.4759   0.99982111 
   89100    293.23992    59.481229    137748.46    -41119.89    4026.9442   -45146.834    1052.4736    1.0007118 
   89200    283.40249    100.85376    137662.47   -41217.121    3891.8507   -45108.972    1052.5928     1.001337 
   89300     291.7421    228.23296    137872.07   -41156.145    4006.3752    -45162.52    1053.7519   0.99981466 
   89400    286.77779   -79.992214    137824.72   -41163.213    3938.2023   -45101.415    1054.0292    1.0001582 
   89500    288.87211    251.71095    137876.44   -41258.256    3966.9628   -45225.219    1056.6238   0.99978298 
   89600     290.9418    91.463712    138152.78   -41172.953     3995.385   -45168.338    1058.3352   0.99778319 
   89700    289.69717    6.1940012    138361.87   -41204.845     3978.293   -45183.138    1059.8098   0.99627531 
   89800    289.42158    98.823471    138138.06   -41179.859    3974.5085   -45154.368    1059.1699   0.99788951 
   89900    281.38743    88.746645    137941.12   -41245.265    3864.1788   -45109.443    1060.0955   0.99931417 
   90000    286.42558    161.05148    138163.12   -41182.641    3933.3656   -45116.007    1062.8013   0.99770846 
   90100    285.93087   -20.562474     138286.8   -41196.382    3926.5719   -45122.954    1065.9043   0.99681613 
   90200    287.07335    244.84205    138427.71   -41339.801    3942.2612   -45282.063    1068.1943   0.99580148 
   90300    282.06005   -183.77897    138168.51   -41338.062    3873.4155   -45211.478    1068.7305   0.99766959 
   90400     288.7626   -167.25062    138077.64   -41242.821    3965.4589    -45208.28    1069.2627    0.9983261 
   90500    281.59362    28.438757    138131.94   -41225.032    3867.0103   -45092.042    1070.9456   0.99793369 
   90600    288.12776    11.967731    137719.43   -41166.702     3956.741   -45123.443    1069.1978    1.0009228 
   90700    287.87872    51.274614    137964.91   -41177.529    3953.3209    -45130.85    1071.2099   0.99914184 
   90800    283.49079    -163.5714    138020.81   -41214.295    3893.0634   -45107.358    1071.7273   0.99873719 
   90900    281.75634   -7.6251977    137907.43    -41276.94    3869.2449   -45146.185    1073.6167   0.99955832 
   91000    285.86654    160.77867     137973.1   -41231.178    3925.6885   -45156.866    1075.2212   0.99908257 
   91100    287.87432   -39.107688    138279.27   -41179.075    3953.2606   -45132.335    1078.6608   0.99687042 
   91200    288.51693   -109.70451    138284.33   -41171.405    3962.0853    -45133.49     1080.156   0.99683397 
   91300    285.57486   -114.11173    138324.93   -41270.174     3921.683   -45191.857    1079.7703    0.9965414 
   91400    287.27812    57.142859    138268.65   -41260.063    3945.0732   -45205.136    1080.2692   0.99694698 
   91500    293.13195    361.21449    138436.02   -41235.193    4025.4614   -45260.654    1082.0678   0.99574167 
   91600    288.50302   -89.186969    138740.63   -41259.378    3961.8942   -45221.273    1085.1057   0.99355548 
   91700    282.46954   -98.290222    138163.46    -41373.35    3879.0389   -45252.389    1082.7413   0.99770603 
   91800    289.49766    50.564163    138444.71   -41395.283    3975.5532   -45370.836    1086.3376    0.9956792 
   91900    284.26398    54.036888    138692.78   -41355.494    3903.6812   -45259.175    1088.8912   0.99389829 
   92000    284.19557    185.21703    138731.08   -41290.511    3902.7418   -45193.253    1091.3458   0.99362388 
   92100    289.79782     -262.418    138614.47    -41214.18    3979.6753   -45193.856    1090.5103   0.99445978 
   92200    289.27898    33.596061    138771.79   -41165.414    3972.5502   -45137.964    1092.6374   0.99333239 
   92300    286.33637  -0.24632478    138593.55   -41199.503    3932.1405   -45131.644    1094.3829    0.9946099 
   92400    289.49214   -34.357829    138716.98   -41187.461    3975.4773   -45162.938    1095.5957   0.99372492 
   92500    287.09558   -28.875641    138710.11   -41151.898    3942.5665   -45094.465    1097.2897   0.99377409 
   92600    287.84983    5.9386927    138596.53   -41105.866    3952.9243   -45058.791    1097.5725   0.99458852 
   92700    286.91438    39.900634    138619.85   -41214.239     3940.078   -45154.317    1098.6311   0.99442117 
   92800    288.55238    67.386592    138782.86   -41164.141    3962.5721   -45126.713    1100.1598   0.99325316 
   92900    292.06273   -190.80158    138349.49   -41133.273    4010.7782   -45144.051    1098.9263   0.99636445 
   93000    287.28131    97.995645     138267.5     -41161.7    3945.1169   -45106.817    1100.2346    0.9969553 
   93100    292.01169    44.379709    138572.42   -41147.128    4010.0774   -45157.205    1101.9997   0.99476158 
   93200    290.13839    44.125948     138711.9   -41123.342     3984.352   -45107.694    1104.3286    0.9937613 
   93300    290.57834   -23.074821    138829.49   -41095.849    3990.3937   -45086.243    1107.3206   0.99291953 
   93400    285.41784    1.2407147    138710.16   -41191.871    3919.5268   -45111.398    1108.2729   0.99377377 
   93500    286.62376    93.738275    138606.97   -41196.992    3936.0871   -45133.079    1108.1444   0.99451362 
   93600     283.9535    17.857016    138551.84   -41283.553    3899.4175    -45182.97    1107.5754   0.99490932 
   93700    286.05943    7.9999758    138565.35   -41268.982    3928.3374   -45197.319    1108.4404   0.99481231 
   93800     287.9648    258.06531    138603.11    -41160.35    3954.5031   -45114.853    1109.6318   0.99454131 
   93900    290.25195    10.333392    138393.02   -41225.912    3985.9116   -45211.824    1109.6474    0.9960511 
   94000    285.07167   -178.02738    138202.09   -41309.842     3914.773   -45224.615    1109.1564   0.99742717 
   94100    283.24775    71.811948    138431.21   -41291.771    3889.7258   -45181.497     1111.072   0.99577631 
   94200    285.08527    21.212638    138316.93   -41292.113    3914.9597   -45207.073    1110.6507   0.99659899 
   94300    289.17789   -172.84358    138299.46   -41212.932     3971.162   -45184.094    1111.9317   0.99672489 
   94400    289.30747   -91.445446    138147.79   -41295.587    3972.9415   -45268.528    1111.9238   0.99781916 
   94500    287.84798   -73.740499    138013.84   -41338.122    3952.8988    -45291.02    1112.9344   0.99878764 
   94600    281.99976    91.810639    138105.74   -41357.326    3872.5876   -45229.913    1114.0338   0.99812302 
   94700    288.15731   -124.96855    138163.75    -41253.61    3957.1467   -45210.756    1115.3072   0.99770395 
   94800    285.46649    67.182273    138148.92   -41191.866    3920.1948   -45112.061    1116.5609   0.99781104 
   94900    288.66484   -217.57145     138173.5   -41213.835    3964.1164   -45177.951    1117.7213   0.99763355 
   95000     286.0822    69.183655    138132.07   -41210.476      3928.65   -45139.126    1118.5904   0.99793277 
   95100    292.22671    116.80585    138403.14   -41122.367    4013.0301   -45135.397    1120.9784   0.99597824 
   95200    291.51742   -300.84184     138784.5   -41226.344    4003.2898   -45229.634    1123.9701   0.99324145 
   95300    289.12222    69.002739    138546.93   -41222.583    3970.3974   -45192.981    1126.0753    0.9949446 
   95400    293.19192   -31.444071    138606.41   -41225.993    4026.2849   -45252.278    1128.2389   0.99451765 
   95500    284.79737   -115.23472    138626.09   -41311.596    3911.0061   -45222.602    1128.5824   0.99437643 
   95600    285.09442    42.074564    138401.57   -41318.474    3915.0853   -45233.559     1127.695   0.99598956 
   95700    291.22821    -76.98748    138247.34   -41286.366    3999.3181   -45285.684    1128.9346   0.99710064 
   95800    285.23769    283.60932    138434.93   -41308.073    3917.0528   -45225.126    1131.6739   0.99574956 
   95900    285.31429   -109.09312    138049.42   -41271.548    3918.1047   -45189.653    1131.8093   0.99853023 
   96000    286.59668   -55.881275    138211.15   -41214.735    3935.7152    -45150.45    1134.9216   0.99736173 
   96100    286.65838    14.317517    138048.66   -41181.906    3936.5625   -45118.468    1135.4991   0.99853572 
   96200    286.53255    -5.882974    137805.12   -41186.864    3934.8346   -45121.698    1135.0464    1.0003004 
   96300    288.13387   -128.05399    138027.85   -41186.186    3956.8249   -45143.011    1137.6327   0.99868626 
   96400    289.23547    99.530714    138038.02   -41189.683    3971.9527   -45161.636    1140.0715   0.99861267 
   96500    287.85454   -71.552572    138137.02    -41184.36    3952.9889   -45137.349    1141.3972   0.99789698 
   96600    288.25469    60.041123    137950.82   -41160.253     3958.484   -45118.737     1142.394   0.99924389 
   96700    286.10322    317.89477    137843.51   -41078.681    3928.9388    -45007.62    1143.8267    1.0000218 
   96800    291.66964   -134.09953    138010.47   -41076.828    4005.3801   -45082.208    1147.0461   0.99881205 
   96900    292.04348   -103.37684    137841.75   -41134.418     4010.514   -45144.932    1149.0936    1.0000346 
   97000    291.16264   -162.36053    137930.39   -41177.339    3998.4177   -45175.757    1150.3043   0.99939191 
   97100    290.13999    2.5388005    137965.05   -41198.909    3984.3741   -45183.283     1151.085   0.99914086 
   97200    284.90958   -95.173361    137749.88   -41225.862     3912.547   -45138.409    1150.1766    1.0007015 
   97300    289.84865   -174.82608    137807.54   -41247.183    3980.3732   -45227.556    1150.5185    1.0002829 
   97400     283.5964    249.21533    137821.17   -41204.176    3894.5136    -45098.69    1151.0533    1.0001839 
   97500    291.36584   -313.77347    137931.05   -41165.713    4001.2082   -45166.921    1153.3153   0.99938711 
   97600    290.89138    56.905545    137898.74   -41218.134    3994.6926   -45212.827    1153.9521   0.99962132 
   97700    288.90957   -85.522415     137667.2   -41232.775    3967.4772   -45200.252    1153.5654    1.0013026 
   97800    286.46302   -23.033116    138171.53   -41248.113    3933.8797   -45181.993    1156.7863   0.99764774 
   97900    291.31173   -1.1792096    138137.21   -41148.272    4000.4651   -45148.738     1156.636   0.99789564 
   98000    289.51214   -114.50737    138289.45   -41175.517     3975.752   -45151.269    1159.5073   0.99679706 
   98100    288.86314    338.74115    138016.99   -41192.074    3966.8396   -45158.913    1158.7834   0.99876487 
   98200    284.72897    -87.81611     138019.2   -41147.944    3910.0667    -45058.01    1159.3197   0.99874886 
   98300    288.34707    115.12758    138191.71   -41113.813    3959.7526   -45073.565    1162.6586   0.99750205 
   98400     286.9941   -307.14676    138292.78   -41163.116    3941.1729   -45104.289    1164.1458   0.99677304 
   98500    287.33944    -335.6395     138185.3   -41154.188    3945.9153   -45100.104    1165.1247   0.99754832 
   98600    288.09843    20.645801    137862.91   -41210.746    3956.3381   -45167.084    1165.4219   0.99988108 
   98700    294.08687   -3.5928404    137810.84   -41192.832    4038.5749   -45231.407    1166.5705    1.0002589 
   98800    284.21664   -76.934549    138054.18   -41217.297    3903.0311   -45120.328    1168.2301   0.99849581 
   98900    290.24373    250.97464    137942.38   -41141.341    3985.7987    -45127.14    1168.1784   0.99930504 
   99000    291.27791    85.410461    138066.88   -41108.865    4000.0007   -45108.866    1170.6313   0.99840392 
   99100    287.73236   -100.00746    138223.15   -41159.917    3951.3111   -45111.228    1173.5669   0.99727516 
   99200    285.27108   -160.93418    138304.67   -41153.642    3917.5114   -45071.153    1174.2692   0.99668735 
   99300    293.76226    37.239766    138316.06   -41152.995    4034.1172   -45187.113    1176.5552    0.9966053 
   99400    284.10119   -25.872558     138677.4   -41136.892    3901.4457   -45038.338     1180.041    0.9940085 
   99500     285.7588   -35.978357    138489.57   -41166.934    3924.2089   -45091.143    1180.0685   0.99535668 
   99600    282.77499   -213.59454    138196.01   -41241.566    3883.2335     -45124.8    1180.2528   0.99747103 
   99700    283.80018     274.3962    138095.64   -41210.122    3897.3121   -45107.434    1181.6114     0.998196 
   99800    283.42591    64.164969    138087.97   -41184.876    3892.1724   -45077.048    1183.1345   0.99825148 
   99900    290.08135   -37.019259    138085.13   -41120.401    3983.5687    -45103.97    1184.1437   0.99827197 
  100000    284.91538   -15.121571    138161.69   -41171.068    3912.6266   -45083.695    1186.6154   0.99771882 
  100100      290.384     110.7266    138291.91   -41207.345    3987.7249    -45195.07    1188.6623   0.99677929 
  100200    288.24231    85.701377     138323.6   -41150.682     3958.314   -45108.996    1190.1598   0.99655096 
  100300    281.30648    -186.8339     138006.7   -41224.683    3863.0671    -45087.75    1189.7026   0.99883931 
  100400    287.26802    321.34082    138111.64   -41213.648    3944.9345   -45158.583    1192.6769   0.99808036 
  100500    282.36729    7.9208418    137936.68   -41236.222    3877.6348   -45113.856    1193.0056   0.99934632 
  100600    286.25929   -70.661836    137922.93   -41215.179    3931.0821   -45146.261    1194.0071     0.999446 
  100648    283.80887    77.353117    137881.52   -41202.743    3897.4313   -45100.174    1194.8029   0.99974615 
Loop time of 120.903 on 6 procs for 100000 steps with 4608 atoms

Performance: 357.312 ns/day, 0.067 hours/ns, 827.112 timesteps/s
99.1% CPU use with 6 MPI tasks x no OpenMP threads

MPI task timing breakdown:
Section |  min time  |  avg time  |  max time  |%varavg| %total
---------------------------------------------------------------
Pair    | 101.97     | 102.73     | 104.27     |   7.7 | 84.97
Neigh   | 7.0948     | 7.225      | 7.5273     |   5.9 |  5.98
Comm    | 6.3847     | 8.162      | 9.0185     |  30.5 |  6.75
Output  | 0.17795    | 0.179      | 0.18385    |   0.5 |  0.15
Modify  | 1.8789     | 1.9655     | 2.0584     |   3.7 |  1.63
Other   |            | 0.6438     |            |       |  0.53

Nlocal:        768.000 ave         773 max         763 min
Histogram: 1 1 1 0 0 0 0 0 1 2
Nghost:        1573.17 ave        1579 max        1563 min
Histogram: 1 0 0 0 0 2 0 0 2 1
Neighs:        0.00000 ave           0 max           0 min
Histogram: 6 0 0 0 0 0 0 0 0 0
FullNghs:      22315.3 ave       22559 max       22138 min
Histogram: 2 0 1 0 0 1 1 0 0 1

Total # of neighbors = 133892
Ave neighs/atom = 29.056424
Neighbor list builds = 6988
Dangerous builds = 0

undump              1
unfix               2
unfix               3
unfix               4


################################################
#######         Run Simulation         #########
################################################

reset_timestep      0
log                 log.run_${NAME}
log                 log.run_liq_288K_1atm_ML
