
# Create simulation box of size 50 x 50 x 50 Angstrom
#
lattice	            sc 1
Lattice spacing in x,y,z = 1.0000000 1.0000000 1.0000000
region 	            all block 0 50 0 50 0 50 units box
create_box          1 all
Created orthogonal box = (0.0000000 0.0000000 0.0000000) to (50.000000 50.000000 50.000000)
  1 by 2 by 2 MPI processor grid

# fill box with 4169 randomly distributed atoms
#
create_atoms        1 random 4169 63782 all
Created 4169 atoms
  create_atoms CPU = 0.002 seconds
mass                1 18.015

# Define potential
#
pair_style          sw
pair_coeff          * * ../ML.sw mW
Reading sw potential file ../ML.sw with DATE: 2019-02-27

# Run minimization
#
minimize            1.0e-8 1.0e-8 10000 1000
WARNING: Using 'neigh_modify every 1 delay 0 check yes' setting during minimization (../min.cpp:187)
Neighbor list info ...
  update every 1 steps, delay 0 steps, check yes
  max neighbors/atom: 2000, page size: 100000
  master list distance cutoff = 6.0032907
  ghost atom cutoff = 6.0032907
  binsize = 3.0016454, bins = 17 17 17
  1 neighbor lists, perpetual/occasional/extra = 1 0 0
  (1) pair sw, perpetual
      attributes: full, newton on
      pair build: full/bin/atomonly
      stencil: full/bin/3d
      bin: standard
Per MPI rank memory allocation (min/avg/max) = 4.249 | 4.256 | 4.259 Mbytes
Step Temp E_pair E_mol TotEng Press 
       0            0    7783778.6            0    7783778.6    5891538.7 
     640            0   -45089.317            0   -45089.317   -66.004219 
Loop time of 2.13245 on 4 procs for 640 steps with 4169 atoms

99.7% CPU use with 4 MPI tasks x no OpenMP threads

Minimization stats:
  Stopping criterion = max force evaluations
  Energy initial, next-to-last, final = 
      7783778.60454636  -45089.1135678271  -45089.3166429425
  Force two-norm initial, final = 2.0191929e+08 3.8745506
  Force max component initial, final = 1.0948746e+08 1.0618003
  Final line search alpha, max atom move = 0.061176386 0.064957105
  Iterations, force evaluations = 640 1000

MPI task timing breakdown:
Section |  min time  |  avg time  |  max time  |%varavg| %total
---------------------------------------------------------------
Pair    | 1.7053     | 1.8747     | 2.0177     |   8.3 | 87.91
Neigh   | 0.052027   | 0.054801   | 0.057005   |   0.9 |  2.57
Comm    | 0.028653   | 0.17323    | 0.3448     |  27.8 |  8.12
Output  | 0          | 0          | 0          |   0.0 |  0.00
Modify  | 0          | 0          | 0          |   0.0 |  0.00
Other   |            | 0.02971    |            |       |  1.39

Nlocal:        1042.25 ave        1057 max        1017 min
Histogram: 1 0 0 0 0 1 0 0 0 2
Nghost:        1763.00 ave        1774 max        1743 min
Histogram: 1 0 0 0 0 0 0 1 1 1
Neighs:        0.00000 ave           0 max           0 min
Histogram: 4 0 0 0 0 0 0 0 0 0
FullNghs:      29797.0 ave       30476 max       28599 min
Histogram: 1 0 0 0 0 0 1 0 0 2

Total # of neighbors = 119188
Ave neighs/atom = 28.589110
Neighbor list builds = 28
Dangerous builds = 0

# Add velocity/set timestep
#
velocity            all create ${TEMP} 120598 rot yes dist gaussian
velocity            all create 294 120598 rot yes dist gaussian
timestep            5.0

# Define output
#
compute	            1 all msd
thermo	            100
thermo_style        custom step temp press vol etotal ke pe c_1[4] density

# Neighbor lists
#
neigh_modify        delay 0 every 1 check yes

# Set fixes
#
fix                 1 all momentum 10 linear 1 1 1 rescale
fix                 2 all nve
fix                 3 all temp/csvr ${TEMP} ${TEMP} 500.0 928347
fix                 3 all temp/csvr 294 ${TEMP} 500.0 928347
fix                 3 all temp/csvr 294 294 500.0 928347
fix                 4 all press/berendsen iso ${PRES} ${PRES} 1000.0 modulus 20000
fix                 4 all press/berendsen iso -500 ${PRES} 1000.0 modulus 20000
fix                 4 all press/berendsen iso -500 -500 1000.0 modulus 20000

# Run 0.5 ns equilibration
#
dump                1 all custom 1000 eq.${NAME}.dump id type x y z vx vy vz
dump                1 all custom 1000 eq.liquid_295K_500atm_ML.dump id type x y z vx vy vz
run                 100000
Per MPI rank memory allocation (min/avg/max) = 3.507 | 3.512 | 3.520 Mbytes
Step Temp Press Volume TotEng KinEng PotEng c_1[4] Density 
     640          294    1269.7673       125000   -41436.656    3652.6608   -45089.317 1.8478579e-33   0.99771203 
     700    182.93036   -178.09822    126076.15   -40414.801    2272.7297   -42687.531   0.33378967   0.98919581 
     800    218.02572   -258.74916    126463.28   -39304.731    2708.7552   -42013.487   0.89825726   0.98616772 
     900    244.99727   -334.92553     126720.3   -38599.149    3043.8501       -41643    1.5044621    0.9841675 
    1000    261.98149   -190.52208    127094.58   -38063.208    3254.8623   -41318.071    2.3540929   0.98126922 
    1100    277.31858   -542.50978    127105.18   -37754.312    3445.4106   -41199.722    3.2758032   0.98118744 
    1200    272.95273    -407.3312    127215.04   -37740.779    3391.1692   -41131.948    4.0775598   0.98034013 
    1300    273.20421   -431.04244    127005.72    -37617.51    3394.2936   -41011.804    4.9470508   0.98195577 
    1400    279.01345   -576.87451    126959.75   -37527.617    3466.4676   -40994.085    5.9811129   0.98231138 
    1500    290.47079   -324.46992    126917.18   -37413.033    3608.8138   -41021.847    7.0720944   0.98264082 
    1600    289.03722   -777.47575    127197.09   -37224.981    3591.0032   -40815.984    8.1965034    0.9804784 
    1700    288.27919   -518.06512    127181.05   -37228.312    3581.5853   -40809.897    9.3011111   0.98060205 
    1800    288.93695   -348.53358    127012.62   -37307.062    3589.7574   -40896.819    10.109827   0.98190248 
    1900    293.51452   -535.44815    126789.95   -37265.846    3646.6292   -40912.475    11.124521   0.98362688 
    2000     289.8558   -209.43105    127145.93   -37191.094    3601.1732   -40792.267     12.10086   0.98087298 
    2100    294.26298   -372.49392    126967.89   -37051.259    3655.9281   -40707.187    13.318297   0.98224841 
    2200    296.29133    -492.4362    127083.56   -37090.787    3681.1284   -40771.915    14.551927   0.98135438 
    2300    295.40626   -723.82086    127395.84   -37045.563    3670.1322   -40715.695    16.094906   0.97894878 
    2400    298.20471   -537.00726    126969.41   -37045.563    3704.9002   -40750.463    17.134871   0.98223658 
    2500    298.82348    -474.4038    126631.59   -36987.694    3712.5878   -40700.282    18.264002   0.98485695 
    2600     295.1695   -339.32179    126583.74   -36914.385    3667.1907   -40581.576    19.394107   0.98522923 
    2700    298.68689   -420.49322    126994.05   -36888.298    3710.8908   -40599.188    20.331083   0.98204602 
    2800    295.34575   -639.09514    126733.41   -36876.574    3669.3804   -40545.955    21.395189   0.98406572 
    2900    295.92819    -577.9769    127184.15   -36897.175    3676.6167   -40573.792    22.602858    0.9805782 
    3000    302.29223   -518.50981    127192.25   -36954.267    3755.6836    -40709.95    23.996019   0.98051577 
    3100    296.87326    -328.2306    127346.87   -36886.203    3688.3582   -40574.561    25.352605   0.97932525 
    3200    294.08132   -411.88434     127400.7   -36957.787    3653.6711   -40611.458    26.723687   0.97891145 
    3300    299.70244   -315.96381    127322.42   -36961.492     3723.508       -40685    27.841287   0.97951331 
    3400    292.24535   -531.86252    127067.05    -37028.22     3630.861   -40659.081    28.956041   0.98148189 
    3500    293.42351   -526.76571    127170.65    -37067.31    3645.4985   -40712.808    30.246735   0.98068232 
    3600    289.66116    -251.0619    127279.68   -37111.991    3598.7549   -40710.746    31.564814   0.97984222 
    3700    288.81106   -748.21591    127432.66   -37128.033    3588.1933   -40716.226    32.657857   0.97866595 
    3800     293.2695   -353.58461    127047.62   -37089.134     3643.585    -40732.72    33.777499   0.98163192 
    3900    290.48348   -382.90237    126820.78   -37109.242    3608.9714   -40718.213    35.018206   0.98338774 
    4000    290.45063   -483.13455    126849.84   -37105.848    3608.5634   -40714.412    36.426195   0.98316245 
    4100    294.35157   -531.68824    126897.34   -37091.432    3657.0287    -40748.46    37.942099    0.9827945 
    4200    293.62535   -624.59475    126864.91   -37115.495    3648.0062   -40763.501     39.25295   0.98304568 
    4300    295.76653   -643.58741    126781.47   -37118.617    3674.6082   -40793.226    40.535502   0.98369264 
    4400     294.6935   -487.35936    126790.78   -37141.433    3661.2768    -40802.71    41.961154   0.98362043 
    4500    292.72949   -518.61598    127090.83   -37100.121    3636.8759   -40736.997    43.617637   0.98129822 
    4600    287.82943   -764.82068    127031.48   -37181.432    3575.9976    -40757.43    45.169706    0.9817567 
    4700    292.98035   -349.59294       126879   -37083.442    3639.9927   -40723.435    46.303497   0.98293651 
    4800    290.40517   -225.86944    127217.65   -37123.956    3607.9986   -40731.955    48.011478   0.98032001 
    4900     292.9186   -732.69571     127219.2   -36953.351    3639.2255   -40592.576     49.67081   0.98030804 
    5000    296.21279   -560.02039    127311.35   -36874.825    3680.1525   -40554.977    50.743274    0.9795985 
    5100    296.55415   -554.13771    127184.59   -36980.298    3684.3936   -40664.692    51.678353   0.98057482 
    5200    293.44547   -325.25421    127192.34   -37063.246    3645.7713   -40709.017    53.140746   0.98051507 
    5300    297.14851    -577.6306    127190.18   -37020.598     3691.778   -40712.376    54.666139   0.98053169 
    5400    294.51188     -549.492    127213.65   -37063.299    3659.0204    -40722.32    55.833434   0.98035078 
    5500    289.93627   -526.76727    127098.48   -37072.618    3602.1729   -40674.791    56.830259   0.98123917 
    5600    292.14923   -554.15232    127088.73   -37080.429    3629.6668   -40710.096    57.754364   0.98131439 
    5700    290.61488   -272.54333    127416.39   -37038.219     3610.604   -40648.823    59.495729   0.97879087 
    5800    291.96906   -548.88732    127712.82   -37059.966    3627.4283   -40687.394    61.411475   0.97651908 
    5900     290.2766   -712.08959    127454.98   -37120.305    3606.4012   -40726.706    62.938946   0.97849458 
    6000    294.98736   -571.40074    127407.55   -37124.092    3664.9277    -40789.02    64.551012    0.9788588 
    6100    293.35646   -385.29801    127410.81    -37045.36    3644.6654   -40690.026    65.606257   0.97883378 
    6200    287.38523   -377.98385       127402    -37136.57    3570.4788   -40707.048    66.940264   0.97890147 
    6300    295.08415   -611.21924    127169.73   -37126.784    3666.1303   -40792.914    67.963456   0.98068938 
    6400    291.94736   -431.86146    127071.63   -37087.341    3627.1587   -40714.499    68.905415   0.98144649 
    6500    293.57836   -329.66289    127325.98   -36993.026    3647.4223   -40640.448    71.071003   0.97948593 
    6600    291.78696    -423.4426    127276.35   -37078.653     3625.166   -40703.819    72.384343   0.97986787 
    6700    287.20161   -435.55531     126932.8    -37153.86    3568.1974   -40722.057    72.894274   0.98251992 
    6800    293.32233   -675.83596    126829.64    -37074.09    3644.2414   -40718.331    73.977021   0.98331908 
    6900    295.42248   -517.88267    126588.28   -37018.762    3670.3337   -40689.096    74.839762   0.98519391 
    7000    295.93787   -457.79164    126728.57   -36976.787    3676.7369   -40653.524     75.74688   0.98410333 
    7100    292.63069   -530.48973    126492.42   -37028.694    3635.6484   -40664.343    76.953246   0.98594056 
    7200    295.01364   -493.59551    126674.68   -37020.797    3665.2542   -40686.052    78.222678   0.98452199 
    7300    292.03177   -777.64276    126559.86   -37126.069    3628.2074   -40754.276    79.420194   0.98541513 
    7400    289.54691   -692.22632    126587.77   -37143.106    3597.3356   -40740.441    80.636611    0.9851979 
    7500    292.27331   -409.90248    126608.76   -37102.196    3631.2084   -40733.404    81.553081   0.98503454 
    7600    290.96306   -401.57854    126832.95   -37197.655    3614.9298   -40812.585    83.078939    0.9832934 
    7700    293.86484   -525.01671    126996.02   -37107.641    3650.9816   -40758.622     84.37819   0.98203077 
    7800     290.9568   -551.17345    127153.98   -37098.065    3614.8521   -40712.917    85.930934   0.98081082 
    7900    290.78662   -342.68226    127263.77   -37140.868    3612.7377   -40753.605    87.896019   0.97996472 
    8000     294.2156   -486.54153    127476.58   -37143.103    3655.3394   -40798.442    88.954508   0.97832879 
    8100    293.98472   -489.19565    127014.56   -37239.441     3652.471   -40891.912    89.526281   0.98188747 
    8200    289.37708   -604.15718    127020.37   -37266.524    3595.2256   -40861.749    89.988801   0.98184251 
    8300    293.41859   -599.20853    127136.55   -37282.323    3645.4374    -40927.76    91.385328   0.98094532 
    8400    296.00276   -580.08122    126967.95   -37197.554    3677.5431   -40875.097    92.320441   0.98224793 
    8500    296.14389   -439.43721    127021.69   -37115.284    3679.2965    -40794.58    92.954631   0.98183238 
    8600    295.12796   -466.01089    127249.38   -37103.687    3666.6746   -40770.362    94.222108   0.98007554 
    8700     293.1484   -475.50672    127431.62   -37077.505    3642.0805   -40719.585    95.406925   0.97867393 
    8800    295.66563   -714.31845    127417.43   -37089.905    3673.3546    -40763.26     96.42015   0.97878292 
    8900    291.35568   -517.63491    127977.61   -37200.787    3619.8077   -40820.594    98.103258   0.97449859 
    9000    297.41107   -549.77118    128015.28   -37186.556      3695.04   -40881.596    99.323105   0.97421182 
    9100    291.67182   -780.26184    128030.55   -37275.355    3623.7354    -40899.09    100.16538   0.97409569 
    9200    290.84206   -386.29338    127743.57   -37113.375    3613.4265   -40726.802    101.34693   0.97628396 
    9300    290.53699   -507.64154     127517.1   -37166.807    3609.6363   -40776.443    102.27971   0.97801784 
    9400     293.0033   -640.13093    127020.13   -37135.341    3640.2778   -40775.619    103.17921   0.98184442 
    9500    295.54167   -342.81151    126997.32   -37149.314    3671.8145   -40821.128     104.0495   0.98202078 
    9600    291.86404   -531.39339    126935.06   -37088.572    3626.1236   -40714.696    104.94742   0.98250239 
    9700    298.32769   -378.64582    126656.26   -36980.789     3706.428   -40687.217    106.03914   0.98466514 
    9800    293.18055   -569.38222    126244.49    -37042.56    3642.4799    -40685.04    107.06737   0.98787684 
    9900    293.72827   -498.77937    126125.32    -37135.38    3649.2848   -40784.665    108.29689    0.9888102 
   10000    293.50269   -572.65186    126592.13    -37174.82    3646.4821   -40821.302    110.08874   0.98516397 
   10100    286.93223   -600.32723    126665.35   -37126.816    3564.8506   -40691.667    111.58101   0.98459445 
   10200    286.48387   -495.06544    126723.34   -37139.679    3559.2802   -40698.959    112.77158   0.98414391 
   10300    287.75041   -669.87781    126513.62   -37163.239    3575.0158   -40738.254    114.21203    0.9857753 
   10400    291.94757   -725.80851    126499.36   -37071.245    3627.1613   -40698.406    115.91089    0.9858864 
   10500    297.51905   -96.199595    126573.69   -37024.393    3696.3816   -40720.775    117.25361   0.98530749 
   10600     297.5153   -517.97713    126805.99    -36974.82    3696.3349   -40671.155    118.80459   0.98350245 
   10700    297.90257   -645.29921     126625.5   -36973.116    3701.1463   -40674.262    119.88191   0.98490432 
   10800    295.68995   -342.10478    126452.13   -36991.857    3673.6567   -40665.514    120.62457   0.98625469 
   10900    293.78113   -527.69859    126489.85   -36999.286    3649.9416   -40649.228    121.49744   0.98596055 
   11000    299.05325    -521.5355    126319.76   -36966.491    3715.4425   -40681.934    122.88679   0.98728813 
   11100    299.87735   -451.63326    126590.88   -36984.966     3725.681   -40710.647    123.62069    0.9851737 
   11200    292.39531   -425.05804     126582.3   -37013.329    3632.7241   -40646.053    124.59825   0.98524046 
   11300    292.73935   -410.93244    126782.08   -37021.714    3636.9984   -40658.712    125.76528   0.98368792 
   11400     291.7824   -818.19055    126625.03   -37052.625    3625.1093   -40677.734      127.223     0.984908 
   11500      291.745   -219.88419    126795.93   -37076.551    3624.6446   -40701.195    128.61819   0.98358047 
   11600    291.70213   -594.43995    126860.62   -37066.652     3624.112   -40690.764    129.81142    0.9830789 
   11700    291.83897   -383.63162    126966.42   -36954.338    3625.8121    -40580.15     131.2577   0.98225972 
   11800    293.52019   -768.76561    126985.05   -36972.001    3646.6996     -40618.7    132.67626   0.98211565 
   11900    287.45267   -548.80911     127233.3   -37010.416    3571.3167   -40581.733     133.8744   0.98019938 
   12000    294.82389   -599.84508    127236.75   -37011.581    3662.8968   -40674.478    135.06107   0.98017279 
   12100    294.64544    -455.5273    127232.07   -36956.426    3660.6798   -40617.106    136.12094   0.98020883 
   12200    293.68429   -562.59731    127319.66   -36959.058    3648.7384   -40607.797    137.60248   0.97953455 
   12300    294.76236   -324.25434    127285.19   -36992.396    3662.1324   -40654.528    138.55741   0.97979983 
   12400    291.74383   -329.68503    127544.92   -36995.262      3624.63   -40619.892    140.28301   0.97780452 
   12500      291.813   -428.53824    127553.37   -37067.169    3625.4895   -40692.658    141.83966   0.97773974 
   12600    296.79506   -526.63145    127522.97   -36980.579    3687.3866   -40667.965    143.20247   0.97797283 
   12700      293.643   -701.09037    127612.17   -36963.005    3648.2254   -40611.231    145.27811   0.97728923 
   12800    294.00876   -435.33483    127405.07   -36876.484    3652.7696   -40529.253     146.4535   0.97887789 
   12900    297.18724   -559.33221    127493.58   -36984.952    3692.2591   -40677.211    147.73531   0.97819832 
   13000    296.21159   -664.13228    127506.71   -36927.679    3680.1376   -40607.816    149.10229   0.97809759 
   13100    301.43967   -491.18833    127645.42   -36934.299    3745.0914    -40679.39    150.50129   0.97703468 
   13200    295.66055   -515.74795    127710.71   -36874.773    3673.2915   -40548.064    151.41868   0.97653521 
   13300     289.2749   -442.94754     127297.5    -36895.69     3593.956   -40489.646    152.57788   0.97970503 
   13400    294.97723   -703.21232    126971.47   -36977.289    3664.8019    -40642.09    153.00331   0.98222065 
   13500    293.74977   -493.74653     126619.8   -37073.374    3649.5519   -40722.926    153.63842   0.98494863 
   13600    295.32652   -500.15251    126750.73   -37127.388    3669.1415   -40796.529    154.99303   0.98393126 
   13700    295.38068    -218.3233    126928.81   -37064.915    3669.8144    -40734.73    156.41304    0.9825508 
   13800    300.42633   -229.25914    127015.47    -37008.05    3732.5017   -40740.551    158.05149   0.98188044 
   13900    294.36419   -697.33764    127066.51   -37081.377    3657.1855   -40738.563    159.08251   0.98148604 
   14000    298.07263   -364.25752    126908.89   -37052.794    3703.2592   -40756.054    160.40309     0.982705 
   14100    299.75996   -514.49395    127090.61   -37044.666    3724.2227   -40768.889    162.06096   0.98129988 
   14200    298.57989    -549.5679    126966.63   -37081.829    3709.5614   -40791.391    163.30422   0.98225809 
   14300    288.76913   -484.53314    126897.35   -37212.172    3587.6723   -40799.845    164.66544   0.98279437 
   14400     290.5459   -613.25807    126793.76   -37143.587     3609.747   -40753.334    165.37341   0.98359736 
   14500    288.66861   -391.42572    126633.43   -37082.936    3586.4236    -40669.36    165.92034   0.98484264 
   14600    291.57405   -494.53871     126736.2   -37045.369    3622.5208   -40667.889    167.06354   0.98404406 
   14700    292.74896   -487.57833    126658.24   -37085.016    3637.1179   -40722.134    168.65955   0.98464975 
   14800    294.14319   -463.69978    126550.77   -37156.311    3654.4398   -40810.751    169.73933   0.98548593 
   14900    288.98193   -203.93447    126504.16   -37214.763    3590.3162   -40805.079    171.07532   0.98584906 
   15000    289.10467   -445.34151     126731.9   -37207.314    3591.8411   -40799.155    172.41156   0.98407747 
   15100    283.20681    -440.1272    126768.39   -37248.625    3518.5661   -40767.191     173.6021    0.9837942 
   15200    292.57917   -470.48747    126628.68   -37157.032    3635.0084    -40792.04    175.00691    0.9848796 
   15300     291.0454   -459.09296     126632.1   -37160.089    3615.9528   -40776.042    176.14837   0.98485302 
   15400    285.78895   -697.29583    126931.94   -37135.058    3550.6466   -40685.705    177.97112   0.98252655 
   15500    290.17642   -236.40714    126900.04   -37071.899    3605.1565   -40677.055    178.91844   0.98277359 
   15600    294.08017   -426.95966    126940.15   -37013.523    3653.6568    -40667.18    180.38164   0.98246303 
   15700    290.73714   -593.19045    126589.89   -37096.429     3612.123   -40708.552    181.35867    0.9851814 
   15800    292.47043   -420.20512    126831.41    -37078.61    3633.6573   -40712.267    182.57628   0.98330536 
   15900    289.03415   -513.17775     126619.5   -37175.972     3590.965   -40766.937    183.52932   0.98495101 
   16000    296.07104   -586.77481    126542.72   -37134.862    3678.3914   -40813.254    184.43978   0.98554865 
   16100    296.60612   -352.09652    126494.26   -37078.076    3685.0392   -40763.115    185.51949   0.98592617 
   16200    292.74227   -467.36529    126795.09   -37107.721    3637.0348   -40744.756    187.39708     0.983587 
   16300    288.51462   -268.03996    126755.93   -37114.369    3584.5103   -40698.879     188.3111   0.98389086 
   16400    291.45969   -465.90308    126857.41   -37034.015    3621.0999   -40655.115    189.52463   0.98310382 
   16500    292.65012   -581.43851     126780.8   -36987.908    3635.8898   -40623.798     191.0299   0.98369789 
   16600    297.92483   -481.28053    126563.99   -36949.031    3701.4229   -40650.453    192.52314     0.985383 
   16700    298.01216   -428.88692    126729.82   -36965.922     3702.508    -40668.43    194.14787   0.98409361 
   16800      293.134   -410.38067    126804.04   -36969.156    3641.9016   -40611.058    195.58134   0.98351757 
   16900    292.97055   -443.19302    126803.08   -36901.935    3639.8708   -40541.806    197.14304   0.98352504 
   17000    293.87886    -524.7158    126553.71   -36953.661    3651.1557   -40604.817    198.17163   0.98546301 
   17100    302.14483   -584.45786    126176.39   -36862.364    3753.8523   -40616.216     198.9382   0.98840997 
   17200    300.06958   -419.20663    126344.45   -36857.003    3728.0694   -40585.073     199.8358   0.98709519 
   17300    293.56957   -486.56154    126397.06   -36976.027    3647.3131   -40623.341    200.69503   0.98668435 
   17400     294.5384   -491.96256    126594.09   -36952.581    3659.3499    -40611.93    202.70222   0.98514874 
   17500     296.0609    -696.3651    126646.91    -36959.93    3678.2655   -40638.196    204.13628   0.98473787 
   17600    299.92588   -454.79528    126795.11   -36946.896    3726.2841   -40673.181    205.26211   0.98358684 
   17700    294.08431   -478.54563    126912.72   -36986.147    3653.7082   -40639.856    206.45024   0.98267534 
   17800    298.73053   -402.56632    127128.41   -36972.199     3711.433   -40683.632    207.97503   0.98100815 
   17900    298.88096   -389.92468    127079.49   -36978.969    3713.3019   -40692.271    208.86799   0.98138578 
   18000    293.28083   -665.19058    126970.94   -36880.708    3643.7258   -40524.434    210.09324   0.98222478 
   18100    291.74292   -646.26827    127059.82   -37011.966    3624.6188   -40636.584    211.46444   0.98153769 
   18200    297.82891   -406.48787    127029.79   -37029.918    3700.2313   -40730.149     212.9869   0.98176973 
   18300    293.70626   -795.50085    127276.75   -36967.619    3649.0114   -40616.631    214.45375   0.97986474 
   18400    291.93415   -373.84159     127358.3   -36990.989    3626.9946   -40617.984    215.58915   0.97923737 
   18500    295.80111    -403.5767    127486.12   -36954.908    3675.0378   -40629.946    217.04402   0.97825555 
   18600    292.68758   -239.30085    127229.76   -36993.296    3636.3552   -40629.651    218.11854   0.98022667 
   18700    295.26348   -614.21193    127274.62   -36966.642    3668.3582       -40635    219.65829   0.97988115 
   18800    297.48429   -781.78874    127163.22   -36949.545    3695.9497   -40645.494     220.7632   0.98073961 
   18900    294.99942   -445.19459    127105.66   -36963.147    3665.0776   -40628.225    222.22132   0.98118369 
   19000    289.99221   -259.49033    127049.82   -36938.024    3602.8679   -40540.891    223.99477   0.98161496 
   19100    296.77837   -614.23318    127077.02   -36970.923    3687.1793   -40658.102    225.16814   0.98140488 
   19200    298.31554   -625.10687    126737.01   -36975.072    3706.2771   -40681.349    226.52894    0.9840378 
   19300    301.83884   -291.32454    127306.11    -36875.84    3750.0507    -40625.89    228.71217    0.9796388 
   19400    298.07764   -518.56621    127419.38   -36901.517    3703.3215   -40604.839    230.08147   0.97876793 
   19500    295.70798   -455.06489    127287.16   -36916.001    3673.8808   -40589.882    231.25085   0.97978461 
   19600    292.91154   -561.07389    127089.34   -36935.192    3639.1378    -40574.33    232.90084   0.98130974 
   19700    293.55029   -617.07823    126938.11    -36968.33    3647.0736   -40615.403    233.45605   0.98247884 
   19800    296.43199   -533.35532    127054.13   -36981.931    3682.8759   -40664.807    235.07224   0.98158169 
   19900    294.08245   -535.52825    126399.37    -37045.09    3653.6852   -40698.775     235.1564   0.98666636 
   20000    295.06711   -292.68403    126690.84   -37093.863    3665.9186   -40759.781      236.086   0.98439638 
   20100    294.48653   -648.29794    126803.76   -37028.334    3658.7055   -40687.039     237.1725   0.98351973 
   20200     290.7272   -447.43893    126829.16   -37091.324    3611.9995   -40703.323    238.09851   0.98332279 
   20300    289.23089   -503.05074    126613.52   -37118.738    3593.4093   -40712.147    238.72339   0.98499754 
   20400    290.22336   -296.65905    126697.45   -37082.827    3605.7398   -40688.567     239.8214   0.98434505 
   20500    291.16073   -331.26075    126764.28   -37048.618    3617.3857   -40666.004    240.74244   0.98382611 
   20600    290.14398   -442.17346    126807.72   -37071.325    3604.7536   -40676.079    242.48822   0.98348907 
   20700    295.81189   -535.77466    126709.28    -37007.27    3675.1718   -40682.442    243.73817    0.9842531 
   20800    298.23248   -766.29993    126367.26   -36975.592    3705.2452   -40680.837    245.73345   0.98691706 
   20900    295.42985   -607.22121    126395.45   -37075.706    3670.4253   -40746.132    246.84479   0.98669697 
   21000    285.02588   -465.16724    126500.34   -37189.557    3541.1662   -40730.723    248.03951   0.98587879 
   21100    287.05352    -506.5394    126328.95   -37232.104    3566.3576   -40798.462    248.52078   0.98721636 
   21200    289.67759   -385.01502     126329.8   -37214.487    3598.9591   -40813.446    249.77857    0.9872097 
   21300    289.00742   -459.96035    126471.93   -37232.148    3590.6329   -40822.781    250.37639   0.98610025 
   21400    288.62955   -370.73189     126522.2   -37165.956    3585.9382   -40751.894    251.53622   0.98570849 
   21500    284.35121   -440.07842    126649.36   -37165.242     3532.784   -40698.026    252.43168   0.98471879 
   21600    293.81769   -1013.5733     126607.8   -37089.405    3650.3957   -40739.801    253.15888   0.98504206 
   21700    292.23047   -560.27776    126602.04   -37039.836    3630.6761   -40670.512    254.64329   0.98508682 
   21800    293.92941   -431.99038    126817.91   -37025.234    3651.7838   -40677.018    256.76244   0.98341005 
   21900    296.32359   -514.60108    126726.16   -37055.414    3681.5291   -40736.944    257.52852   0.98412202 
   22000    293.08607   -683.33437     126778.9   -37070.055    3641.3061   -40711.361    258.80116   0.98371261 
   22100    292.10046   -542.04871    126737.87   -37017.249    3629.0609    -40646.31    259.70514   0.98403105 
   22200    297.28437    -640.2118    126867.69   -37044.959    3693.4659   -40738.425    261.18004   0.98302412 
   22300    298.22742   -579.34855    126949.97   -37056.742    3705.1823   -40761.924    262.52385   0.98238702 
   22400    299.13792   -593.31674    127050.87   -36970.219    3716.4944   -40686.714    263.55815   0.98160688 
   22500    293.42877   -718.41201    127210.74   -37007.661    3645.5638   -40653.225    264.39381   0.98037325 
   22600    299.59422   -366.79621    126965.63   -36901.488    3722.1635   -40623.651     265.2584   0.98226583 
   22700    296.07373   -525.52613     127083.3   -36895.275    3678.4249     -40573.7    265.85881   0.98135638 
   22800    296.95862   -624.38652    126860.74    -36935.01    3689.4188   -40624.428    266.23806   0.98307798 
   22900    297.62813   -584.62878     126890.9   -36977.661    3697.7367   -40675.397    266.42191   0.98284434 
   23000    294.82401    -342.5988    126506.73   -36952.699    3662.8983   -40615.597    267.15059   0.98582904 
   23100     287.2549   -608.05439     126611.9   -37086.588    3568.8596   -40655.447    268.67552   0.98501016 
   23200     295.7698   -124.23154    126537.87   -37038.588    3674.6489   -40713.237    270.17857   0.98558637 
   23300    289.02642    -317.7318    126860.47   -37099.735    3590.8689   -40690.604    272.02059   0.98308011 
   23400    294.59824    -600.2035    126671.91   -36994.737    3660.0933    -40654.83     273.4783   0.98454346 
   23500    295.41351   -337.40251     126864.3   -37016.048    3670.2222    -40686.27    274.82175   0.98305043 
   23600    291.13766   -367.93893    126687.05   -37033.876     3617.099   -40650.976    275.49305   0.98442583 
   23700    295.16142   -688.61454    126799.66   -37027.863    3667.0903   -40694.953    277.02187   0.98355156 
   23800    288.71123   -313.41284    126931.91   -37108.207     3586.953    -40695.16    277.82072   0.98252684 
   23900    298.55686   -631.20364    126754.51   -37096.136    3709.2753   -40805.411    278.52297   0.98390194 
   24000    291.67882   -550.33775    126741.61   -37057.573    3623.8224   -40681.395    279.15324   0.98400206 
   24100    295.64588    -212.5326    126965.07    -37073.15    3673.1092    -40746.26    281.00528   0.98227016 
   24200    292.41599   -538.04395    126886.61   -37131.984    3632.9811   -40764.965    282.20687    0.9828776 
   24300    289.53279   -545.53553    126849.15   -37137.945    3597.1601   -40735.106    283.11746   0.98316784 
   24400    292.35591   -391.43995    126768.66   -37143.668    3632.2346   -40775.903    284.07271   0.98379211 
   24500    290.74345   -508.60394    126966.26   -37133.481    3612.2013   -40745.682    285.17703   0.98226097 
   24600    291.25655   -445.39929     126505.6   -37109.871    3618.5761   -40728.447    285.99918    0.9858378 
   24700     294.2241   -565.83006    126732.54   -37093.294     3655.445   -40748.739    287.38727   0.98407245 
   24800    292.87891   -326.22056     126882.3   -37109.452    3638.7323   -40748.185     288.2939   0.98291093 
   24900    288.96247   -484.74486    126992.78   -37061.857    3590.0744   -40651.931     290.0041   0.98205589 
   25000    293.13266   -531.86549    127155.23   -37053.342     3641.885   -40695.227    291.26012   0.98080119 
   25100    295.38399   -502.74266    127170.47   -37011.657    3669.8555   -40681.512    293.01635   0.98068367 
   25200    295.64706   -385.06019    127243.24   -37009.676    3673.1239     -40682.8    294.77072   0.98012279 
   25300    291.88899    -496.0401    127524.02   -37015.075    3626.4336   -40641.509    296.06009   0.97796478 
   25400    290.00173   -849.21977    127095.33   -37015.098    3602.9862   -40618.085     297.2628   0.98126344 
   25500    295.90672   -277.29104    127006.99   -36961.262    3676.3499   -40637.612    298.14188   0.98194595 
   25600      288.967   -604.13619    126960.59   -37049.749    3590.1307   -40639.879    299.38631   0.98230486 
   25700    288.14811   -551.03352    127087.67    -37076.28    3579.9568   -40656.237    301.08104   0.98132261 
   25800    295.33892   -343.42892    127123.34   -37029.889    3669.2955   -40699.185    302.22469   0.98104726 
   25900    295.06656   -443.67175     127132.1   -37010.156    3665.9117   -40676.068    304.05645   0.98097963 
   26000    297.72304   -578.09138    127322.87   -36947.478    3698.9159   -40646.394    305.88699   0.97950984 
   26100    294.02123   -443.63396    127332.47   -37030.234    3652.9245   -40683.159    307.62135   0.97943596 
   26200    300.02162   -542.58096     126964.9   -37046.554    3727.4735   -40774.028    308.71605   0.98227148 
   26300    300.37621   -155.60088    126638.38   -36971.341     3731.879    -40703.22     308.1506   0.98480416 
   26400    298.38062    -576.2154    126582.34   -37000.083    3707.0857   -40707.169    309.15374   0.98524019 
   26500    292.03866   -394.73983    126730.59    -37117.46    3628.2931   -40745.753    310.58887   0.98408761 
   26600     291.3491   -566.70213    126742.47   -37149.913     3619.726   -40769.639    311.61918   0.98399534 
   26700     288.6306   -445.19748    126965.84    -37164.15    3585.9513   -40750.102    313.06366   0.98226427 
   26800    291.71654   -409.41217    126926.09   -37046.991    3624.2911   -40671.282    314.10073   0.98257187 
   26900    292.96644   -545.93329    127200.65   -37076.579    3639.8199   -40716.399    315.81758   0.98045096 
   27000    292.77852   -683.78238    127112.48   -37110.885    3637.4851   -40748.371     316.8651   0.98113109 
   27100    290.61125   -207.86205     127024.1   -37138.183    3610.5589   -40748.742    317.73466   0.98181374 
   27200    294.94151   -718.30678    127073.81   -37141.563    3664.3581   -40805.921    318.25577   0.98142965 
   27300    293.81873   -701.81575    127016.87   -37201.793    3650.4086   -40852.202    319.64583   0.98186964 
   27400    289.37457   -578.60833    126959.51   -37169.861    3595.1944   -40765.055    320.06293   0.98231321 
   27500     297.2656   -508.06881    126676.93   -37029.111    3693.2327   -40722.344    320.32696   0.98450449 
   27600    295.58656   -648.98722    126958.03   -37051.594    3672.3722   -40723.966     321.8726   0.98232468 
   27700    296.10453   -622.91375    126996.23    -37068.16    3678.8075   -40746.967      323.518   0.98202916 
   27800    294.33412   -615.41927    127214.36   -36949.915    3656.8119   -40606.727    324.97906   0.98034532 
   27900    299.23984    -514.1848    127201.63   -36975.055    3717.7606   -40692.816    326.02577   0.98044347 
   28000    294.08044   -410.92587    127569.46   -37037.395    3653.6602   -40691.055    327.46281   0.97761642 
   28100     295.3719   -473.95879    127879.05   -36915.305    3669.7053    -40585.01    329.44642   0.97524966 
   28200    290.37286   -523.53647    127384.11   -37022.563    3607.5972    -40630.16    329.84366   0.97903893 
   28300    291.62708   -805.64938    127250.71   -37028.555    3623.1796   -40651.735    330.91135   0.98006531 
   28400    290.96833   -659.72634    126809.26     -37068.4    3614.9952   -40683.395    332.46524   0.98347713 
   28500    292.25324   -615.86543    126763.94   -37112.759    3630.9591   -40743.718    333.50435   0.98382874 
   28600    292.79121   -284.18887    127011.03   -37034.549    3637.6427   -40672.191     334.8441   0.98191476 
   28700    299.04105   -578.20231    127341.62   -37020.471    3715.2909   -40735.762    335.86361   0.97936557 
   28800     298.5482    -645.8915    126966.75   -37000.041    3709.1678   -40709.209    335.14186   0.98225717 
   28900    301.82973    -603.4655    127167.86   -36982.963    3749.9375   -40732.901    336.54934    0.9807038 
   29000    289.84206   -834.86867    126912.93    -37082.42    3601.0025   -40683.422    337.55618   0.98267375 
   29100    292.47368    -557.0648    126968.78   -37021.162    3633.6978    -40654.86    338.77616    0.9822415 
   29200    290.11662   -568.28778    126948.66   -36957.305    3604.4137   -40561.719    340.06137   0.98239715 
   29300    291.42945   -489.85672     126856.2   -37048.173    3620.7242   -40668.897    340.51829    0.9831132 
   29400    291.02991   -810.76594     126850.3   -37124.004    3615.7603   -40739.764    342.47471   0.98315891 
   29500    288.98866   -713.32208     126804.7   -37163.179    3590.3998   -40753.579    342.97569   0.98351244 
   29600    289.82326   -582.99415    126886.51   -37038.424     3600.769   -40639.193    344.33869   0.98287831 
   29700      291.956    -283.0706    126967.13   -37069.957    3627.2661   -40697.223    345.71874   0.98225424 
   29800    291.77818   -372.64275    126683.97   -37076.685    3625.0568   -40701.742    345.88073   0.98444973 
   29900    289.43122   -570.80756    126813.58   -37091.627    3595.8982   -40687.525    347.15627   0.98344358 
   30000    288.87838   -775.16689    126987.25   -37066.401    3589.0297   -40655.431    349.33609   0.98209859 
   30100    290.12679   -339.44124    126797.48    -37055.01    3604.5399    -40659.55    350.29148   0.98356849 
   30200     291.9027   -501.50602     127093.9   -37070.551    3626.6039   -40697.155    351.78239   0.98127451 
   30300    295.68178   -826.42513     127019.9   -37030.098    3673.5552   -40703.654    352.53615   0.98184616 
   30400     292.1661   -684.11996    127153.65   -36968.731    3629.8764   -40598.607    353.53229    0.9808134 
   30500    296.40401    -566.9025     126792.2   -36997.968    3682.5283   -40680.496    354.66311   0.98360941 
   30600    293.39592   -550.57566    126750.74   -36994.355    3645.1556    -40639.51     355.0084   0.98393116 
   30700    293.83865   -584.32617    126619.89   -36999.934    3650.6562    -40650.59    355.57877   0.98494796 
   30800    297.60699   -376.04085    126552.58   -36957.846    3697.4741    -40655.32    357.45062   0.98547184 
   30900    293.11797   -595.85186    126638.07   -37059.575    3641.7024   -40701.278    358.91631   0.98480657 
   31000    288.41068   -519.91901    126395.62   -37125.664     3583.219   -40708.883    359.68585   0.98669561 
   31100    289.23154   -544.19189    126632.94    -37160.55    3593.4173   -40753.967    361.08967   0.98484644 
   31200    291.04846   -664.69087    126666.03   -37125.305    3615.9908   -40741.296    362.24219   0.98458915 
   31300    293.81925   -414.20346    126462.81   -37094.064    3650.4152   -40744.479    363.10938    0.9861714 
   31400    296.36552   -477.34359    126433.25   -37011.821    3682.0501   -40693.872    364.03833   0.98640193 
   31500    288.85602   -538.69434    126260.32   -37101.086    3588.7519   -40689.838    364.99476   0.98775298 
   31600    298.03411   -367.60251    126345.98   -37057.372    3702.7807   -40760.152     365.9593   0.98708327 
   31700    296.10998   -365.28863    126563.31   -37110.325    3678.8752     -40789.2    368.32283   0.98538831 
   31800    294.38436   -739.80664    126631.91   -37051.259    3657.4361   -40708.695    370.16916   0.98485448 
   31900    300.73719   -395.26769    126927.81   -36984.607    3736.3637   -40720.971    372.53855   0.98255852 
   32000    295.05008    -739.3034    126796.83    -36998.36     3665.707   -40664.067    374.25246    0.9835735 
   32100    289.71186   -587.59211    126814.91   -37035.279    3599.3849   -40634.664    375.96669   0.98343328 
   32200    296.91252    -659.3014     126750.2   -37015.065     3688.846   -40703.912    376.98129   0.98393539 
   32300    302.55691   -333.65232    126544.61   -36991.353     3758.972   -40750.325    376.63302   0.98553387 
   32400    293.19382   -368.87883    126794.67   -37053.358    3642.6448   -40696.002    376.96479   0.98359025 
   32500     292.0411   -649.54194    126666.92   -37096.775    3628.3234   -40725.098    377.36691    0.9845823 
   32600    295.88082   -440.36078    126659.02   -36992.693    3676.0281   -40668.721     378.3041   0.98464371 
   32700    296.96514    -722.2964    126448.06   -37047.258    3689.4998   -40736.757    379.20611    0.9862864 
   32800    296.90443   -479.78025     126280.4   -37104.465    3688.7455    -40793.21    380.09531   0.98759586 
   32900     288.8849   -478.17134    126268.54       -37116    3589.1107   -40705.111    381.22275   0.98768867 
   33000    288.86828   -601.21758    126067.98   -37186.955    3588.9042   -40775.859    381.96465   0.98925998 
   33100    291.97441   -259.35388    126109.62   -37088.676    3627.4948   -40716.171    383.26408   0.98893332 
   33200    289.17103   -505.83027    126286.68   -37125.078    3592.6656   -40717.744    384.20147   0.98754679 
   33300    290.97899   -445.92135    126437.19   -37053.913    3615.1277   -40669.041    386.09738   0.98637124 
   33400    288.50235   -595.34628     126559.6   -37118.231    3584.3579   -40702.589    387.72169   0.98541716 
   33500    291.61765   -737.41826    126418.32    -37123.65    3623.0624   -40746.713    388.36524   0.98651844 
   33600    293.47164   -385.55187    126476.47   -37070.307    3646.0964   -40716.403    389.76036    0.9860649 
   33700     298.4158   -431.41107     126791.1   -37031.729    3707.5228   -40739.252    391.23443   0.98361797 
   33800    298.77847   -522.56476    126951.41   -37044.402    3712.0286    -40756.43    392.68699   0.98237588 
   33900    294.25972   -227.66809    127331.95   -37067.491    3655.8876   -40723.379    394.88089      0.97944 
   34000    288.41368   -342.27127    127166.01   -37036.566    3583.2563   -40619.823    395.16957    0.9807181 
   34100     287.7366   -587.35101    127195.51   -37039.836    3574.8442    -40614.68    396.08053   0.98049062 
   34200     294.6336   -259.19109     127612.9   -36969.159    3660.5327   -40629.691    397.59826   0.97728369 
   34300    295.04311    -680.3829    127619.11   -37027.834    3665.6204   -40693.455    398.58421   0.97723613 
   34400    299.01103   -398.45836    127202.77   -36940.575    3714.9179   -40655.493     398.5064   0.98043461 
   34500    297.43272   -857.24675    127338.24   -36981.412     3695.309   -40676.721    400.11825   0.97939159 
   34600    290.28941   -552.60848    127176.63   -36960.016    3606.5604   -40566.577    401.04421   0.98063616 
   34700    296.11473   -496.51615     127230.3   -37033.501    3678.9342   -40712.435    402.20481   0.98022253 
   34800    290.21128   -605.90118    127104.61   -37038.325    3605.5897   -40643.915    402.86667   0.98119178 
   34900    292.09021   -580.40607    127241.84    -37067.03    3628.9335   -40695.963    404.33639    0.9801336 
   35000    291.03823   -679.41245    127144.74   -37192.819    3615.8637   -40808.683    405.13944   0.98088216 
   35100    282.71393   -309.59253    126996.62   -37121.664    3512.4425   -40634.106    405.81725   0.98202613 
   35200    291.25502   -404.14031       126865   -37101.634    3618.5571   -40720.191    407.32554   0.98304499 
   35300    289.50911   -415.25423    126696.09    -37061.87    3596.8659   -40658.736     407.5586   0.98435555 
   35400    295.87051   -594.67013    126671.67   -37058.193       3675.9   -40734.093    408.68469   0.98454536 
   35500    298.74788   -313.09208    126725.73   -36988.502    3711.6486   -40700.151    409.79766   0.98412539 
   35600    290.96993   -466.18969    126817.44   -37035.082    3615.0152   -40650.097     411.9887    0.9834137 
   35700    292.68999   -491.73164    126796.06   -36986.423    3636.3852   -40622.808    413.21819   0.98357947 
   35800    290.48093   -178.61839    126790.59   -37005.746    3608.9398   -40614.686    414.90538   0.98362191 
   35900    300.59683   -841.58443     127100.5   -36907.611    3734.6199   -40642.231     416.0082   0.98122352 
   36000    301.73267   -461.95536    126773.82   -36870.408    3748.7316    -40619.14     416.8567   0.98375205 
   36100    294.77537   -547.30647    126692.05   -36917.723     3662.294   -40580.017    417.52672   0.98438696 
   36200    294.37339   -694.72562    126080.06   -36967.059    3657.2998   -40624.359    417.49887   0.98916516 
   36300    290.65339   -719.92593    126012.72   -37033.755    3611.0824   -40644.838    418.62697   0.98969376 
   36400    296.14839   -497.25456    126194.23    -37024.72    3679.3524   -40704.072    419.82509   0.98827026 
   36500    293.52425   -470.72287    126326.91   -36979.223    3646.7501   -40625.973    420.42867   0.98723227 
   36600    284.84519   -231.86185     126164.7   -37136.809    3538.9213    -40675.73    420.80713   0.98850154 
   36700    290.25248   -524.32744    126573.11   -37120.185    3606.1015   -40726.286    423.04384   0.98531198 
   36800    294.25456   -232.58571    126717.01   -37066.075    3655.8235   -40721.899    424.68393   0.98419311 
   36900    284.82224   -475.23894     126860.4   -37123.834    3538.6361    -40662.47    426.88024   0.98308067 
   37000     288.4112   -560.01183    126754.82   -37046.993    3583.2255   -40630.218    428.10843   0.98389947 
   37100    296.63823   -302.51568       126904   -37009.682    3685.4381    -40695.12    429.55891   0.98274291 
   37200    292.92817   -433.43339       127153   -37055.037    3639.3443   -40694.382    431.57493   0.98081844 
   37300    294.15553   -360.42067    127602.78   -37082.001    3654.5931   -40736.594    433.99058   0.97736119 
   37400    288.94488   -539.48009     127495.9   -37111.515    3589.8558   -40701.371    433.90963   0.97818052 
   37500    296.82982   -541.55423    127269.85   -37146.231    3687.8185   -40834.049    433.69543   0.97991787 
   37600    289.61467   -558.62179    127291.85   -37075.028    3598.1774   -40673.206    435.03818   0.97974853 
   37700    288.33367    2.2712357    127312.83   -37056.781    3582.2622   -40639.043    436.11153   0.97958707 
   37800    292.55168     -644.921    127108.86    -37196.24    3634.6668   -40830.907     436.0477   0.98115898 
   37900    291.00914   -471.66705     127259.5   -37159.034    3615.5023   -40774.536    436.69284   0.97999759 
   38000    291.56916   -346.87326    127419.42   -37119.201      3622.46   -40741.661    438.40433   0.97876763 
   38100    291.11308   -394.41971    127519.59   -37057.197    3616.7936    -40673.99      438.792   0.97799875 
   38200    296.44971   -323.97306    127146.13   -37026.165     3683.096   -40709.261    439.51107   0.98087142 
   38300     293.5376   -102.13848    127158.58    -36990.54     3646.916   -40637.456    441.14116   0.98077539 
   38400    292.63798   -486.20774    127502.31   -37056.293     3635.739   -40692.032    444.28646   0.97813134 
   38500    290.47114     -640.213    127534.36   -37066.773    3608.8182   -40675.591    445.18797    0.9778855 
   38600    296.16821   -534.80673    127383.54   -37027.981    3679.5987    -40707.58    446.03076    0.9790433 
   38700    294.11856   -741.25998    127281.96   -37033.084    3654.1338   -40687.218    447.51987   0.97982465 
   38800    289.97313   -525.86059    126985.09   -37105.306    3602.6309   -40707.937     449.1504   0.98211531 
   38900    291.86657   -511.01146    126583.05   -37020.155     3626.155    -40646.31    449.37521   0.98523459 
   39000    290.43967   -886.86805    126528.28   -37099.746    3608.4272   -40708.173    450.73598   0.98566114 
   39100    293.52778   -429.54948    126502.47   -36993.406    3646.7939     -40640.2    451.87987   0.98586222 
   39200    293.37422   -510.28649    126467.95   -37028.781    3644.8861   -40673.667    454.30335   0.98613127 
   39300    294.44671   -405.61977    126603.94   -37015.558    3658.2108   -40673.768    455.74319   0.98507205 
   39400    295.00269   -467.83188     126565.4   -36994.518    3665.1182   -40659.636    456.77539   0.98537199 
   39500    291.82165   -613.15698    126586.64   -37038.082    3625.5969   -40663.679    457.81893   0.98520665 
   39600    298.33548   -598.52836    126948.01    -36986.73    3706.5248   -40693.255     459.3327   0.98240218 
   39700    297.09565    -427.1218    126868.89   -36928.462    3691.1212   -40619.583    460.18619   0.98301489 
   39800    291.25572   -660.84181    126889.39   -37041.337    3618.5658   -40659.902    462.36025   0.98285602 
   39900    292.67564   -509.55916    126823.81   -37117.431    3636.2069   -40753.638    462.23481   0.98336426 
   40000    292.41052   -485.41052    127159.63     -37075.8     3632.913   -40708.713    464.30103   0.98076727 
   40100    296.24741   -582.33563    127258.92   -37019.102    3680.5827   -40699.685     465.9354   0.98000208 
   40200    295.24106   -492.09248    127282.24   -37038.874    3668.0798   -40706.954    467.22761   0.97982253 
   40300    289.95932   -511.64544    127400.61    -37059.74    3602.4593   -40662.199    468.57939   0.97891217 
   40400    295.68224   -351.50983    126815.39   -36912.749     3673.561    -40586.31    468.19369   0.98342955 
   40500    300.17741   -467.50574    126965.12   -36912.249     3729.409   -40641.658    469.23581   0.98226982 
   40600    295.47105    -309.1703    127062.87   -36973.763    3670.9371     -40644.7    469.97106   0.98151412 
   40700    291.81306   -164.78982    127300.67   -37066.697    3625.4902   -40692.187    471.69562   0.97968063 
   40800    289.91398   -442.70744    127345.84   -37098.956     3601.896   -40700.852    473.12495   0.97933312 
   40900     291.8891   -506.36186    127284.74   -37181.422    3626.4349   -40807.857    474.07466   0.97980326 
   41000    291.69629   -572.46063    127314.87   -37017.951    3624.0395    -40641.99     475.2811   0.97957138 
   41100    294.04481   -287.10576    127242.07   -37013.469    3653.2175   -40666.686    476.24987   0.98013185 
   41200    295.47007   -436.85237    127059.92   -37006.646     3670.925   -40677.571    476.46609   0.98153694 
   41300    284.58949   -404.93882    127008.96    -37239.01    3535.7444   -40774.755    476.62325   0.98193076 
   41400    289.40928   -600.37736    127022.71   -37136.701    3595.6256   -40732.327    476.63997   0.98182444 
   41500      293.882    -338.6303    127028.18   -37127.064    3651.1948   -40778.259    478.57124   0.98178218 
   41600    296.68265   -603.49253    127014.97   -37094.527    3685.9901   -40780.517    479.81263   0.98188432 
   41700    293.72101   -617.61405    126887.38   -37052.458    3649.1946   -40701.653    480.56555   0.98287158 
   41800    297.37992   -489.56939    127031.98   -37054.223    3694.6529   -40748.876    481.78403   0.98175282 
   41900    293.73223   -553.85038    126887.48   -37016.764     3649.334   -40666.098     482.6735   0.98287083 
   42000    295.88652   -425.31577    127126.21    -36983.34     3676.099   -40659.439    484.80141    0.9810251 
   42100     290.7643   -692.19645    126898.73   -36968.532    3612.4604   -40580.992    485.20836   0.98278373 
   42200    294.09148   -501.31944    126767.84   -36939.102    3653.7973   -40592.899    486.62204   0.98379843 
   42300    296.98317   -392.20131    126855.17   -36948.661    3689.7237   -40638.384    487.45284    0.9831212 
   42400    294.54803   -237.46496    126811.54   -36985.885    3659.4695   -40645.355     488.6651   0.98345938 
   42500    292.39847   -489.15143    126976.66   -37019.545    3632.7633   -40652.308    489.32667   0.98218057 
   42600    300.79814   -535.51432    127114.39    -36970.93     3737.121   -40708.051    491.59723   0.98111632 
   42700    298.79084   -532.35268    127234.69   -37004.495    3712.1823   -40716.677    492.85513   0.98018866 
   42800    295.25455   -408.25822    127192.62   -36964.882    3668.2473    -40633.13    493.40587   0.98051292 
   42900    294.31772   -426.94408    127059.31   -37045.258    3656.6081   -40701.866    493.94071   0.98154162 
   43000    293.56236   -473.28018    127109.02   -37121.305    3647.2236   -40768.528    494.71534    0.9811578 
   43100    289.57641    -337.4595    127024.16   -37106.603     3597.702   -40704.305    495.92881   0.98181326 
   43200    292.29389   -510.06055    127351.54   -37018.397     3631.464   -40649.861    497.87441    0.9792893 
   43300    294.17048   -606.38387     127203.9   -37032.487    3654.7788   -40687.266    500.05514   0.98042598 
   43400    295.92618   -470.69764    127191.38   -36982.448    3676.5917    -40659.04    501.44921   0.98052248 
   43500    292.43745   -263.40805    127079.39   -36989.396    3633.2476   -40622.643     502.3696   0.98138655 
   43600    297.20026   -699.21341    127198.93   -36879.693    3692.4209   -40572.114    504.17905   0.98046429 
   43700     295.9811    -376.5554    127207.81   -36872.481     3677.274   -40549.755     505.0152   0.98039579 
   43800     296.4199   -312.71326    126925.48   -36822.187    3682.7257   -40504.912     505.1712    0.9825766 
   43900    298.39418   -142.74737    127025.54   -36909.941    3707.2541   -40617.195    506.81486   0.98180256 
   44000    295.85912   -740.62883    126985.04   -36925.078    3675.7585   -40600.836    508.08002   0.98211574 
   44100    294.67061   -819.89266    126817.45   -37009.144    3660.9924   -40670.136    509.28278   0.98341361 
   44200     297.0074   -469.59584    126733.38   -37034.189    3690.0248   -40724.214    509.80156   0.98406593 
   44300    296.03049   -26.281009     126964.6   -37046.297    3677.8876   -40724.184    511.92722    0.9822738 
   44400    295.32157   -646.58386    127151.86    -37025.01      3669.08    -40694.09    513.24541   0.98082721 
   44500    296.70141   -399.93417    127052.95   -37042.233    3686.2232   -40728.456    514.12393   0.98159078 
   44600    289.65309   -420.65677    127077.01   -37139.733    3598.6547   -40738.387    515.26083   0.98140491 
   44700    295.51172   -714.69022    126886.23    -37153.77    3671.4424   -40825.212    515.66773   0.98288055 
   44800    293.00935   -477.66927    126687.37   -37094.564    3640.3529   -40734.917    516.29154   0.98442337 
   44900    295.03935   -654.33236    126722.33     -37041.1    3665.5737   -40706.674    516.99008   0.98415173 
   45000    293.86945   -414.98674    126561.92   -37010.484    3651.0388   -40661.523    517.54203   0.98539907 
   45100    294.83948   -597.26057     126369.1   -36938.499    3663.0905    -40601.59    517.63951   0.98690271 
   45200    292.97314   -397.28602    126286.64    -37008.58    3639.9031   -40648.483    518.58066   0.98754706 
   45300    295.51299   -669.37726    126185.31   -37022.891    3671.4582    -40694.35    519.28503   0.98834011 
   45400    297.08156   -623.73171    126395.79   -37028.691    3690.9462   -40719.637    521.23235   0.98669425 
   45500    292.53042   -384.97215    126260.32   -37021.993    3634.4027   -40656.396    522.45191   0.98775296 
   45600    293.15732   -558.20064    126429.43   -37058.852    3642.1913   -40701.044     524.4964   0.98643172 
   45700    300.30628   -515.73854    126474.23   -36968.802    3731.0101   -40699.812    525.86447    0.9860823 
   45800    299.41822   -308.03225    126893.86   -36951.005    3719.9768   -40670.982    529.40619   0.98282144 
   45900    300.65268   -348.61812    127517.48   -36867.646    3735.3138    -40602.96    533.04572   0.97801495 
   46000    300.80206    -754.5867    127351.25   -36851.005    3737.1698   -40588.175     535.2062   0.97929154 
   46100    299.35379   -307.87554    127004.77   -36837.421    3719.1764   -40556.597     534.1148   0.98196317 
   46200    301.37461   -394.20897    126928.75   -36809.713    3744.2831   -40553.996     535.2425   0.98255125 
   46300    299.99593   -232.84399    127197.59   -36838.833    3727.1543   -40565.987    537.41439    0.9804746 
   46400    295.76402   -390.21786    127317.41    -36888.23     3674.577   -40562.807    539.12077   0.97955184 
   46500    299.50522   -440.97104    127354.65   -36911.091    3721.0578   -40632.148    541.45766   0.97926539 
   46600     296.5014   -372.57289    127352.34   -36870.347    3683.7383   -40554.085    544.06739   0.97928314 
   46700    299.97542   -609.23942    127265.36   -36978.387    3726.8995   -40705.286    545.57102   0.97995247 
   46800    289.09597   -736.70617    127545.36   -37049.559    3591.7331   -40641.292    547.22764   0.97780118 
   46900    295.45768   -454.13826    127599.43   -36970.173     3670.771   -40640.944    548.13305   0.97738685 
   47000    299.19076   -839.27463    127843.43   -36963.408    3717.1509   -40680.559    551.26784    0.9755214 
   47100    296.84342   -336.57935    127567.54   -36959.099    3687.9875   -40647.087    551.56849   0.97763117 
   47200    292.77698   -635.35142    127603.21    -37040.11     3637.466   -40677.576    553.44899   0.97735786 
   47300    287.69455   -491.13194    127422.18   -37017.127    3574.3217   -40591.449    554.74344   0.97874646 
   47400    298.48421   -512.22607    127557.45   -36987.573    3708.3727   -40695.946    556.72787    0.9777085 
   47500    300.04313   -325.16979    127299.43   -36898.532    3727.7408   -40626.273    557.55197   0.97969016 
   47600    299.92292   -696.68168    126731.22   -36869.777    3726.2473   -40596.024    557.86409   0.98408273 
   47700    298.23056   -238.94357    126792.97   -36916.643    3705.2213   -40621.864     559.3995   0.98360344 
   47800    299.73191   -475.82881    126844.47   -36945.904    3723.8742   -40669.779    560.44189   0.98320413 
   47900    291.50191   -486.12948     126761.9   -37034.096    3621.6244    -40655.72    561.69475   0.98384453 
   48000    294.55042    -521.5246    126692.34   -37101.684    3659.4992   -40761.183    562.98786   0.98438474 
   48100    292.96231   -540.63364    127087.88   -37066.881    3639.7685    -40706.65    565.42287   0.98132102 
   48200    294.40114   -369.30389    127018.66   -37108.009    3657.6445   -40765.654    565.22506   0.98185575 
   48300    291.71096   -505.49315     126512.5   -37065.393    3624.2217   -40689.615    564.24325   0.98578406 
   48400    293.92758   -505.45692       126473   -36979.581    3651.7611   -40631.342    565.51465   0.98609194 
   48500    290.93047   -445.52764     126497.7   -37001.469    3614.5249   -40615.994    567.89936   0.98589941 
   48600    291.22109   -622.05434    126384.24   -36982.799    3618.1355   -40600.934    568.96581   0.98678443 
   48700    294.80187   -267.78679    126524.85   -36980.903    3662.6233   -40643.526    569.96859    0.9856878 
   48800    294.98698   -422.16771    126695.59   -36951.037     3664.923    -40615.96     571.9337   0.98435946 
   48900    301.63119   -434.10077    126888.09   -36979.263    3747.4708   -40726.734    573.49549   0.98286608 
   49000    291.31332   -541.66651    126927.26   -37069.162    3619.2814   -40688.443    574.60072   0.98256282 
   49100    288.29284   -577.22069    126649.37    -37070.93    3581.7549   -40652.685    575.01186    0.9847187 
   49200    290.42627   -374.33204    126734.64   -37123.234    3608.2607   -40731.495    575.62368   0.98405618 
   49300    293.18034   -204.14569    126552.92   -37046.942    3642.4773   -40689.419    575.56623   0.98546922 
   49400    290.11357    -413.8831    126928.68   -36995.518    3604.3757   -40599.893    578.04555   0.98255183 
   49500    291.25224   -524.23019    126596.34   -37002.932    3618.5225   -40621.455    577.42304   0.98513117 
   49600    298.91516   -471.62399    126704.22   -36916.631    3713.7268   -40630.357    578.99772   0.98429239 
   49700    295.63353   -347.66247    126912.64   -36994.695    3672.9557   -40667.651    581.50071   0.98267596 
   49800    295.33976   -537.48058    126665.94   -37016.494     3669.306     -40685.8    581.15989   0.98458988 
   49900    297.97043   -724.18398    126932.07   -36915.231    3701.9895   -40617.221    582.32365   0.98252553 
   50000     302.4399   -534.47452    126931.03   -36953.895    3757.5183   -40711.414    583.22949   0.98253359 
   50100    291.23552   -286.94536    126571.98   -36989.189    3618.3148   -40607.503    583.04636   0.98532079 
   50200    294.57642   -331.97458    126772.38   -37033.959    3659.8223   -40693.782    584.67769   0.98376322 
   50300     290.2802   -301.80726    127073.63   -36999.862    3606.4459   -40606.308     586.6786   0.98143106 
   50400     293.9098   -555.21582       127134   -37007.594    3651.5402   -40659.134    587.77083   0.98096501 
   50500    288.69421   -335.91938    127015.81   -37098.135    3586.7415   -40684.876    588.92409   0.98187783 
   50600    295.49465   -545.89335    127118.79   -37067.528    3671.2303   -40738.758     589.8342   0.98108235 
   50700    288.71313   -517.51775    127094.66   -37120.571    3586.9766   -40707.548    591.02901   0.98126865 
   50800    295.56998   -436.88282    127189.92   -37118.469    3672.1663   -40790.635    593.08493    0.9805337 
   50900    294.51439   -564.73257       126873    -37037.07    3659.0515   -40696.122    593.82501     0.982983 
   51000    289.60995   -375.93615    126683.18   -37096.544    3598.1187   -40694.663    594.70205    0.9844559 
   51100    297.85158   -359.50661    126585.77   -37086.021    3700.5129   -40786.534     595.7869   0.98521342 
   51200    294.56113    -432.4271    126501.14   -37055.178    3659.6323    -40714.81    597.14159   0.98587253 
   51300    290.47471   -520.62138     126671.6   -37167.063    3608.8626   -40775.926    598.33801   0.98454587 
   51400    293.64077   -388.64326    126610.07   -37165.402    3648.1977     -40813.6    599.03477   0.98502439 
   51500    289.63643   -514.15318    126635.05   -37195.895    3598.4477   -40794.343    600.06121    0.9848301 
   51600    295.41889   -512.95839    126827.01   -37088.119    3670.2892   -40758.408    601.44605   0.98333945 
   51700    288.87886   -346.99522    127016.88   -37084.895    3589.0357   -40673.931    604.07977    0.9818695 
   51800    292.49221   -465.43365    127140.24   -37146.036     3633.928   -40779.964    604.98215   0.98091683 
   51900    287.66577   -542.21575    127231.81    -37191.85    3573.9642   -40765.814    606.65667   0.98021086 
   52000    290.15118   -740.55094    127479.83   -37190.523     3604.843   -40795.366    609.38592   0.97830379 
   52100    294.03415   -506.54781    127325.11   -37129.728    3653.0851   -40782.813    610.79863   0.97949261 
   52200    289.72455   -533.99908    127210.33   -37176.354    3599.5425   -40775.896     611.5521   0.98037635 
   52300    291.57992   -510.35736    127103.68     -37165.7    3622.5937   -40788.294    612.67409   0.98119903 
   52400    296.98289    -680.4738    127026.25   -37079.253    3689.7202   -40768.973     612.8019   0.98179713 
   52500    299.02431   -470.14551    127166.79   -37050.449     3715.083   -40765.532    615.14638   0.98071206 
   52600    292.36415   -651.06712    126828.26   -37087.558    3632.3369   -40719.895     614.4361   0.98332979 
   52700    291.58223   -712.15173    126734.28   -37088.508    3622.6224    -40711.13    616.37714   0.98405896 
   52800    296.73795   -817.38725    126434.59   -37072.768    3686.6771   -40759.445    616.72658   0.98639149 
   52900    295.13636    -507.9935    126432.29   -37049.728    3666.7789   -40716.507    618.21133   0.98640947 
   53000    295.14938   -269.57608    126645.14   -37052.247    3666.9407   -40719.188    620.83305   0.98475157 
   53100    291.80262   -563.46106     126637.7     -37036.8    3625.3605    -40662.16    621.29619   0.98480944 
   53200    294.22229   -517.92005    126639.36   -37041.233    3655.4225   -40696.656    622.86894   0.98479653 
   53300     290.6462   -590.20417     126866.3   -37018.716    3610.9932    -40629.71    625.83073   0.98303493 
   53400    290.08566    -662.2409    126467.48   -37128.046    3604.0289   -40732.075    625.70571   0.98613492 
   53500    290.17716   -731.22559    126761.97   -37208.064    3605.1657    -40813.23    627.61197   0.98384397 
   53600    286.72131   -673.56253    126509.91   -37186.727    3562.2303   -40748.957    628.21881   0.98580426 
   53700    291.71603   -303.05502    126407.52   -37211.476    3624.2847   -40835.761    629.12558   0.98660269 
   53800    296.73796   -426.63856    127085.19   -37046.324    3686.6773   -40733.001     632.6406   0.98134179 
   53900    286.70979   -476.55755     127236.5   -37139.397    3562.0871   -40701.484    634.20986   0.98017476 
   54000    291.18122   -580.23593    126897.81     -37122.2    3617.6402    -40739.84    634.15465   0.98279079 
   54100    294.50773   -646.58517    126639.47   -37127.645    3658.9688   -40786.614    634.32024   0.98479569 
   54200    290.90992   -708.50201       126587   -37122.633    3614.2696   -40736.902    635.96155   0.98520388 
   54300    297.82782   -759.65285     126139.3   -37051.527    3700.2177   -40751.745    635.94475   0.98870059 
   54400    294.89863   -287.37207    126102.73   -37111.299    3663.8254   -40775.124    636.51348   0.98898736 
   54500    289.14925   -327.14263    126168.06   -37110.101     3592.395   -40702.496    638.29023   0.98847522 
   54600     296.8261   -322.80897    126490.71   -37008.191    3687.7723   -40695.964    641.02505   0.98595385 
   54700    291.18052   -243.73449    126815.38   -36979.502    3617.6316   -40597.134    643.18839   0.98342961 
   54800    294.60958   -566.63649    127111.95   -37075.701    3660.2342   -40735.935     645.9562   0.98113516 
   54900    292.12398   -535.98501     126789.1   -37169.004    3629.3531   -40798.357    645.95565   0.98363351 
   55000    288.08604   -241.90878    126709.04   -37194.811    3579.1857   -40773.997     647.0493     0.984255 
   55100    290.97233   -281.13443    126933.07   -37180.229     3615.045   -40795.274    649.43606   0.98251784 
   55200    288.18492   -312.70731    126989.56   -37194.995    3580.4141   -40775.409    650.64338   0.98208078 
   55300    293.10781   -398.82527    126906.17   -37114.732    3641.5762   -40756.308    650.47975   0.98272608 
   55400     291.9381   -480.79273    126776.79    -37082.21    3627.0438   -40709.254    651.06089   0.98372898 
   55500    299.68474   -565.55518    126802.33   -37000.028    3723.2881   -40723.316    652.88598   0.98353085 
   55600    295.42324   -862.68212    126839.76   -37013.139    3670.3431   -40683.482    653.55099   0.98324065 
   55700    297.27538   -633.66495    126894.58   -37026.736    3693.3541   -40720.091    654.43917   0.98281586 
   55800    293.46414   -468.73293    126826.01   -37001.348    3646.0032   -40647.351    655.19226    0.9833472 
   55900    291.18309   -733.88315    126844.39   -36990.377    3617.6635   -40608.041    656.11529   0.98320472 
   56000     306.5043   -573.96441    126767.96   -36969.485    3808.0145     -40777.5    657.64006   0.98379753 
   56100    302.03637   -822.97111    126859.87   -36904.068    3752.5048   -40656.573    659.63083   0.98308477 
   56200    296.29138   -572.00599    126870.02   -36938.467    3681.1289   -40619.596    661.15629   0.98300609 
   56300    297.48837   -559.24399    126829.21   -36958.929    3696.0003   -40654.929    662.60733    0.9833224 
   56400     294.8805   -476.51474    126858.74   -36969.824    3663.6002   -40633.424     664.5273   0.98309349 
   56500     293.1901   -423.12452    126676.04   -37059.339    3642.5986   -40701.937    665.50115   0.98451139 
   56600    286.50178   -684.44417    126901.82   -37101.766    3559.5027   -40661.269    666.76757   0.98275976 
   56700    290.01079   -516.43626    126882.07   -37167.421    3603.0988    -40770.52    668.37231   0.98291278 
   56800    292.98653   -613.96182    127066.86    -37089.85    3640.0694   -40729.919     670.0949   0.98148333 
   56900    298.36899   -356.33718    127096.71   -37022.414    3706.9411   -40729.355    672.07026   0.98125277 
   57000    297.54528   -437.63797    126837.24   -37013.513    3696.7074    -40710.22    672.24929   0.98326016 
   57100    293.65229   -413.85301    126856.15   -37082.979    3648.3408    -40731.32    673.52704   0.98311357 
   57200    289.67623   -431.49664    126996.32   -37150.028    3598.9422    -40748.97    675.75152   0.98202845 
   57300    291.99264    -406.8796    127290.94   -37184.098    3627.7214   -40811.819     677.6731   0.97975556 
   57400    294.37581   -466.37117    127402.37   -37171.881    3657.3299   -40829.211    678.29287   0.97889862 
   57500    288.12976   -550.41725    127197.75   -37229.811    3579.7288   -40809.539    677.83856   0.98047338 
   57600    288.14344   -303.53029    127234.24   -37211.766    3579.8988   -40791.665    679.12726   0.98019214 
   57700    287.41504   -519.72373    127111.44   -37204.853    3570.8492   -40775.703    680.31652   0.98113906 
   57800    282.55066   -484.40814     126592.6   -37328.167    3510.4139   -40838.581    680.36448   0.98516028 
   57900    289.47519   -454.26239     126700.2   -37227.177    3596.4445   -40823.621    682.24789   0.98432364 
   58000    291.17604   -690.27537     126837.9    -37224.66    3617.5758   -40842.236    683.38867   0.98325503 
   58100    294.60175   -379.26979    127163.78   -37141.694     3660.137   -40801.831    686.01342   0.98073524 
   58200    292.02097   -78.576799    127316.31   -37072.004    3628.0732   -40700.078    687.99643   0.97956031 
   58300    294.12262   -306.15233    127516.74   -36946.087    3654.1842   -40600.271    689.80972    0.9780206 
   58400    291.67699   -437.88468    127336.88   -36933.346    3623.7997   -40557.146    690.86423    0.9794021 
   58500     298.0604   -636.61841    127203.76   -36960.387    3703.1072   -40663.495    690.72377   0.98042703 
   58600    300.17062   -492.04027    127017.14   -36873.427    3729.3246   -40602.751    691.30473   0.98186748 
   58700    299.54371    -674.0619    127255.42   -36910.734     3721.536    -40632.27    692.92405   0.98002905 
   58800    298.34627   -579.72438       127151   -36973.708     3706.659   -40680.367    693.63815   0.98083381 
   58900    291.24657   -606.22066    127357.45   -36989.579    3618.4521   -40608.031    695.53357   0.97924385 
   59000     293.2547   -779.77282    126854.89   -36988.247    3643.4012   -40631.648     695.3747   0.98312336 
   59100    293.62528    -488.4343    126743.97   -37035.842    3648.0053   -40683.847     696.5884   0.98398372 
   59200    296.74553   -505.00782    126827.83   -37047.477    3686.7713   -40734.248    698.42945    0.9833331 
   59300     295.4657   -270.68259    126895.31   -37040.822    3670.8706   -40711.692    698.96686   0.98281022 
   59400    293.51049   -626.56598    126851.44   -37107.983    3646.5791   -40754.562    700.91182   0.98315008 
   59500    295.99077   -569.69115    126614.27   -37096.652    3677.3941   -40774.046    700.72146   0.98499171 
   59600    293.15804   -536.44134    126600.43   -37088.856    3642.2003   -40731.057    700.46457   0.98509936 
   59700    293.88079   -171.01363    126614.75   -37117.148    3651.1797   -40768.328     702.6262   0.98498797 
   59800    290.10065   -508.24889    126522.25   -37099.842    3604.2152   -40704.057    703.04038   0.98570808 
   59900    296.90616   -422.17789    126905.28   -37098.062    3688.7669   -40786.829    706.15583   0.98273298 
   60000    289.38971   -368.22843    127075.72   -37125.611    3595.3824   -40720.993    707.65798   0.98141488 
   60100    288.71042   -793.37871    127068.98   -37084.774    3586.9429   -40671.717    708.26272   0.98146698 
   60200    300.28201   -623.02811    126823.56   -37050.387    3730.7086   -40781.096    708.43501   0.98336621 
   60300    296.38214   -279.36288    127101.66   -37009.385    3682.2565   -40691.642    710.76878   0.98121459 
   60400     296.6514   -427.39711    127258.03   -36967.866    3685.6018   -40653.468    712.88126   0.98000889 
   60500    293.82774   -521.67066    127056.94   -36984.948    3650.5206   -40635.469    712.44892   0.98155995 
   60600    298.83146    -428.1439    127301.05   -37049.921     3712.687   -40762.608    714.43787   0.97967774 
   60700    291.54772   -339.23547    127225.81   -37074.135    3622.1937   -40696.328    715.46899   0.98025706 
   60800    297.44137   -564.96638    127071.33   -37060.426    3695.4164   -40755.842    715.56451   0.98144876 
   60900    295.38278   -816.21441    127097.01   -37001.354    3669.8405   -40671.195    718.09424   0.98125046 
   61000    290.13434   -606.48345    126646.86   -37085.421    3604.6338   -40690.054    717.61839   0.98473824 
   61100    288.80089   -571.32843    126652.04   -37130.119    3588.0669   -40718.186    718.64259   0.98469796 
   61200    292.78396   -430.73505    126847.27   -37155.704    3637.5526   -40793.257     719.9418    0.9831824 
   61300    296.65891   -482.56608    127330.49   -37100.958    3685.6952   -40786.653    722.79533   0.97945124 
   61400    291.31704   -634.25446    127177.28   -37117.814    3619.3276   -40737.142     723.2504   0.98063118 
   61500    294.36491   -705.38417    126975.15   -37149.654    3657.1945   -40806.848    723.67066   0.98219221 
   61600    289.31216   -714.38388    127203.58   -37072.874    3594.4189   -40667.292    725.96504   0.98042844 
   61700     287.9812   -730.56054    126776.74   -37218.944    3577.8831   -40796.827    725.82288   0.98372936 
   61800    288.34878   -451.82763    126702.93   -37252.408      3582.45   -40834.858    726.46412   0.98430243 
   61900    286.52249   -448.13764    126925.53   -37178.095    3559.7601   -40737.855    729.47544   0.98257619 
   62000    288.68208   -182.33225    126797.41   -37112.087    3586.5908   -40698.678    729.92395   0.98356898 
   62100    293.17721   -390.82781    127034.48   -37132.135    3642.4385   -40774.574    732.03084   0.98173348 
   62200     292.7304   -574.52855       127078   -37155.399    3636.8873   -40792.286    733.93177   0.98139727 
   62300    288.73786   -362.89543    126909.87   -37139.674    3587.2839   -40726.958     735.0991   0.98269745 
   62400     296.9804   -613.42453    126879.45   -37078.896    3689.6893   -40768.585    736.87659   0.98293301 
   62500    294.16713   -576.25168    126692.87   -37058.722    3654.7372   -40713.459    738.67112   0.98438064 
   62600    294.63476    -397.8679    126455.69    -37076.23     3660.547   -40736.777    739.51345   0.98622687 
   62700    293.84609   -351.20414    126530.31   -37081.444    3650.7486   -40732.193     740.9736   0.98564529 
   62800    294.08105   -311.57989    126812.51    -37058.22    3653.6677   -40711.887    742.62302   0.98345187 
   62900    297.81301   -506.02246    126914.49   -36993.717    3700.0337   -40693.751    744.46337   0.98266169 
   63000    292.28294    -606.5063    126833.35    -36980.51     3631.328   -40611.838    745.84862   0.98329027 
   63100    295.99715   -424.20519    126544.78   -36921.761    3677.4734   -40599.234    746.31451   0.98553257 
   63200    297.51215   -633.89691       126349   -36976.678    3696.2958   -40672.974    747.80943   0.98705968 
   63300    295.84938   -459.61353       126311   -37060.981    3675.6375   -40736.618    749.85069   0.98735663 
   63400     299.5227   -379.72226    126383.01   -36887.794    3721.2749   -40609.069    751.96769    0.9867941 
   63500    292.51871   -526.30826    126272.76   -37018.511    3634.2572   -40652.768    753.01984   0.98765561 
   63600    289.42587    -437.2239    126271.16     -37028.7    3595.8318   -40624.532     754.1497   0.98766817 
   63700    299.17312    -476.5339    126707.05   -36966.323    3716.9317   -40683.255    756.77238   0.98427044 
   63800    289.57719   -275.65869    127164.96   -37132.046    3597.7118   -40729.758    759.54696   0.98072618 
   63900    294.75871   -491.85591    126953.71   -37139.086     3662.087   -40801.173    759.62465   0.98235809 
   64000    291.90653    -567.1041    126727.43   -37143.991    3626.6514   -40770.643    760.85876   0.98411216 
   64100    293.19034   -639.46258    126864.52   -37046.123    3642.6015   -40688.725    762.20228   0.98304869 
   64200    293.87125   -637.24124    127065.04   -37031.523    3651.0612   -40682.584    764.20942   0.98149739 
   64300    294.26565   -611.00981    127083.97   -36997.233    3655.9612   -40653.195    766.54759   0.98135114 
   64400    301.15692   -223.79564    127404.23     -36918.9    3741.5785   -40660.478    769.93573   0.97888436 
   64500    298.64779   -624.46661    127153.96   -36952.825     3710.405    -40663.23    770.92766   0.98081098 
   64600    293.25234   -494.04577    126918.11   -36989.208    3643.3719   -40632.579    770.71484   0.98263364 
   64700    290.22659   -728.44823     126936.4   -37044.561    3605.7799   -40650.341    772.44554   0.98249206 
   64800    294.12323   -709.32246    126643.74   -37099.907    3654.1918   -40754.099    772.38038   0.98476246 
   64900     291.1995   -763.02507    126672.22    -37023.81    3617.8673   -40641.678    773.75782   0.98454108 
   65000    302.18687   -502.62297    126509.74   -36989.492    3754.3746   -40743.866    773.36085   0.98580556 
   65100    294.20195   -369.20539    126560.86   -37021.398    3655.1699   -40676.568    773.96119   0.98540739 
   65200    294.53097   -406.67776    126483.74   -37051.372    3659.2576    -40710.63    773.91557    0.9860082 
   65300    294.92162   -389.67213    126988.87   -37021.186     3664.111   -40685.297    777.09863   0.98208609 
   65400    296.22965   -544.36376    127129.07   -36960.107     3680.362   -40640.469     777.6487   0.98100301 
   65500    293.13821   -608.84891    127137.19   -37033.526    3641.9539   -40675.479    779.59254   0.98094037 
   65600    294.28348   -525.78614    127023.14    -37029.51    3656.1828   -40685.693    779.71486   0.98182116 
   65700    294.33438   -455.32052    126624.25   -37170.735    3656.8151    -40827.55    780.69453   0.98491407 
   65800    291.51436   -536.62134    126522.41    -37156.81    3621.7791   -40778.589    781.41938   0.98570682 
   65900     292.9202    -469.7384     126348.9   -37165.516    3639.2453   -40804.762    782.28331   0.98706044 
   66000    289.47066   -391.88192    126763.64   -37010.803    3596.3882   -40607.191    783.76419   0.98383106 
   66100     303.8662   -455.85146    127052.45   -36896.681    3775.2386    -40671.92    786.05766   0.98159462 
   66200    299.89183   -559.77297    126836.56    -36908.91     3725.861   -40634.771    786.58051    0.9832654 
   66300    293.92551   -594.72288    126648.29    -36924.54    3651.7353   -40576.276    786.51764   0.98472706 
   66400    294.58001    -576.8481    126839.56   -36998.351    3659.8668   -40658.217    788.90171   0.98324214 
   66500    291.68742   -565.48566    126614.52   -36976.933    3623.9292   -40600.862    788.34709    0.9849897 
   66600    293.77992   -479.99889    126699.28   -37042.076    3649.9265   -40692.003    788.98204   0.98433082 
   66700    291.95734   -642.09442    126784.07   -37096.965    3627.2827   -40724.248    790.96594   0.98367251 
   66800    296.03588   -511.43697    126978.21   -36990.932    3677.9546   -40668.887    793.42179   0.98216852 
[...]
   84700    295.26625   -567.71167    126792.83   -37193.743    3668.3927   -40862.136    1005.5085   0.98360452 
   84800    289.69003   -366.23311    126956.18   -37167.709    3599.1136   -40766.822    1008.4361   0.98233896 
   84900    288.58403   -455.91332    127093.45   -37161.464    3585.3727   -40746.837     1010.694   0.98127801 
   85000    291.00605   -405.57638    127049.47   -37086.402    3615.4639   -40701.866    1012.4715   0.98161765 
   85100    293.30679   -504.85909    127036.37    -37049.18    3644.0483   -40693.228    1012.7022   0.98171889 
   85200    289.84906   -481.47211    127036.19   -37056.144    3601.0895   -40657.234    1014.4916   0.98172026 
   85300    290.95803    -160.4428    126978.09   -37064.645    3614.8673   -40679.512    1017.0359    0.9821695 
   85400    290.58215   -797.89712    127247.83   -37058.715    3610.1973   -40668.913    1019.6271   0.98008745 
   85500    296.51109   -507.28102    127212.64   -37012.034    3683.8586   -40695.893    1021.5114   0.98035856 
   85600    295.91213   -506.85766     127153.3   -36969.631    3676.4171   -40646.048    1022.1178   0.98081612 
   85700    290.24993   -388.92229    127230.92   -37083.153    3606.0698   -40689.223    1023.6872   0.98021771 
   85800    292.72056   -394.33366    127309.45   -37065.126     3636.765   -40701.891    1024.8038    0.9796131 
   85900    302.25231   -634.34104    127447.19   -36938.801    3755.1876   -40693.988    1026.5489   0.97855438 
   86000    293.17676   -661.57931    127366.12   -37004.106    3642.4329   -40646.539    1027.6057   0.97917725 
   86100    291.10291   -469.11347    127455.06   -36995.865    3616.6673   -40612.533    1029.1763    0.9784939 
   86200    291.40217    -767.8234    127321.51   -36958.225    3620.3854    -40578.61    1029.1226   0.97952031 
   86300    293.42219    -378.3738    127187.55   -37034.589    3645.4821   -40680.072    1028.1474   0.98055198 
   86400    298.33375   -624.90586    127142.52   -37066.762    3706.5034   -40773.265    1030.9984   0.98089927 
   86500    290.13552   -454.79516    127275.13   -37047.297    3604.6484   -40651.945    1034.7651   0.97987725 
   86600    293.17708    -590.4134    127434.25     -36962.6    3642.4369   -40605.037    1038.1216    0.9786537 
   86700    294.89009   -550.35488    127369.83   -36905.917    3663.7193   -40569.636    1040.1828   0.97914871 
   86800    298.52778   -592.84924    127023.74   -37003.426     3708.914   -40712.339    1038.2874   0.98181646 
   86900     295.1606   -422.28846    126928.69   -37019.213    3667.0801   -40686.293    1039.0253   0.98255169 
   87000    293.36678   -580.25927    126749.91   -37034.375    3644.7937   -40679.168    1040.1686   0.98393762 
   87100     296.6303   -501.16141    127000.37   -37041.417    3685.3396   -40726.757    1042.7822   0.98199715 
   87200     291.0023   -692.28142    127047.48   -37066.457    3615.4173   -40681.874    1044.7182     0.981633 
   87300    291.62006    -496.5439    127127.36    -37065.29    3623.0923   -40688.382    1046.9245   0.98101622 
   87400    293.70207   -759.82355    127179.74   -37056.334    3648.9593   -40705.293    1048.8961    0.9806122 
   87500    294.23827   -590.76331    126975.63   -37037.966    3655.6211   -40693.587    1048.6418   0.98218849 
   87600    297.81583   -527.16622     127106.9   -37043.684    3700.0687   -40743.753    1051.3974   0.98117414 
   87700     292.7664   -660.37634    127150.13   -37118.817    3637.3345   -40756.152     1052.586   0.98084051 
   87800    295.36905   -482.01749    127569.79    -37023.42    3669.6699    -40693.09     1055.598   0.97761394 
   87900    295.26299   -690.62007    127421.68   -37089.339    3668.3522   -40757.691    1056.1922   0.97875029 
   88000    287.64181   -447.30531    127296.55   -37128.592    3573.6666   -40702.259    1057.0341   0.97971236 
   88100     291.2855   -428.58587    127251.09   -37037.019    3618.9358   -40655.955    1057.7485   0.98006233 
   88200    296.81024   -526.43586     127150.9   -37013.128    3687.5753   -40700.703    1057.1379   0.98083464 
   88300    294.97214   -452.43831    126774.91   -37028.901    3664.7387    -40693.64    1056.0882   0.98374355 
   88400    288.94913   -662.54599    126403.48   -37183.955    3589.9087   -40773.864    1055.7666   0.98663425 
   88500    290.82578   -509.29067     126424.7   -37143.071    3613.2242   -40756.295    1056.2682   0.98646867 
   88600    292.99351   -550.89295    126512.45    -37026.24    3640.1561   -40666.396    1058.3599   0.98578442 
   88700    299.40188   -511.81748    127048.52   -37010.807    3719.7739   -40730.581    1062.4315   0.98162504 
   88800    297.88185   -542.93002    126935.97   -36942.787     3700.889   -40643.676    1064.0732   0.98249539 
   88900    293.76725   -382.17277    126805.41   -36955.037     3649.769   -40604.806    1063.3132   0.98350696 
   89000    297.80304   -500.07886    127128.92   -36875.328    3699.9098   -40575.238    1066.9897   0.98100422 
   89100    296.13864   -574.48523     127081.3   -36978.401    3679.2313   -40657.632    1067.7553   0.98137183 
   89200    289.66968   -471.40156    126972.72   -37086.858    3598.8608   -40685.719    1069.1849   0.98221101 
   89300    287.84447   -744.52862    126767.24   -37156.961    3576.1844   -40733.145    1069.7737   0.98380309 
   89400     292.2296   -739.39484    126597.57    -37162.99    3630.6653   -40793.656    1070.1075   0.98512164 
   89500    291.03142   -307.89911    126827.72   -37234.024    3615.7791   -40849.803    1072.0826   0.98333396 
   89600    283.70979   -551.48888    126869.78   -37351.794    3524.8151   -40876.609    1073.6777     0.983008 
   89700    286.39266    -442.4163    126643.98   -37277.261    3558.1471   -40835.408    1073.9597    0.9847606 
   89800    291.79424   -210.39457    126816.14   -37177.146    3625.2564   -40802.402    1076.6992   0.98342374 
   89900    282.29146      -540.23    126741.92   -37265.745    3507.1937   -40772.938    1077.2126   0.98399965 
   90000    289.59112   -648.16205    126727.59   -37169.874    3597.8848   -40767.759    1077.7273   0.98411088 
   90100    292.64992   -445.25258       126557   -37145.004    3635.8874   -40780.891    1077.5757   0.98543741 
   90200    284.99958   -641.47758    126898.99   -37213.407    3540.8395   -40754.247    1081.9797   0.98278169 
   90300      289.522   -632.63736    126573.49    -37274.77     3597.026   -40871.796    1082.2388   0.98530902 
   90400    290.39362   -513.74886    126836.71   -37216.388    3607.8551   -40824.243    1084.7934   0.98326423 
   90500    291.74864   -449.50963    126954.54   -37130.608    3624.6898   -40755.297     1087.397   0.98235164 
   90600    303.52223   -262.52375    126855.86   -37052.783    3770.9651   -40823.748     1088.301   0.98311581 
   90700    299.26273   -486.14745    126831.37   -37032.616     3718.045   -40750.661    1088.8869   0.98330567 
   90800    289.31941   -594.38828    127112.64   -37088.804    3594.5091   -40683.313    1090.7737   0.98112982 
   90900    290.06717   -745.01385    126896.97   -37110.728    3603.7993   -40714.527    1090.0033   0.98279735 
   91000    290.81338   -715.46461    126893.61   -37144.905    3613.0701   -40757.975    1092.2612   0.98282338 
   91100    289.70486   -363.86199    126876.31   -37114.543    3599.2979   -40713.841    1092.6417   0.98295737 
   91200    293.38133   -678.44711    126971.19   -37076.903    3644.9745   -40721.878    1094.2347   0.98222286 
   91300    292.57623   -392.86825    126670.43   -37013.931    3634.9719   -40648.903    1093.9119   0.98455502 
   91400    297.49744   -473.48022    126840.88   -36973.323     3696.113   -40669.436    1095.8117    0.9832319 
   91500    295.86589   -476.89806    126929.88   -36968.232    3675.8427   -40644.074     1096.039    0.9825425 
   91600    302.63475   -702.04468     126803.4   -37030.263     3759.939   -40790.202    1096.8329   0.98352258 
   91700    285.85708   -951.14571    126615.93   -37109.611    3551.4931   -40661.104    1097.4789   0.98497875 
   91800    290.80803   -502.63308    126380.91   -37113.453    3613.0037   -40726.456    1096.2481   0.98681045 
   91900    297.76841    -413.4986    126345.36    -37042.63    3699.4796    -40742.11    1097.0636   0.98708811 
   92000     292.9425   -424.37887    126429.12   -37091.153    3639.5224   -40730.675    1100.3665   0.98643414 
   92100    288.22948   -518.64885    126737.65   -37135.984    3580.9678   -40716.951    1103.0248   0.98403277 
   92200    291.11556    -282.4642    126773.31   -37075.811    3616.8245   -40692.635     1104.142   0.98375601 
   92300    297.35264   -276.84363    126778.08   -36921.446     3694.314    -40615.76     1106.071   0.98371897 
   92400    299.27714   -663.41405    127019.79   -36890.096    3718.2241    -40608.32    1108.9236   0.98184704 
   92500    298.26818   -525.51745    126615.06   -36952.984    3705.6887   -40658.673    1108.1277   0.98498551 
   92600    295.01374    -547.4001     126565.4   -36944.819    3665.2555   -40610.074    1108.6952   0.98537203 
   92700    297.86248   -603.68092     126537.5   -36926.429    3700.6483   -40627.077    1110.6696   0.98558931 
   92800    298.11592   -526.13839    126469.41   -36983.868     3703.797   -40687.665    1110.7421   0.98611992 
   92900    294.00799   -500.31651    126652.49   -36960.565    3652.7601   -40613.325    1113.7644   0.98469446 
   93000    297.58239   -435.35984    126579.11   -36969.798    3697.1684   -40666.966    1113.7768   0.98526527 
   93100    301.04831   -603.26815     126651.6   -36879.527    3740.2291   -40619.756    1114.9128   0.98470136 
   93200    296.88608   -303.75956    126688.84   -36952.215    3688.5175   -40640.732    1116.8745   0.98441189 
   93300    294.24119   -531.04277    126752.23   -36979.859    3655.6573   -40635.516     1119.167   0.98391963 
   93400    291.70104   -743.90009    126845.03   -37026.116    3624.0985   -40650.214    1121.0209   0.98319979 
   93500    291.53135   -624.44653    126695.39   -37074.176    3621.9902   -40696.167    1120.7794   0.98436103 
   93600    290.74728    -355.5434    126632.36   -37168.541    3612.2489    -40780.79    1122.0009     0.984851 
   93700    292.25039   -655.62783    126521.51   -37132.492    3630.9236   -40763.416    1122.1931   0.98571386 
   93800    290.15725   -801.48972    126317.08     -37099.3    3604.9184   -40704.219    1122.8948   0.98730908 
   93900    293.11299   -535.42559    125846.14   -37095.233    3641.6405   -40736.873    1120.6444   0.99100382 
   94000    289.82694   -188.97961    126138.01    -37136.28    3600.8147   -40737.095    1126.0079   0.98871069 
   94100    293.25666   -519.71561    126475.51   -37095.041    3643.4255   -40738.466     1129.479   0.98607238 
   94200    289.97498   -419.29557    126930.41   -37083.997    3602.6539   -40686.651    1133.9188   0.98253838 
   94300    296.32112   -669.15903    126878.36   -37027.765    3681.4984   -40709.264      1135.23   0.98294146 
   94400    292.66015    -509.6909    126913.72   -36957.076    3636.0144    -40593.09    1136.6924   0.98266762 
   94500       297.61   -855.28356    127189.86   -36918.589    3697.5114     -40616.1     1139.115   0.98053419 
   94600    294.48377   -398.17972     127302.5   -36967.133    3658.6712   -40625.804    1141.8705    0.9796666 
   94700    294.20982   -835.55837    126972.78    -36973.36    3655.2676   -40628.628    1140.5978   0.98221056 
   94800    289.12227   -645.37531    126826.87   -36990.199    3592.0597   -40582.259    1141.3731   0.98334056 
   94900    298.59396   -579.69789    127126.51   -36904.335    3709.7362   -40614.072    1145.2775   0.98102281 
   95000    298.53122   -415.77304    127036.16   -36925.665    3708.9567   -40634.621    1146.9524   0.98172052 
   95100    299.08091   -530.15943    127151.72    -36916.07    3715.7861   -40631.856    1147.8312   0.98082828 
   95200     290.4807   -401.33685    127166.32   -36944.475     3608.937   -40553.412    1149.5921   0.98071565 
   95300    300.27787   -291.51841    127002.02   -36850.989    3730.6572   -40581.646      1149.93   0.98198442 
   95400    296.99339   -463.47815    127113.81   -36899.321    3689.8508   -40589.172    1152.5793   0.98112084 
   95500    297.78507   -629.28274    127044.85   -36894.158    3699.6865   -40593.844    1154.9076   0.98165339 
   95600    298.08055   -324.14183    127107.23   -36972.435    3703.3576   -40675.792    1157.6474   0.98117157 
   95700    297.02323   -631.69653    127338.81   -36984.657    3690.2215   -40674.879    1158.7924   0.97938725 
   95800    292.06376   -402.48739    127552.81   -37032.562    3628.6049   -40661.166    1161.3389   0.97774407 
   95900    297.88471   -570.51991    127382.91   -37054.718    3700.9245   -40755.642    1159.5917   0.97904815 
   96000    292.29441   -402.04625    127002.24   -37166.352    3631.4705   -40797.823     1157.862   0.98198272 
   96100    289.94904   -617.38747    126695.61   -37100.293    3602.3316   -40702.624    1157.6535   0.98435932 
   96200    290.93976   -407.95743    126591.02   -37106.635    3614.6404   -40721.275    1158.5806   0.98517261 
   96300    288.75544   -497.45134    126700.67    -37048.44    3587.5023   -40635.943    1160.7143   0.98431998 
   96400    295.16935   -601.68319    126833.88    -36999.75    3667.1888   -40666.939    1164.0223    0.9832862 
   96500    292.84643   -597.82819    126580.01   -37096.702    3638.3288   -40735.031    1162.8728   0.98525832 
   96600    296.59234   -506.62093    126606.93   -37075.407    3684.8681   -40760.275    1163.1362    0.9850488 
   96700    288.69363   -282.72511    126873.19   -37154.858    3586.7343   -40741.592    1164.9474   0.98298153 
   96800    289.15005   -509.66367    126608.21   -37249.472     3592.405   -40841.877    1164.7159   0.98503884 
   96900    293.50156   -479.96887    126836.04   -37167.262    3646.4682    -40813.73    1169.1034   0.98326948 
   97000    298.34386   -412.30761    126818.36   -37159.954     3706.629   -40866.583    1170.2998   0.98340654 
   97100    292.22628   -483.06385    126638.41   -37144.497    3630.6241   -40775.121     1170.642   0.98480389 
   97200    285.73882   -374.50196    126406.88   -37208.183    3550.0238   -40758.207    1171.7453   0.98660775 
   97300    288.14664   -616.75626    126647.49   -37188.901    3579.9385   -40768.839    1175.3002   0.98473333 
   97400    285.61283   -401.11135    126539.37   -37201.669    3548.4584   -40750.127    1175.4922    0.9855747 
   97500    295.93418   -701.79575    126699.95   -37062.829    3676.6911    -40739.52     1177.338   0.98432562 
   97600    293.19121   -381.34555    126774.11   -37112.721    3642.6123   -40755.333    1179.5659   0.98374975 
   97700    298.12542   -550.28135    127164.49   -37055.623    3703.9151   -40759.539     1182.916   0.98072979 
   97800    297.00616   -392.89541    127077.76   -36967.308    3690.0094   -40657.317    1181.8178   0.98139912 
   97900    297.23663   -654.83757    126957.78   -36949.775    3692.8727   -40642.648    1181.8085   0.98232663 
   98000    295.39644   -559.73473    126843.17   -36997.995    3670.0101   -40668.005    1182.6603   0.98321422 
   98100    293.11634   -575.23933    126818.99   -37098.748    3641.6822    -40740.43    1183.9263   0.98340167 
   98200    292.84351   -344.80186    126865.18   -37052.959    3638.2925   -40691.251    1184.7509   0.98304359 
   98300    290.02443   -675.90202    126683.24   -37059.078    3603.2683   -40662.347    1184.4401   0.98445541 
   98400    292.64854   -502.16563    126496.75    -37065.85    3635.8702    -40701.72    1184.2463   0.98590681 
   98500    289.49118   -478.41604    126585.54   -37094.819    3596.6431   -40691.462    1186.2279   0.98521523 
   98600    293.76369   -621.97364    126467.18   -37189.987    3649.7249   -40839.712    1186.2826   0.98613729 
   98700    289.89648   -359.68659    126583.87   -37214.947    3601.6786   -40816.626     1187.386   0.98522825 
   98800    289.77101   -439.38409    126829.61   -37161.677    3600.1198   -40761.797    1189.0658   0.98331932 
   98900    287.63482   -483.56265    126780.42   -37181.732    3573.5797   -40755.311    1189.3462   0.98370079 
   99000    290.64599   -444.41432    127015.13   -37175.794    3610.9905   -40786.785    1191.5579   0.98188303 
   99100    293.24644   -668.06433    126885.72   -37125.053    3643.2986   -40768.352    1192.9271    0.9828845 
   99200    294.23351   -403.82976    127117.81   -37071.077    3655.5619   -40726.639    1195.8184   0.98108995 
   99300    295.66935   -199.63304    127226.07   -37055.415    3673.4009   -40728.816    1198.1163   0.98025511 
   99400    297.88512   -561.67314    127283.31   -37035.184    3700.9296   -40736.114    1198.7354   0.97981427 
   99500    302.23012   -686.03901    127256.82   -36831.651     3754.912   -40586.563    1199.2907    0.9800182 
   99600    300.09476   -375.89518    127214.83   -36891.367    3728.3822   -40619.749    1199.6187   0.98034173 
   99700    297.14954   -593.12289    127593.96   -36863.969    3691.7907    -40555.76    1202.6863   0.97742873 
   99800    300.94334   -316.20603    127530.86   -36896.421     3738.925   -40635.346    1203.6429   0.97791232 
   99900    295.63968   -485.91604    127522.28   -36981.114    3673.0322   -40654.147    1204.6648   0.97797813 
  100000    298.22567    -583.5364    127389.25   -37006.122    3705.1605   -40711.283    1203.8535   0.97899943 
  100100    293.82257   -495.07393    127307.49   -36936.634    3650.4564   -40587.091    1203.9278   0.97962816 
  100200     300.9644    -573.3303    126943.84   -36926.402    3739.1866   -40665.588    1202.3595   0.98243445 
  100300    305.42562   -443.34739    126885.37   -36894.308    3794.6129   -40688.921    1202.4471   0.98288717 
  100400    297.95321   -562.41323     127009.3   -36951.557    3701.7755   -40653.333    1203.4061   0.98192815 
  100500    301.39347   -367.55393    127077.66   -36896.013    3744.5174    -40640.53    1204.7468   0.98139989 
  100600    293.60094    -392.8626    127193.52   -36993.698    3647.7029   -40641.401    1206.9064   0.98050595 
  100640    301.43743   -274.16394    127208.59   -36947.086    3745.0636    -40692.15    1207.7384   0.98038978 
Loop time of 200.169 on 4 procs for 100000 steps with 4169 atoms

Performance: 215.817 ns/day, 0.111 hours/ns, 499.577 timesteps/s
99.9% CPU use with 4 MPI tasks x no OpenMP threads

MPI task timing breakdown:
Section |  min time  |  avg time  |  max time  |%varavg| %total
---------------------------------------------------------------
Pair    | 171.6      | 172.33     | 173.08     |   5.5 | 86.09
Neigh   | 13.373     | 13.385     | 13.396     |   0.3 |  6.69
Comm    | 9.6098     | 10.353     | 11.076     |  22.3 |  5.17
Output  | 0.29506    | 0.29728    | 0.30377    |   0.7 |  0.15
Modify  | 3.0241     | 3.0357     | 3.0557     |   0.7 |  1.52
Other   |            | 0.7716     |            |       |  0.39

Nlocal:        1042.25 ave        1050 max        1035 min
Histogram: 1 0 0 0 1 1 0 0 0 1
Nghost:        1779.25 ave        1792 max        1764 min
Histogram: 1 0 0 0 1 0 0 1 0 1
Neighs:        0.00000 ave           0 max           0 min
Histogram: 4 0 0 0 0 0 0 0 0 0
FullNghs:      29743.0 ave       30256 max       29447 min
Histogram: 1 1 0 1 0 0 0 0 0 1

Total # of neighbors = 118972
Ave neighs/atom = 28.537299
Neighbor list builds = 7034
Dangerous builds = 0

undump              1
unfix               2
unfix               3
unfix               4


################################################
#######         Run Simulation         #########
################################################

reset_timestep      0
log                 log.run_${NAME}
log                 log.run_liquid_295K_500atm_ML
