LAMMPS data file via write_data, version 29 Oct 2020, timestep = 100000

8507 atoms
1 atom types

0.36531538464624447 104.2760916642705 xlo xhi
-0.3576107725079325 50.54285729650353 ylo yhi
-0.3576107725079325 50.54285729650353 zlo zhi

Masses

1 18.015

Atoms # atomic

1955 1 1.7519030600136585 0.5401474576186379 0.657346693273906 0 0 1
2051 1 3.4827883579316086 49.92412492689355 2.275540932216795 0 -1 1
1958 1 7.879308927841721 0.31355782021027445 1.0122217079494333 0 0 1
2052 1 9.596556842038455 49.893704057325635 2.7361798736457454 0 -1 1
1960 1 14.001941689204507 0.36112637916028445 0.5954091462132423 0 0 1
2063 1 12.647980583916796 1.9810944014452163 2.32736512672561 0 0 1
2057 1 15.92558420824926 50.0236079388699 2.3805995950300765 0 -1 1
2678 1 20.61114068470885 0.5458889973269907 0.7811155250148081 0 0 1
2112 1 18.850270480065337 2.035676221923407 2.3651153516947248 0 0 1
2759 1 22.407166782711567 50.072028392624595 1.9957059923136438 0 -1 1
2680 1 27.065967150412927 0.6102595953652804 0.5835078300935592 0 0 1
2766 1 25.34112688989876 2.0907997577807085 2.086537195715076 0 0 1
2761 1 28.678499374794722 50.19181411810573 2.4547552291748174 0 -1 1
2682 1 32.89400194384535 0.30724913641728746 0.5092829936132525 0 0 1
1642 1 0.44350645182416126 2.13710623872635 2.5306425214371364 0 0 1
1964 1 4.981217871552399 3.8746777422684806 0.7476964640181021 0 0 1
2060 1 6.711260972246522 2.2644675730414003 2.4267670604793294 0 0 1
2069 1 9.979605862107293 5.163243565301875 1.820143166535848 0 0 1
1965 1 11.028107678348402 2.9972563700317525 0.4438075998467108 0 0 1
1967 1 17.194588263395183 3.4476318897073406 0.8383949625882556 0 0 1
2686 1 23.494487854711956 3.8360782145941545 0.8580063381890466 0 0 1
2769 1 31.178258715603693 2.371909812475476 1.6163338924908277 0 0 1
2688 1 29.589968408757937 4.102347056658998 0.30689937335387807 0 0 1
1969 1 1.8941040438868433 6.908516506991572 0.6689957370336845 0 0 1
2066 1 3.343555890303699 5.409212461658837 2.4385208223709154 0 0 1
2073 1 6.918575650623307 8.20395865709593 2.656819755860624 0 0 1
1971 1 8.095441397790298 6.823755460968791 0.19195857526019344 0 0 1
2077 1 13.305395747330543 8.290084249576726 2.358030419547055 0 0 1
1973 1 14.30509232905867 6.686180680896085 0.4901900931910341 0 0 1
1968 1 15.784425158601403 5.450439017050174 2.0916907843337467 0 0 1
2690 1 20.76167775185461 6.91317653416728 0.9640290581206834 0 0 1
2772 1 22.31511630001559 5.334712730776268 2.3664398398195443 0 0 1
2692 1 26.737012327285306 6.864210982670885 0.605334074733076 0 0 1
2781 1 25.089680937366836 8.340996184592429 2.1115617965384046 0 0 1
2776 1 28.15706143682359 5.56493221688712 2.258764366493592 0 0 1
2694 1 33.12569828039635 6.829419590731368 0.17603619058933917 0 0 1
2778 1 34.39726050536418 5.6903109418562945 2.3254985950401434 0 0 1
2784 1 31.674496460816655 8.047454939140636 1.942149658066675 0 0 1
2072 1 0.5176487051900458 8.827729105524185 2.388399091443968 0 0 1
2079 1 3.4609801858080473 11.607986882273178 2.0960843128548388 0 0 1
1975 1 5.498178696058937 10.047738906324838 0.9870333572617731 0 0 1
2084 1 10.131218415941506 11.300117790119062 2.6142323667435092 0 0 1
1977 1 11.593955163893309 9.957414356099823 0.730443350060151 0 0 1
1979 1 17.537851001931354 10.03626325802421 0.7551525997902073 0 0 1
2087 1 16.06435027496699 11.618657688549215 2.240071679984407 0 0 1
2590 1 19.18946248116813 8.517506229112696 2.607433674941497 0 0 1
2696 1 23.748197954717785 9.992065922194314 0.44768785960827073 0 0 1
2698 1 29.97192155476798 9.676203658975975 0.391243978770513 0 0 1
2788 1 28.841135280158113 11.50459873765482 1.9389427993118447 0 0 1
2791 1 34.92672824061195 11.386501941940372 2.209605171443574 0 0 1
1981 1 1.9595896693476282 13.468457763276865 0.8203852546204 0 0 1
2090 1 6.702148753260884 14.536291635214505 2.0373704848384313 0 0 1
1983 1 8.603219199768999 12.758805744049193 1.174498814814697 0 0 1
1984 1 9.747366569688573 14.701809037203839 -0.2935932796616484 0 0 1
2093 1 13.213301050859858 14.7998143124513 2.8521140151278197 0 0 1
1985 1 14.719294712536946 13.588783288178636 0.8917930422828688 0 0 1
2700 1 20.753416759943136 12.912319498339574 0.6708783931017959 0 0 1
2684 1 19.202798365184048 14.814173662166896 2.1760301343908535 0 0 1
2786 1 22.678395333844982 11.77722062034626 2.3291160263337103 0 0 1
2702 1 26.868825047955518 13.277776658644127 0.8974604089575373 0 0 1
2797 1 31.44366608309711 14.54902618577493 1.876614931048842 0 0 1
2705 1 32.9785240076753 12.964288833462177 0.4385566541755326 0 0 1
1826 1 0.5081329010532031 14.877870446797976 2.2956070693987427 0 0 1
2097 1 3.6792204704077136 17.80449401511467 2.0592256142165706 0 0 1
1990 1 5.213295243081111 16.21009920964336 0.2542562970674015 0 0 1
2099 1 10.238956896703167 17.86566040722835 2.4126991781358766 0 0 1
1992 1 11.52323373690751 16.072606952462046 0.9818644092662974 0 0 1
2100 1 16.02083290177555 17.52049712064719 2.227933833773581 0 0 1
1987 1 17.766390104765172 16.24673548344489 0.31886731883390707 0 0 1
2708 1 23.532799193862743 16.3948083375059 0.8740926830150351 0 0 1
2801 1 21.932480139718383 17.91541975697192 2.3585590054033356 0 0 1
2795 1 25.347539947990118 14.996761935046099 2.106984368685907 0 0 1
2704 1 29.89818246565828 16.1320251072756 0.16618696843073844 0 0 1
2805 1 28.525955082214477 17.63765336292614 2.0363727447760245 0 0 1
2809 1 34.64118262027139 18.012954508017273 2.2843192570439785 0 0 1
1988 1 1.5959510889929784 19.24458703383161 0.9542845856422819 0 0 1
1486 1 0.5562426347957302 21.07233125962498 2.566256593225273 0 0 1
2105 1 7.106096367705602 20.714189884360827 2.359418508113567 0 0 1
1998 1 8.245703178018408 19.05861085460065 0.4418467559198027 0 0 1
2108 1 13.033178069873886 21.217024567593974 2.326715784496859 0 0 1
1994 1 14.429449294776921 19.155396884704267 0.9919168961189284 0 0 1
2707 1 20.631289423058703 19.17914782059511 0.6406010960063302 0 0 1
1614 1 18.942039491161296 20.773823941666247 2.329320845737735 0 0 1
2715 1 26.92624366741365 19.11090604386773 0.592834061758295 0 0 1
2812 1 25.663996918878887 20.984887092265836 2.23390281558369 0 0 1
2711 1 33.44296306652477 19.402009265919375 0.4122981024298419 0 0 1
2814 1 31.6237519897957 20.821487210010982 1.7508226070582165 0 0 1
2005 1 3.744291488637626 23.70896393053035 2.4631134958636594 0 0 1
1092 1 34.96995555703699 21.210351438632234 18.45141377551981 0 0 0
1997 1 5.2391458066193515 22.195779635305126 0.5440677560366971 0 0 1
2081 1 9.855212816120215 24.092369552291125 2.6807953063868997 0 0 1
2000 1 11.401241904330412 22.360168751578186 1.040783321297368 0 0 1
2002 1 17.61969996066147 22.64576824419342 0.945880160812941 0 0 1
1995 1 16.170148508557332 24.244514511345738 2.2475017571433225 0 0 1
2714 1 24.00440874971487 22.331576902649125 0.8750194117276564 0 0 1
2815 1 22.36392084016359 23.958546847138102 2.1966132317515976 0 0 1
2722 1 29.784255617678486 22.554129641681698 0.19351379670729962 0 0 1
2721 1 28.763592988500577 23.801180375085323 2.3654572509260148 0 0 1
2818 1 34.729093218729986 24.082801311208204 2.6171708732531838 0 0 1
2004 1 2.225772839731995 25.38950833388474 1.0338915139642426 0 0 1
1437 1 0.6487854883761087 27.12705531717444 2.3861585535578818 0 0 1
1940 1 6.470876114721506 27.37310376416203 2.494627633200781 0 0 1
2007 1 8.224183968468195 25.74314606264364 1.3837534514065444 0 0 1
1748 1 13.202378434735328 27.078750507921608 2.6994819279667053 0 0 1
2009 1 14.654898588919366 26.041528987070677 0.872621162811176 0 0 1
2717 1 20.647094048963336 25.776486896944693 0.762701057442396 0 0 1
1852 1 19.132986908661763 27.33358721518364 2.1439657665778977 0 0 1
2720 1 27.05312683902589 25.570174162577477 1.0705382804692962 0 0 1
2730 1 31.522598353921133 27.137342195055442 2.6676085136445984 0 0 1
2724 1 33.209436844884394 25.408894456639562 1.0837698607117736 0 0 1
2082 1 3.346768605786362 30.43066419309764 2.411518126885178 0 0 1
2011 1 4.875021337364557 28.73957883098719 0.8394682181569237 0 0 1
2040 1 9.768940385543452 30.394383240277886 2.292966640962696 0 0 1
2013 1 11.654110470906794 28.665654794813083 0.8302454862908795 0 0 1
1901 1 16.31243297103787 30.269532684674946 2.596915685595252 0 0 1
2015 1 17.958834845882198 29.083431085345687 0.5568092522552321 0 0 1
2726 1 23.769547461335197 29.41464784128268 0.9826533060008231 0 0 1
2666 1 22.045987936385366 30.751228513079106 2.240051340982091 0 0 1
2779 1 25.372070111220506 27.747095691677632 2.3442757358071713 0 0 1
2728 1 30.202731821984653 28.90500537389548 0.8282018970982026 0 0 1
2771 1 28.688260947329894 30.643744125204947 2.635584598778183 0 0 1
2712 1 34.57408542581771 30.24559541725113 2.0270005536406464 0 0 1
2016 1 1.8345339135473242 32.03702044891708 0.4865526952660625 0 0 1
2071 1 6.135401876425275 33.53989374023116 2.6273495560862314 0 0 1
2018 1 7.766217141581243 31.9921139436903 1.3230924775316728 0 0 1
1980 1 12.97783959183664 33.37105114958112 2.2500588279628975 0 0 1
2020 1 14.787282261737687 31.76613390222972 0.8025964525861484 0 0 1
2731 1 20.548182251032156 32.17880953577089 0.7808649026129 0 0 1
2211 1 19.270423934995073 33.6575454770321 2.3677510437036435 0 0 1
2733 1 26.95057223733522 32.180852413275645 1.1711393622489372 0 0 1
2780 1 25.294901578531256 33.62392687535643 2.5642811021490672 0 0 1
2614 1 31.31694563186833 33.152135484446134 2.082480602964465 0 0 1
2735 1 33.36768886374647 31.71056235499234 0.47387823840385956 0 0 1
1837 1 2.8916362628618435 36.37576809410493 2.1873200671671293 0 0 1
2022 1 4.863963798483427 35.01251779759226 0.8430552752693512 0 0 1
1661 1 9.610192516683796 36.391542098851474 2.299841973296124 0 0 1
2024 1 11.085676581183625 34.81934810526994 0.3916183667467008 0 0 1
2026 1 17.445704326829752 34.71826724527512 1.1523164716206344 0 0 1
1615 1 15.810219021567626 36.73097297952611 2.2661962548927557 0 0 1
2737 1 23.88935673710161 35.23782718114978 0.6530135010726483 0 0 1
2739 1 30.336837169178413 35.12215930581717 0.5065697531346418 0 0 1
2551 1 28.46004132509721 36.33872212215009 2.199023971581141 0 0 1
2513 1 34.91338718829251 36.189679377730194 2.036405455060534 0 0 1
2028 1 1.8804797930234625 38.27683974428678 0.8131979563495972 0 0 1
1440 1 0.5599829685390904 39.84431097294269 2.3662961843775934 0 0 1
1542 1 6.743167879004105 39.47660931096798 2.6326954553778035 0 0 1
2030 1 8.034426352204099 38.0256502008854 0.5477435681551125 0 0 1
1459 1 12.673720378948074 39.90678418665931 2.0160783419637838 0 0 1
2032 1 14.414156757673094 38.33909713503375 0.5528149786795585 0 0 1
2741 1 20.558047208548537 38.53883637774209 0.8727818141282069 0 0 1
2827 1 19.31249657606349 40.21503524656973 2.2456912039501753 0 0 1
2607 1 22.34575854973376 37.18117832229606 2.4477705085449326 0 0 1
2743 1 27.462977338827994 38.43843475544928 0.5463222089104981 0 0 1
2271 1 25.246199688006453 39.589342627472725 2.3167293321084754 0 0 1
2745 1 33.34956267073311 38.105692736057854 0.4518837448194233 0 0 1
2243 1 31.711522790181604 39.56449752797221 2.3325602685980966 0 0 1
2035 1 5.358828632679625 41.010527538805206 0.7309200218118075 0 0 1
2044 1 10.12856710697695 42.78272444883706 2.2428648494413417 0 -1 1
2037 1 11.434081173331553 41.60336910680315 0.38984284178959117 0 0 1
2039 1 17.692752194421995 41.515372659111655 0.5870689071607842 0 0 1
2749 1 24.174889389047525 41.225737732093194 0.5421157766816457 0 0 1
2753 1 22.625892568524094 42.758894150658605 2.2180830612168703 0 -1 1
2751 1 30.605461609578168 41.22864845523839 0.5347839028353024 0 0 1
2198 1 34.91202354359272 42.899537360709004 1.838695212317809 0 -1 1
1941 1 2.1048793616647172 45.49050853409569 0.8395124572814516 0 -1 1
1225 1 28.444785607869342 46.78477168610592 25.01487012411775 0 -1 0
2041 1 3.829172892798408 43.76555833346643 1.5347158036645876 0 -1 1
2043 1 6.66294101770899 46.44724494898334 2.3546317382309465 0 -1 1
1943 1 8.369209237054237 45.11949205219369 1.133396505891066 0 -1 1
1945 1 14.279396271211821 45.397345539434475 0.6805563126727023 0 -1 1
1947 1 16.175801819018787 43.80632834384571 1.8921369080351202 0 -1 1
2667 1 20.75238274761634 45.477113067286076 0.8290653372975343 0 -1 1
2669 1 26.9938417917303 45.288617078843636 0.4036491727809749 0 -1 1
2254 1 28.685874931734705 43.672637795903455 2.0142039592750547 0 -1 1
2671 1 33.1759067427863 45.08415319624878 0.39537110241694773 0 -1 1
2757 1 31.516123505506975 46.60703011445303 2.370585422341987 0 -1 1
1949 1 4.9975890228493745 48.49910345295323 0.9909873896804631 0 -1 1
1950 1 11.268628216588112 48.52483482208834 0.6420310495811766 0 -1 1
2055 1 12.603001710958353 46.9267062882408 2.3031213060951585 0 -1 1
1953 1 17.50475478524417 48.69096484956619 0.2940360131230155 0 -1 1
2267 1 19.181666695425058 47.19391838003812 2.0972511149259048 0 -1 1
2673 1 24.329715633548748 48.66020254595288 0.7258220141007534 0 -1 1
2755 1 25.540983761832948 47.12104656558363 2.249364459508785 0 -1 1
2675 1 29.98388685094911 48.2812915049454 0.8103639820248296 0 -1 1
2764 1 34.549413535861845 49.66982119373215 1.9810158117842387 0 -1 1
2061 1 4.768010275766358 0.6824694032283403 3.938290290591847 0 0 1
2140 1 6.412745103739655 50.11471572559969 5.171824524955978 0 -1 0
2062 1 11.025905957072176 0.9237178164627651 4.130077868793847 0 0 1
2064 1 17.271764545252424 0.5249915826703945 3.986810909673161 0 0 1
2767 1 23.803148449252223 0.4066694173662514 3.8748117562194615 0 0 1
2261 1 25.470451767884985 50.038818964196686 5.193780820234761 0 -1 0
2768 1 30.052204666855353 0.8581265159239579 4.132740666981558 0 0 1
2067 1 2.1667576495900427 3.7315952614157686 4.163166803550299 0 0 1
2068 1 8.341270303061156 4.21904885116647 3.7254942163220433 0 0 1
2125 1 9.533602259824672 2.2290145233351097 5.320250244655371 0 0 0
2070 1 14.239702917023786 3.684587398852835 3.605671039588049 0 0 1
2773 1 20.685166334928244 3.5994221956027417 3.887547324860252 0 0 1
2775 1 26.87753069583842 3.704658518673387 3.811914296691797 0 0 1
2501 1 34.46594634834457 2.173496109623009 4.679008565392536 0 0 0
2777 1 32.87992370103266 3.5098624444302224 3.2688319780269888 0 0 1
2217 1 31.650286603443373 4.993285416188437 5.065962146728057 0 0 0
2074 1 5.212178265462637 6.798162919625666 4.06312259770868 0 0 1
2076 1 11.36484852438431 6.839755238797718 3.584418922127268 0 0 1
2078 1 17.500793469732912 6.622455783092892 3.7929884135335588 0 0 1
2782 1 23.697895802349006 6.913479173487882 3.858267390653083 0 0 1
2783 1 30.05537588746545 6.904429448124031 3.6647709024650785 0 0 1
2828 1 28.203519767993964 8.378665490045597 5.320390099801309 0 0 0
2793 1 34.221951584651535 8.02686462407843 4.926346158515401 0 0 0
2080 1 1.935629390683094 10.427223393022985 4.272420405989196 0 0 1
2083 1 8.386738204995456 9.845042291490756 4.290087245152192 0 0 1
2085 1 14.645542359807019 9.620238188231758 4.083152809911967 0 0 1
2785 1 21.001828567356995 10.208466802140594 4.111181950594236 0 0 1
2787 1 26.677874397960707 9.793240660308262 3.6454318383469335 0 0 1
2821 1 31.30846346442157 11.445124868909952 5.277145750297692 0 0 0
2789 1 33.03050085738026 9.811234999627938 3.4290673348828227 0 0 1
532 1 0.37117218228755666 11.355964772319805 12.374354697971995 0 0 0
2089 1 5.15154821337471 13.428461422005682 3.64061681891759 0 0 1
2091 1 11.71409632530319 13.058168847902872 4.188462084023381 0 0 1
2095 1 17.67380547867184 13.196536279541329 3.6279756705848274 0 0 1
2794 1 24.09075084094289 13.328263707439199 4.0533101821728 0 0 1
2796 1 30.082010469524885 12.951229309078313 3.592435936594938 0 0 1
2840 1 28.82441995998008 14.087948932668168 5.290220791630582 0 0 0
2096 1 2.2046172745079993 16.448637803104475 3.6753334377025864 0 0 1
2128 1 3.699966456670585 14.868815903621993 5.271032047899162 0 0 0
1420 1 6.740743729926537 17.93561855365056 5.336320735609925 0 0 0
2098 1 8.10734092723566 16.149974380092136 3.7586854336216966 0 0 1
2118 1 10.068853277496485 15.04367634842929 5.138692843726295 0 0 0
2094 1 14.949962100884157 16.130747050125798 4.097295760707487 0 0 1
2800 1 20.87632305757795 16.039558736094097 3.821069339036267 0 0 1
2804 1 27.500646074801505 15.812117577845022 3.64340273625752 0 0 1
2808 1 33.399497232324784 15.763841138187011 3.6723417479098464 0 0 1
2823 1 31.8413092524593 17.66885213647256 4.920982716234944 0 0 0
2129 1 3.6470964300578577 20.666731408224095 5.318203501029245 0 0 0
1142 1 20.33203855654083 48.16410632189427 23.165604106549157 0 -1 0
2104 1 5.142573865914157 19.37600319165304 3.7073185950886325 0 0 1
2106 1 11.934364200889975 19.635977781037063 4.147450678534974 0 0 1
2101 1 17.38298260985696 19.313970294939022 3.996073490322474 0 0 1
2802 1 24.013542246353133 19.114639957715504 3.590743677374968 0 0 1
2342 1 22.624718495423284 20.966721211458374 5.33392903086501 0 0 0
2806 1 30.245616004489015 19.154532747045288 3.4061387543974675 0 0 1
2103 1 1.9352000689089452 22.322862522141595 4.245804789844284 0 0 1
2107 1 8.135703640531991 22.617755326648766 4.135675904070888 0 0 1
2109 1 14.44647901380963 22.851827773777046 4.0399584446442205 0 0 1
2811 1 20.801695001079338 22.321380851760694 3.990402726651216 0 0 1
2845 1 19.188656131222185 23.942432233447693 5.389462468091323 0 0 0
2817 1 27.165783975404022 22.161174552565086 3.887323540189483 0 0 1
2790 1 25.938101961778372 24.291812390575064 5.109898782951834 0 0 0
2813 1 32.847192688415866 22.399492597701276 3.904286393803919 0 0 1
2836 1 31.619708677303464 24.3172661127747 5.239737746600173 0 0 0
1291 1 28.193280771391763 33.75988270144544 25.013714122915463 0 0 0
2111 1 4.7794658355534505 25.71440541570097 3.9232361511419773 0 0 1
2075 1 11.284679393624861 25.852818618725703 4.019628130398198 0 0 1
2141 1 13.167797681683718 24.565610154906743 5.275359684028758 0 0 0
2138 1 16.458146734972875 27.206410410831374 5.094755922560179 0 0 0
2003 1 17.924112105194354 25.450544901607536 3.6958817115938913 0 0 1
2816 1 23.964142464494554 25.877898686894607 3.7312782044516677 0 0 1
2799 1 29.840388443769495 25.40242853726558 3.83219158877697 0 0 1
1962 1 1.969684075164806 28.696942203359605 4.200134023446642 0 0 1
1801 1 8.186948017424413 28.830438643426387 3.99460533087674 0 0 1
1738 1 14.421565676343237 28.949691316447066 4.022415308641399 0 0 1
2798 1 20.71354341124838 29.115896759703737 3.902960757449854 0 0 1
2758 1 27.050559532057573 28.783946454363164 3.723294201312336 0 0 1
2841 1 25.4818066216909 30.490078028586993 5.34745981668843 0 0 0
2685 1 33.139497228075946 28.712638366637755 4.114139551701316 0 0 1
1766 1 4.927068736601977 31.919721367354235 4.241976635738965 0 0 1
2143 1 9.794415532801093 33.60296666288177 5.382810905556739 0 0 0
2065 1 11.09666506793379 32.010624319209654 4.008249817253124 0 0 1
1879 1 17.790017151673712 32.08721155296528 3.619524945060867 0 0 1
2792 1 23.576184359972284 32.012771677262585 3.8662900457405467 0 0 1
2765 1 30.282050936393482 31.961188650193932 4.308204002784207 0 0 1
2208 1 34.91865303278861 33.259190639612775 5.037154618044736 0 0 0
2110 1 1.8402260079584578 34.8635910455486 4.1493358463509304 0 0 1
2058 1 7.789447583422769 35.22408917669587 3.990186406079297 0 0 1
2047 1 13.18285134292208 36.994226840022144 5.334031048234122 0 0 0
1954 1 14.657611569888315 35.03652949970005 3.7992284382417303 0 0 1
2810 1 20.981661281405515 35.32689579213859 3.585343290473496 0 0 1
2848 1 19.447029865069684 36.93363774237353 5.344896937633922 0 0 0
2746 1 27.052680586633194 35.02024314648966 4.397202468997638 0 0 1
2629 1 33.146054862098055 34.39788031685882 3.2633360953229764 0 0 1
2832 1 31.825772153861248 36.094945156853974 5.367346827034657 0 0 0
2124 1 3.352232786762673 39.75147869895939 4.980758881195347 0 0 0
1713 1 5.11114413905154 37.89757617010984 3.9113505353043285 0 0 1
1629 1 11.376977655038248 37.89348165894432 3.7611559487674553 0 0 1
1564 1 17.588442508100414 38.556430696753566 3.8463972373112165 0 0 1
2144 1 15.934400180097345 39.755426918439355 5.365123676747995 0 0 0
2560 1 23.93697167607756 38.34817633138351 4.1263698759532055 0 0 1
2519 1 30.272080556478667 37.816797900686815 3.782075487616961 0 0 1
2835 1 28.50585293933575 39.70782587459855 5.022843107829534 0 0 0
2820 1 34.89398432467479 39.782204070869625 5.383483794826737 0 0 0
1555 1 2.2827137252130574 41.69607797274802 3.406305518690109 0 0 1
2130 1 6.630283058388565 42.52567912057171 5.32557982428505 0 -1 0
1518 1 8.424899285318562 41.25245643460145 3.553543309057404 0 0 1
1476 1 14.645612599471347 41.502912335865645 3.589475260893096 0 0 1
2301 1 20.7068732623735 41.3795874290181 3.9776782738460508 0 0 1
2264 1 26.81704042182171 41.40775832104952 3.580259930694552 0 0 1
2844 1 25.169098344948814 42.82457587681301 5.0317609146248365 0 -1 0
2219 1 33.165648592048996 41.3759924397926 3.694564033869926 0 0 1
1928 1 0.7709963560254416 43.79477013999399 5.068857504741201 0 -1 0
1426 1 3.744738922605982 46.55579751738663 5.130358151734254 0 -1 0
465 1 1.6924891069822467 48.437350219457855 23.451197422450594 0 -1 0
2042 1 5.105561188642696 44.79467013311948 3.8307713163928847 0 -1 1
2045 1 11.328519571386872 45.12310541351635 4.001473477573167 0 -1 1
2127 1 16.14025771669648 46.623675289119824 5.209794702361883 0 -1 0
2048 1 17.64983517135557 45.51280716587709 3.4230148331770387 0 -1 1
2754 1 24.002738635607557 45.59216867079761 3.713985909447284 0 -1 1
2756 1 29.79476982070355 44.91664827476268 4.003055485659988 0 -1 1
2196 1 34.694553381440116 46.64281149469908 4.93120790216046 0 -1 0
2050 1 1.7966206420524655 48.12701176882416 3.902193422578817 0 -1 1
2053 1 8.095423473107381 48.0101308084817 3.9825804163222847 0 -1 1
2056 1 14.356083360031272 48.363786806853234 3.805042660095916 0 -1 1
2838 1 19.24011790430282 49.8043820865795 5.178953847715233 0 -1 0
2760 1 21.18294471032409 48.70921129021421 3.90075489700882 0 -1 1
2824 1 22.51751470170733 46.90920620093675 5.330707777476765 0 -1 0
2762 1 27.35910199837506 48.33185320122856 4.170060613659562 0 -1 1
2763 1 32.934001474212785 48.39849759837639 3.894385692085276 0 -1 1
16 1 1.6653309191390142 0.5374466434034947 7.703003598011087 0 0 0
153 1 3.571414386722547 2.049621753831368 6.685551453127104 0 0 0
6 1 3.2056334702670353 49.981396628060615 9.236665123505162 0 -1 0
19 1 7.738123054044323 0.64362042563137 7.898250752740932 0 0 0
14 1 12.66863721429537 49.98301143613998 6.127266131075457 0 -1 0
21 1 14.227110468381591 0.6716696892475984 7.721005269022019 0 0 0
13 1 15.602804713043671 49.89182018386766 9.012387647398617 0 -1 0
772 1 20.730933731012506 0.39965015547028393 7.866017489844186 0 0 0
964 1 22.158968468153404 2.0742539359898644 6.152851468542275 0 0 0
774 1 26.68797665420963 0.7697633070255507 7.596833208480548 0 0 0
767 1 28.56060530764315 50.347529454734875 9.067264690945262 0 -1 0
1383 1 31.56444534106857 49.86615683771545 6.369783526644859 0 -1 0
775 1 33.25683016460826 0.6802866466122737 7.602085336098249 0 0 0
26 1 5.203310923263407 3.767494819711449 8.061154590124266 0 0 0
29 1 11.023629482590971 3.7788633404659935 7.730658921259833 0 0 0
752 1 15.84831372253657 2.24159948279099 6.262341349859619 0 0 0
32 1 16.198673544744732 5.115063891288378 9.142481788480117 0 0 0
31 1 17.660738336679348 3.6204717212004973 7.670414382455418 0 0 0
1294 1 19.387190037495998 5.192738540046883 6.2080121780745925 0 0 0
778 1 23.570038046480025 3.73754453623435 7.789769060115015 0 0 0
1242 1 25.13708814517609 5.192839328277315 6.20470092163202 0 0 0
773 1 25.350079261921195 2.287505399643443 9.194969338040764 0 0 0
1336 1 28.222697234159398 2.303799977615108 6.3376169189018645 0 0 0
780 1 29.935964572768878 3.883411356663294 7.750049314303016 0 0 0
776 1 31.732614176567367 2.2852910622663467 8.976767113410355 0 0 0
735 1 0.44322559197003314 5.647435427238124 6.2911827690852 0 0 0
33 1 2.036464459282412 7.010089268252757 7.691405355610616 0 0 0
94 1 6.8308163602144205 5.606492578591131 6.706236482655982 0 0 0
36 1 8.371861516307636 6.968959299405442 8.315576579998243 0 0 0
168 1 10.110068547799225 8.003497922233413 6.66306027658944 0 0 0
246 1 12.748979803541259 5.33230919516166 6.152493989575845 0 0 0
37 1 14.370770959504311 6.513942145562206 7.779313867612878 0 0 0
301 1 15.972426699222098 8.068945461222466 6.363272419960286 0 0 0
782 1 20.58620448737505 6.94782831033535 7.971276952903802 0 0 0
1378 1 22.187558055112852 8.43166514446813 6.557107504230322 0 0 0
784 1 26.727546777065502 6.75434050138156 7.977573280746107 0 0 0
779 1 28.518975287304684 5.381772952698258 9.185091614414391 0 0 0
785 1 33.08719282301075 6.852681931310248 7.476309186578318 0 0 0
48 1 3.737304979602939 8.685264000218991 6.13122912541701 0 0 0
42 1 5.035006122548902 9.859345080625122 8.11405456400451 0 0 0
220 1 6.631387947065622 11.527613838803436 6.190939171267749 0 0 0
44 1 11.274122538881697 9.777103632372674 8.16797623853673 0 0 0
592 1 12.86545826812778 11.070564105737224 6.5514054141589835 0 0 0
45 1 16.50086849425683 11.579033751339987 9.074736557153836 0 0 0
46 1 17.76438518724053 10.03656467624205 7.623997633967131 0 0 0
289 1 19.06258697212725 11.557268304364564 6.167224705360685 0 0 0
791 1 23.98328837532539 10.045564109614704 7.86938334222963 0 0 0
1068 1 25.64280690570517 11.426753308051314 6.282119817563439 0 0 0
794 1 29.825856347377133 9.975965347472494 7.685743298646159 0 0 0
795 1 34.85063753207362 11.489312940868844 8.70622184234356 0 0 0
786 1 31.549751765088814 8.596883631434157 9.132355169209385 0 0 0
47 1 2.1461950198923336 13.481946616384125 7.704397011465698 0 0 0
49 1 6.6427458746537305 14.621324753798701 8.977653777509762 0 0 0
51 1 8.499994440551514 13.329792907454285 7.262562764000541 0 0 0
52 1 14.270915759539054 13.029978083135662 7.75950030107998 0 0 0
661 1 16.345703266231915 14.55403637892281 6.5677895212486685 0 0 0
797 1 21.14035023482202 13.034663641123455 7.854600595894306 0 0 0
1327 1 22.380098991065154 14.816391930016124 6.4695567893054085 0 0 0
800 1 27.00206441054629 13.005502057119068 7.610689218570522 0 0 0
799 1 25.433849467846247 14.479228604770807 9.180528231623496 0 0 0
803 1 33.278679530607285 12.687612758114078 7.179415354785894 0 0 0
804 1 31.759067438167193 14.109485709063494 9.017239293436234 0 0 0
50 1 5.1267002251296665 16.401843508400017 7.517994778372421 0 0 0
58 1 11.672595334995716 16.49744696819191 8.022771007711897 0 0 0
60 1 13.170625399946706 17.963975323355978 6.3724054083405015 0 0 0
61 1 18.10502589544593 16.182690236232148 8.171480598696771 0 0 0
805 1 19.240639759063217 17.82887346178384 6.218886962795372 0 0 0
807 1 24.170215926178706 16.59396645172335 8.018919032794177 0 0 0
1386 1 25.743370697247496 17.394301645414977 6.220105603500387 0 0 0
801 1 30.432540944021575 15.891343418396037 7.336025434171098 0 0 0
56 1 1.8501165891703644 19.367711319236726 7.914910476578836 0 0 0
65 1 6.740542531031185 20.943989872646704 9.114936173664535 0 0 0
66 1 8.279782368755724 19.756381295751304 7.374212154180656 0 0 0
59 1 9.676409878876843 18.071768514748186 8.849745685756078 0 0 0
69 1 14.778680017193416 19.437527985240635 7.9967099689116345 0 0 0
810 1 20.657118423153534 19.677761346706287 7.394307898976442 0 0 0
813 1 27.536037568861705 18.995130073659944 7.61948219905983 0 0 0
811 1 25.72235966270038 21.133741441396154 8.930694941344438 0 0 0
1384 1 29.107415278290805 20.73536788642985 6.146937440634632 0 0 0
809 1 33.35928586096246 19.164237307264422 7.589737834990847 0 0 0
1093 1 34.6260183028259 20.943113730169802 6.212132096643943 0 0 0
815 1 32.09606611575097 21.009971419948158 9.239938439938012 0 0 0
64 1 4.905189381624004 22.42906560276786 7.663754598783022 0 0 0
24 1 6.520691641485617 24.347645291036887 6.583698917804104 0 0 0
718 1 10.505160563296073 21.294944273766607 6.2169935205711635 0 0 0
67 1 12.119097501603447 22.820150266651517 7.857924046236786 0 0 0
741 1 16.11904119430199 21.303988327508 6.346278417393608 0 0 0
78 1 17.598155403777053 22.782327265040873 7.909155513233925 0 0 0
1184 1 19.373743219849736 21.34198455621073 9.142254356019539 0 0 0
812 1 24.06354669525759 22.953088629676632 7.456004403612197 0 0 0
814 1 30.269376503682253 22.6883338617023 7.649871117532202 0 0 0
73 1 2.1226230186422006 25.8037669563395 7.811611533260294 0 0 0
23 1 3.7445003795117646 27.356301042859673 6.749235991704772 0 0 0
74 1 8.50605894863905 25.970856031448356 7.848011846940832 0 0 0
15 1 10.13074086418259 27.290415768421507 6.372581953576328 0 0 0
76 1 14.729296157444445 25.801879651821192 7.868241291684274 0 0 0
817 1 21.025409180596313 25.75856039065358 7.6287481886199355 0 0 0
816 1 22.483982433706363 24.409674490460617 9.22145506775198 0 0 0
818 1 26.969630519198365 25.933468803805983 7.780923384362083 0 0 0
819 1 28.983448373596545 24.524214738821122 9.03191578588509 0 0 0
771 1 28.464536268020925 27.489834914031814 6.311293917846278 0 0 0
820 1 33.228555288298516 25.365680086292915 7.854335748013545 0 0 0
825 1 31.955781387661816 27.13948578943237 9.240291960639194 0 0 0
656 1 0.6373846930378297 30.381046551385072 6.452961019339137 0 0 0
81 1 5.348959220611583 28.958715765527288 8.096237551690136 0 0 0
687 1 6.789771991800187 30.58475205913517 6.208714948405703 0 0 0
91 1 9.70505688524103 30.519737451392523 9.164724909090088 0 0 0
83 1 11.760828381345846 28.925728599440752 7.899818516928246 0 0 0
93 1 16.24291400558032 30.283382690565666 9.225675806758401 0 0 0
85 1 17.89995540299214 28.742496915332346 7.730065860981625 0 0 0
1385 1 19.376317956729533 30.361636267255722 6.307652225461959 0 0 0
1380 1 22.642364861998455 27.598038202484656 6.208087080165153 0 0 0
822 1 24.01047132948347 29.07220557906099 7.884401609501454 0 0 0
824 1 30.272834780744127 28.904602083433268 7.781906766663443 0 0 0
1381 1 31.982013348970575 30.13176123273724 6.433698117726288 0 0 0
87 1 1.9566480845188645 31.723456401337565 8.184702369929875 0 0 0
545 1 3.273418523794108 33.41695939937389 6.534590708309183 0 0 0
90 1 8.333410861530286 32.388311311873046 7.849397033678153 0 0 0
212 1 12.876258474852037 30.81082570316848 6.428921341582292 0 0 0
92 1 14.73242480975058 32.22036447776631 7.781377356246692 0 0 0
40 1 16.551447879206627 33.56715412722824 6.256209500636534 0 0 0