LAMMPS data file via write_data, version 29 Oct 2020, timestep = 200000

4608 atoms
1 atom types

-0.2826873031049395 53.68268730310638 xlo xhi
0.10372245699291227 50.80339754300641 ylo yhi
0.10372245699291227 50.80339754300641 zlo zhi

Masses

1 18.015

Atoms # atomic

305 1 0.3595258093841458 33.043760116421474 18.298729649482734 1 1 0
2132 1 -0.23909151695018238 3.2037431107534693 9.005979225402625 0 1 0
3038 1 5.572798774894985 49.08308381042344 2.621550437747609 -1 0 1
1561 1 3.514385382428451 50.70222990378873 2.1858201855088994 0 0 1
2355 1 11.243156295019618 4.8987666712642515 2.9160708008708496 1 1 0
1440 1 1.2390609262104382 26.393352022407747 17.291092373343737 0 0 1
3164 1 13.101309944659304 3.890397321893342 0.5524952759672686 1 0 0
1530 1 1.7649198025533277 43.576240851803995 25.020288335980965 0 0 -1
1876 1 2.5265556739106474 5.007309831625221 4.00392097610097 -1 1 0
1519 1 4.107769174261871 1.7748885935217453 0.2819722029232711 0 -1 1
1578 1 0.23861932290208698 47.350271392365514 2.129462896225384 1 -1 0
1452 1 2.9666802053443817 7.757053846359467 5.282191146091573 0 1 -1
3072 1 1.0487846371719387 9.061724659320118 3.6286840066222488 1 0 0
4467 1 5.512798779838394 9.261437936862917 5.357997558449027 0 1 0
686 1 9.205182219789219 43.62350786263874 0.6243936335528887 1 0 0
989 1 5.993689461179456 9.190608648435482 3.000201352484821 0 1 1
2602 1 8.909641654440538 8.121809454084525 4.161533365842102 1 -1 0
1607 1 11.04321836135405 39.98061625179912 1.5877035870903768 -1 1 1
2292 1 12.63392384430577 4.537011705949724 24.774235895813696 0 1 1
441 1 0.08976990864572099 44.75603960263807 9.073429281724655 0 0 0
3613 1 12.730136658569762 34.16306652140287 25.162052555883605 2 0 -2
3451 1 8.00506665004695 14.664165655414198 5.944953336815527 0 0 0
3103 1 12.23867727909357 7.348600928329583 2.7722520335818133 0 0 -1
509 1 15.571132206950802 0.17012755732719853 2.23890833083852 0 1 1
2936 1 2.6494010058913973 18.377620171356238 3.156186369402554 0 0 0
900 1 4.057681722815398 14.914068106258249 3.5567394075921075 0 1 3
1021 1 5.877334932659164 13.845090596203303 1.2981394431362003 0 0 2
4351 1 7.684225329727048 15.99021050682152 2.11369131667524 1 1 0
1740 1 10.073615935943991 12.385970886734047 4.6477927802027805 0 0 0
3999 1 6.114114501682144 7.365050821217628 1.0608343673300507 1 1 0
1406 1 1.5210560753560631 40.28743855265439 9.717267140526975 0 0 0
2614 1 1.8047653263538561 48.40878393329616 24.19815993492732 1 -1 2
1402 1 7.953586950733106 26.409456183682565 0.4990300059597983 -1 1 1
3552 1 11.195607915086487 20.54977830151609 1.7330716976152931 1 0 1
2811 1 5.734584365244866 18.38115558812636 2.3726988187812625 1 0 1
3469 1 13.361226396919268 16.222809246114394 1.7240684244248026 0 0 -1
2155 1 15.087467245067721 16.215845386987723 3.7576994666557657 1 0 -1
1514 1 5.466726639995284 40.525511873937745 2.6528436475285706 -1 1 2
2202 1 -0.021136573590170904 17.633368309393987 1.7959838751627726 0 0 1
1601 1 2.5231818099991234 22.1130871434819 3.4133976023012087 0 0 0
1569 1 0.10311731020064563 41.243831513543 23.711307882794554 1 0 0
3781 1 5.5008019883267005 23.151206419682456 4.121730725168712 0 0 1
843 1 12.478832969550107 25.185844557397047 0.3151303358497055 -1 0 0
2493 1 0.16714853946328356 27.920302325578064 5.081957785631704 0 -1 1
1526 1 -0.14919737748464135 19.71411532425939 8.258009468280026 0 1 1
4586 1 11.67164601124608 27.657911609542722 2.437310138240135 0 0 1
1628 1 16.17243238411307 18.43175314720539 10.38758323049095 0 1 0
2553 1 3.2798906364677762 25.255635864913828 4.924262198687238 1 0 1
3929 1 2.1600229178950965 16.27503627347318 19.50381323276046 1 0 0
1888 1 14.431969151756842 27.419222886328328 3.2536997354429587 1 0 1
430 1 16.354991348327896 24.70738114245814 1.9245437012458748 0 0 0
4121 1 0.7318813124101198 48.12456638070692 13.892549886772269 1 0 1
4481 1 15.283347139185919 48.947912423018266 23.614478927989495 2 -1 1
3614 1 2.0164502125471633 32.06499176058716 20.870020077434017 2 2 0
4125 1 -0.1947153269777715 28.89730676677799 24.759992231554683 0 0 0
4139 1 17.088371207666185 33.18879618135708 9.7336770233106 1 0 2
3484 1 12.492735970716218 20.585574091803597 4.20123635425259 0 -1 -2
4473 1 13.349451791695694 33.23825982213022 3.856266776318687 1 0 1
4585 1 4.361356798884926 37.73411912416327 3.935683065702576 1 0 1
1092 1 5.401006718640024 32.36608324878035 0.733386797559254 0 0 1
2282 1 2.7840605480956073 30.592747060213206 1.2849109666249157 0 0 1
4179 1 6.7956841652479225 0.5542193341630235 24.90187662297492 -1 0 1
2172 1 8.755665640672005 29.46968307052743 25.06948445260177 0 0 -1
4494 1 7.135448417902469 12.282328375114894 3.67472981295251 2 1 0
3854 1 1.2786896638325975 41.97071780201366 1.1376075922890039 2 0 1
2306 1 6.668413605990146 38.33487895270845 5.358245560366936 1 0 0
3214 1 6.510141442365098 33.63861983909643 3.4417404058390977 2 1 0
4031 1 16.090615786967128 15.732974024747616 21.656468266592725 1 0 0
3101 1 17.330594608166738 23.801560764427318 12.364783780437989 0 0 0
367 1 15.68906248858808 36.68102469382492 1.1411037273434435 0 0 0
4270 1 16.649020647898283 10.01201882899872 25.35875426101019 0 1 1
3675 1 7.911888611170822 38.79190238664035 2.2034851791902623 1 0 1
3883 1 1.7600463495102785 23.69500440047953 17.47193595881131 0 0 1
48 1 0.8291428576699735 31.83663108568174 8.392961553628814 0 0 1
394 1 7.1591387198663 20.05681105767136 17.54831065246988 -1 0 0
2845 1 0.4774494035507051 42.96052429958977 15.08955857644241 1 0 -1
52 1 0.4463684848971955 46.24362909904065 22.812714706938557 1 0 -1
1426 1 5.539334188073328 41.532726087508735 5.720773330928939 0 0 0
4560 1 5.180834294436717 36.33604391780168 1.4838174864743554 0 -1 1
1054 1 0.856635795558786 23.47819406076913 6.708403555067703 1 0 1
2276 1 -0.16058543594547303 31.940702973524257 3.8668176008670962 1 -1 -1
1631 1 15.843379500205934 2.463285894572826 1.2780674337607953 0 0 0
1319 1 2.4321457744338253 4.216698903396317 19.342865124578868 0 1 1
1723 1 5.002539948245896 45.661023691879336 5.5960303791448105 1 1 0
1226 1 15.859406545132106 13.241180379446284 15.59391069149086 -1 -1 1
3240 1 13.456477700840574 44.841050713515216 3.267407441440371 2 1 1
3761 1 4.481583928151507 11.125895874062856 1.729826217848018 0 1 1
2886 1 0.6781862841433258 50.42611267756455 2.6777656982501132 2 -2 1
1309 1 0.055874007271626336 36.18056936211671 18.46265631443258 0 0 0
2894 1 3.667286545167773 46.73081658030823 1.7751461809931566 1 -1 0
448 1 4.906823022895488 16.05872076810084 23.16052186140857 1 0 -1
3620 1 0.9991145930619072 14.144359827336675 23.017569200386102 1 1 0
3682 1 13.79580438087304 48.919406379764375 1.357252591926438 1 -1 -2
406 1 10.126829815049797 3.182922464834025 24.155864376967006 0 1 1
2766 1 17.498129579448403 9.83779658268083 20.439416089295424 -1 0 0
2307 1 10.521684086429408 45.85150125731858 22.405039071257637 1 -1 1
2577 1 10.223658153918462 2.1667964071745827 2.0754061235890733 0 0 -1
2204 1 9.350203435672482 10.04480256187558 2.1782131255746275 1 1 0
4279 1 0.8794253102999787 49.46910582542667 5.451678207530715 3 -1 1
2063 1 3.1730450386162006 4.928677978584247 8.575813905102093 0 2 0
3042 1 1.6737538994837653 3.1454898492985404 7.2365220793798795 0 0 2
3948 1 8.692216381412472 5.513061705963895 2.8175020047248083 0 1 1
2048 1 9.661135978256114 1.9026366291468648 4.6050762877906815 0 0 -1
1984 1 2.608313838237989 16.564376277296628 24.69259270214532 0 0 -1
2815 1 14.569399400470688 2.651262587425816 8.244919933386337 0 0 0
2780 1 0.19990182596840694 36.52794713376115 3.192895990522716 0 0 1
1715 1 2.8150961449302954 7.841122493917921 7.890606532095723 -1 -1 0
1136 1 6.3308840831238795 7.573482723425117 7.645909487679196 0 0 -1
1424 1 9.88160591142206 4.600586917099834 7.133623101301455 0 1 2
322 1 12.140966340999382 4.680025571336782 5.985375519700837 0 2 0
2583 1 5.709274198806028 50.54370872756459 22.767692162805666 1 0 2
365 1 3.0768670258143365 12.515522052747853 3.5958458650789646 -1 0 0
1087 1 4.968409715613694 11.704540380326826 6.180054498366761 0 0 1
4111 1 5.217936664825789 15.582340500187524 6.087081266585745 1 0 1
132 1 7.548967852141895 12.033348771282807 7.570243603399936 1 1 0
1464 1 11.822093222668736 9.369975836037204 4.67163048266562 -1 0 0
3441 1 0.9696359151205947 11.70257237936158 8.91701093096183 0 2 0
3210 1 1.617637078391104 16.551248304734727 4.925761174864112 0 0 1
2663 1 5.508836522718683 18.04553238299003 5.136112342368278 0 0 1
459 1 9.731312159000788 16.284782758067216 3.7514803559014296 0 0 0
3857 1 10.942346942094273 15.531988052788991 7.216500817261469 0 0 0
3911 1 14.064204552068858 13.47545416179759 4.2642760804240725 0 0 1
187 1 1.519460710423735 17.875199178349458 7.1282990846605365 0 0 1
2272 1 0.8055987212308966 20.035764758675725 3.558962552199938 1 0 1
4531 1 3.6169313381523382 19.48675585762777 6.662789172112656 1 0 0
4176 1 5.6931874565892935 22.915864531453845 0.9822247968626164 1 1 0
586 1 8.523654458353331 19.930582762239773 2.4346226799997996 0 0 1
246 1 14.94970887287946 22.845957803263047 2.901492153424658 1 0 0
3670 1 14.226341659162264 18.343638951562447 5.371890038441369 1 0 0
2914 1 2.026724419229933 24.482990380292296 9.136291894179875 1 1 0
1667 1 3.2501984070822454 22.034606110690028 6.595824288820511 2 1 1
3018 1 7.987494396482711 22.351425862037242 3.4065582511446455 0 0 1
1412 1 10.719796890998476 25.323320774929222 3.252168228803958 0 1 0
203 1 12.889764551616494 23.94025203431021 4.302991135398048 0 0 1
2101 1 3.481260031878145 43.112484601657926 6.121227584977834 1 1 0
987 1 2.7718639097825095 28.594242956423667 8.382747573219595 1 1 1
836 1 11.938474956115138 42.517809076788026 1.7748352896188146 0 0 1
2611 1 5.7501861173500695 23.69269788391903 6.979284541710415 2 -1 1
966 1 9.47137860782904 27.05637121643534 5.617512234931429 0 0 1
185 1 5.24134882198536 26.010725631943206 3.078921525929728 0 0 0
1673 1 14.381360869820359 25.78227337818296 5.128528837059586 0 0 0
1143 1 16.92166896157347 10.457752589783068 3.3513104612133056 0 0 3
3053 1 0.26475412796442266 0.6562410407034917 17.4253233042875 1 0 0
4281 1 1.2369415024529526 26.38890530823955 3.4572346547154917 1 -1 0
2402 1 -0.009092781774864223 40.92854738889985 20.721023979058547 1 -1 0
3921 1 7.713703965189287 27.490783102718666 3.638012776346293 0 0 0
3076 1 14.874555502767985 30.275877821020245 3.983508239601424 1 1 0
2873 1 15.034113443903838 29.626494727925763 6.883866234891845 0 0 1
4565 1 13.707305983363197 27.02836471211212 7.04629741908426 2 0 0
1982 1 1.3247667995206864 30.188011433300936 6.043724223617388 1 0 -1
2074 1 5.944118035037122 28.39416676251571 6.043694345042584 0 0 0
2736 1 3.2770345250591553 28.49738757451349 3.2387610753663987 1 0 0
2618 1 11.81218918448292 30.10993672579345 3.8196054231116436 0 -1 0
2843 1 13.753193403942216 43.75511929020295 25.431632439891338 0 0 0
4061 1 1.5059621635015297 34.042331906714544 3.020981553563634 0 0 1
3040 1 4.928144512377516 2.1432939161130147 21.357022511189918 -1 2 0
55 1 5.02757015285476 33.45469423183261 5.9102164597852145 1 0 -1
2971 1 16.303081120037774 20.60036313044441 24.415214271454094 -1 1 0
1588 1 8.681478035836657 28.94898726804347 1.1631702117387994 0 0 0
3898 1 16.431190072826663 35.87625168946692 3.537307739934218 0 0 1
1503 1 15.249783288990857 33.89620272104494 5.859098702333629 0 0 0
1739 1 6.654019317664986 49.779067405345614 0.13013963480427723 0 -2 -1
1269 1 1.6046578754572587 36.302915873778105 6.37798386596723 0 1 0
1247 1 14.018411982271532 29.34164929390839 0.33156218871687915 -1 0 3
3966 1 2.946640260254648 42.27309664131125 3.4063400995799653 1 1 1
1285 1 3.409437860985396 35.20632451935236 4.605592587253567 0 0 0
504 1 8.876320170441911 34.81234766110874 4.175845865667656 0 -1 0
3842 1 11.072710322562775 37.88894717423123 3.8280973002462564 0 -1 1
3849 1 11.431887385388885 14.523762058834755 3.4955947318590743 1 1 1
1248 1 2.3052754059321323 43.001964932887105 10.03483056824102 2 -2 0
695 1 8.724512484386084 40.30250299526749 6.3890897680899945 1 -1 0
841 1 9.457878899530517 36.57016595468887 2.1961623731585282 0 -2 1
3727 1 10.604540652544177 35.144939368542175 0.37697030674384296 0 0 -1
2208 1 13.527471939364826 42.177064555238424 8.688047087633153 1 0 0
1852 1 14.952911921586452 41.798911332864726 3.539781833071589 -1 -1 -1
3054 1 11.935214033164955 41.17362613028537 4.967143813359442 1 0 0
2568 1 0.4132179815674699 4.5866701139203725 5.712021929604717 2 1 0
3572 1 2.1754928161568983 45.595781024244346 7.432747259081841 1 0 0
3304 1 10.777654618529196 38.549101708806425 6.482492247139367 1 -1 1
2906 1 9.90174419186042 43.466451271599965 6.392409554963383 1 0 0
327 1 10.647803082677951 45.449805026634785 4.9073872844409 0 2 0
1334 1 16.90010508476394 46.58356976520483 2.0064931183539167 -1 -1 2
1200 1 3.208400765556779 47.41889090905 4.342902763905766 0 0 3
797 1 6.37899948428137 45.92328550859001 3.069746548801454 0 -1 0
1317 1 12.46484140305651 11.095917019526455 24.923747594053893 0 1 0
996 1 9.439846507258583 48.34240332113058 2.4378746361956516 0 0 0
4406 1 15.014854106262726 47.3790315268344 3.4684203507309403 -1 -1 0
1147 1 13.342762949088522 43.25950081733918 6.3051660476918405 0 1 1
3292 1 4.0515359916505975 49.24089053851097 6.033704078980389 0 -1 1
1275 1 6.675551940456136 2.0994597958922685 2.9238286329812917 0 0 0
3154 1 8.095480130454993 1.526516648028001 0.35732205993409477 1 1 0
3712 1 11.716160588895793 50.35294161004275 2.0934879805130295 1 -1 1
2300 1 1.531741594047544 34.981023104094845 22.42672604700796 1 1 -1
1358 1 5.9017841476814015 2.565778369088755 13.551737236707655 0 1 0
3672 1 6.428674911891979 1.435971325155492 6.595042339855054 1 0 -1
2000 1 3.9925254405935977 2.4509139489924188 3.662836750290926 -1 0 1
875 1 14.041685587457494 49.02236383597572 7.147722763281276 -1 -2 1
2222 1 15.420040442737147 12.340196900139597 2.123249802336954 0 2 1
1555 1 3.972869649441363 1.2311246474144697 5.92122795043592 1 0 0
4489 1 7.61264546339479 4.050444167245152 4.979820966465165 0 1 0
564 1 13.1042022620078 4.525034735817333 10.248778016092864 0 1 -1
3577 1 12.424172644744022 2.338065540615675 6.082631144177643 1 0 1
3298 1 4.6592082508358565 5.129827132761377 11.134943714906722 1 0 1
1605 1 15.474764762836731 41.939579853727885 24.08381139376191 0 0 -1
4393 1 5.860559698043733 4.948702523523099 7.545500113426419 0 -1 1
2367 1 6.530623857483151 9.732693638832046 9.655924049955605 1 0 0
722 1 13.665507414815524 5.657377231003663 7.867513248504049 0 0 0
854 1 9.446005500994433 7.800052052212602 6.926102345119864 -1 1 0
2068 1 16.38312950672125 6.066133173204589 7.085568925037098 1 1 0
50 1 5.408184845371645 44.94642147807319 21.009751519380256 0 -1 1
313 1 3.0335548160815704 10.731266600400746 7.675583591500415 0 -1 -1
4090 1 5.086770520566578 14.227628651137552 9.079960433279185 0 0 1
3843 1 4.707392566894821 11.435087006404004 9.87867361199198 2 -2 1
1338 1 12.071280258006283 7.020597224049334 11.541878967491858 -1 0 -1
3259 1 12.38418744907977 8.159126920330364 7.150543363362512 -1 -1 -1
3580 1 1.7214534882680517 10.01477192010781 1.3233828272451909 1 0 1
3135 1 1.4527251717493601 14.00905476315157 9.892511365441413 0 0 0
773 1 2.6204800112879707 16.52000007710568 9.1206057757823 0 0 -1
1778 1 7.67511364269575 19.283567013715412 6.2162144851086145 1 0 1
678 1 9.7400238767325 10.800548555919727 6.797622197414407 1 1 1
3120 1 10.868944275779997 45.61660189647286 1.8799638567436034 0 -1 1
976 1 15.242691690317583 16.695285073564424 7.623469257061523 0 0 0
138 1 10.500923787211827 42.18884123021339 23.126097607364745 1 -1 -1
4386 1 4.808124142219148 19.451033903762497 9.202253423674094 1 1 0
3376 1 7.597385146933008 18.562968225426303 8.582910496454039 2 0 -1
302 1 10.193112170046119 18.801137023069643 4.98129729454018 1 0 0
4051 1 12.204274383104831 17.912774318877467 6.86587449293938 1 1 0
4136 1 3.234435727342178 21.784152760944387 9.530407528932784 0 1 0
1873 1 16.42814425546441 45.14317515219361 17.407545759684844 1 0 -1
1043 1 6.988098873140975 28.17580477678294 10.586828796896842 0 1 0
785 1 9.042410224193654 22.068760922024648 6.168651766048884 1 1 0
3981 1 11.667520210174752 23.094038472695942 12.751874775496969 0 1 1
561 1 13.300633275533686 22.51032864713487 6.556924578491964 0 0 0
2785 1 3.2701732468771363 27.305803052186633 11.331415411497387 0 1 0
4469 1 3.153803550080346 21.771346545310962 0.7245787881413094 0 0 1
4490 1 4.6729251652944575 26.236119453075375 7.193327092624467 0 1 0
1381 1 10.310842522952486 29.630851320543982 8.872147450902636 0 0 0
3106 1 8.362248649657129 24.871941271127476 7.008860668950417 0 1 2
2740 1 11.199584958054636 24.15914159692246 9.996781630772798 0 -1 0
1947 1 15.975577897467335 22.745052812619488 7.723073244185239 0 0 1
3507 1 16.84496424692128 24.730576298035466 5.917934586793632 0 0 -1
2756 1 9.896585414056467 36.37249989837446 23.107779660389443 0 0 0
1463 1 4.821919523437508 30.815183170058962 9.078688205576837 0 0 1
2783 1 7.332136021407241 29.55926713024757 7.99791193184712 1 -1 1
4 1 11.623742724279333 28.69832133299572 6.63352145418324 0 1 1
3261 1 17.555676527424144 14.575462798925425 17.215607166649022 0 0 0
2502 1 6.536638348621596 14.848732540202432 24.90470286156777 1 0 -1
1676 1 4.653624310269528 44.41399495227971 0.18350595912509196 0 -1 -1
3419 1 6.717194715739213 30.71979906484619 3.683251492041174 1 -2 -1
3312 1 11.251557913691782 31.916689672632653 6.04111344661639 0 -1 0
3080 1 13.211330226061337 33.581008708098246 8.106258536613128 -1 0 -1
440 1 13.055440334642872 27.495047826336062 11.34831056422447 0 0 0
1141 1 4.181789738336963 30.63717730889816 5.390900765068643 1 -1 1
66 1 0.9260295419282805 34.425690868290665 8.419527655279445 -1 -1 0
1655 1 9.431509614770617 31.93263055243552 2.9203281134945946 0 -1 0
373 1 7.984561949475184 32.420938107760705 9.359091311973259 1 0 1
533 1 10.657267893993806 34.43906060703247 5.914265322741609 0 -1 0
1911 1 15.719170545412013 36.31065339899357 7.2582515664634 1 -1 0
4342 1 0.3331968687380338 39.358689369754174 0.9933331505038036 1 0 1
354 1 0.5900660679651687 39.3952142243714 11.951139612797538 0 0 0
4429 1 5.739858954756296 33.8457506251876 8.491828666574024 0 1 0
717 1 12.577491506488903 36.450123011011506 11.736931474885514 -1 -1 1
198 1 15.236498203643803 38.88826061433826 6.206800332790895 1 0 0
3900 1 16.956358766944778 37.79698935928558 11.5303488695307 1 -1 0
753 1 0.175943254524704 5.6437275263242395 18.180110393825718 0 2 0
1963 1 5.8461762461174605 40.645523718139046 9.522257401828497 1 -1 0
2052 1 5.432412167023702 38.45556192007937 8.153050881749197 0 -1 -1
3083 1 7.520830743599253 35.82601903939343 6.623455331322591 0 -1 0
3906 1 8.382058747810783 37.668639401468305 9.105030595800015 1 1 1
2017 1 12.064164239348653 39.16237660368723 10.293230246178927 0 -1 0
3183 1 16.0255203649538 41.89478677960386 6.418747349727725 1 0 0
1339 1 8.326834807409792 42.448025605863535 8.778654669951933 0 -1 1
1765 1 6.858629343559709 45.6528759964036 7.418042044656304 2 0 -1
4311 1 11.01308195161318 36.391168485122876 8.015970316593329 0 0 0
1625 1 11.151947718731108 39.93744369436062 24.788291770460017 1 1 0
777 1 0.09685276125111769 11.834466914643507 0.1193037028185814 -1 0 1
3600 1 4.629703622639553 43.17625130232279 9.04146550197972 0 0 0
2755 1 7.316447073633775 43.099748909533666 4.65072876676041 1 0 1
2252 1 14.945995051689534 45.41515455525077 6.119206106130058 0 1 0
166 1 12.57002348824343 50.07323633138937 4.933617549873568 0 0 -1
2851 1 0.843012104260338 46.35151502004027 5.365132690303479 0 -1 0
1119 1 1.3614700256279089 49.99418419389426 10.586686604570842 -1 -1 0
2881 1 4.112469064845392 48.19807446654913 8.749350130385446 1 0 -1
1820 1 8.604744334714178 47.38670614164648 4.3358003707033514 0 0 -1
884 1 7.155015027662225 50.283457150806036 4.598446843544102 1 -1 1
3203 1 11.012300795704466 48.09126665623888 6.620053905303539 1 0 0
2237 1 13.515648162029226 46.840981555974345 8.745781801631365 1 -1 1
3039 1 3.5798059082171867 0.6795926597362145 11.61144921838143 1 1 1
4110 1 8.50767337170478 1.2778909285610685 12.413435491032729 1 0 0
1042 1 10.037408670862197 1.494498588336336 8.057859007316171 -1 1 0
2534 1 13.685628310518828 0.1319601151932872 9.30433559553274 0 1 2
2087 1 11.082497780855173 50.03350166116306 9.108460237106597 0 0 0
1698 1 14.910823878803056 49.42547819655116 11.363105937030921 0 0 -1
3001 1 13.87620924800063 34.53985407749835 0.6892965825867836 -1 0 1
2784 1 15.212207485291643 3.5977069937346253 12.786355507678943 -1 1 0
1428 1 7.600684236984314 3.2674864621312225 15.93604348348043 0 0 0
2153 1 7.073234088962778 4.32129842512363 10.092272197943688 1 1 0
2729 1 10.248025122190002 4.781426130145105 9.85946394943423 0 1 0
318 1 8.405169380783198 6.546349197958949 11.43569331528639 -1 -1 0
2404 1 10.110154846487559 8.363549877435675 10.150907090511257 0 0 2
369 1 13.849422699727683 8.8882517841262 11.563538865556644 0 0 0
4370 1 15.313823504251292 5.8475874104239915 11.732785157271424 1 1 0
4022 1 5.863203581407581 7.717249131488212 11.537794604833985 1 0 0
2138 1 4.432551547921128 12.539346180184275 12.828530541196066 0 0 0
1773 1 4.39484574551278 10.02937933474023 13.260724121863962 2 0 0
3229 1 14.044156697084343 10.707687465317543 13.499970576699345 2 -1 0
2976 1 13.164415465739152 9.97963576614934 9.064443321042411 0 1 0
1070 1 0.09710565558554596 5.631145810508045 2.443265647717189 2 -1 1
1323 1 1.7748933731485992 13.001336318374065 12.463394338616375 0 0 1
1471 1 8.374312577846624 15.77468855844174 8.5494560476504 0 0 0
1766 1 4.987304826401722 17.238573717731764 11.049214944295658 1 2 0
754 1 12.929329188382292 14.066496788835652 8.61879041631742 0 0 1
3339 1 0.7917211356579599 15.500125937320478 13.032876412905868 1 -1 0
469 1 0.33424064480883986 19.990365130836143 12.405781039879615 0 2 1
936 1 8.03696325007672 13.123829148322523 9.972769313815009 1 1 1
3924 1 12.042976204443605 19.194692762387323 9.14899758822336 0 1 1
2712 1 6.597411561236883 42.9405121866648 1.606029103243062 0 1 1
1378 1 6.992627745392743 21.99704327226272 8.817280396677242 0 0 0
267 1 6.493468746384013 22.049565982404662 11.523817972283737 0 0 -1
199 1 9.206045635050554 18.438591966231535 12.260276523125203 0 1 1
3529 1 9.55808172072259 19.979679776987343 10.063904955004443 1 1 -2
3610 1 11.164745905197595 22.03147460158261 8.298668679522022 0 1 1
2606 1 10.199182469369063 20.25647357121053 15.593434757099308 1 0 0
418 1 4.039736146925979 22.613006338535023 12.265412666289189 1 -1 0
1674 1 5.283746521224135 26.314915922522356 9.957471487001644 1 0 -1
1752 1 7.920600402748715 24.678226871096644 12.025874038102353 0 0 0
831 1 9.238209465449788 25.50025077519046 9.988191897707193 1 0 0
1127 1 13.457242175892805 25.67809195204882 9.330840806947718 -1 0 1
4008 1 1.686984235611351 25.72976251617592 13.775033187792058 1 -1 1
4591 1 8.600322857406121 26.057019829077703 14.713041018948907 1 0 0
3609 1 10.524143777410794 27.888731260902574 10.596673894014447 1 -1 1
4478 1 5.566645798988681 35.61080676378363 24.635437664833823 1 0 1
4098 1 13.261442508406322 25.79780454087185 13.113910528754994 1 -1 1
2503 1 6.356665923271932 38.638465364365956 18.977094462742418 -1 0 -1
2233 1 3.9705398234849785 30.24321843078881 11.507120839384763 1 0 0
1972 1 7.811805522709291 30.867852107782642 11.839272016814224 0 1 1
2954 1 9.590975158851027 28.599176354835414 13.305212229113977 0 0 0
4108 1 14.409807033248086 29.799923603263174 14.1695458347115 0 -1 0
4206 1 14.399619099783777 31.118341385374784 9.41326937061901 -1 0 0
3557 1 1.4395756294007522 31.649390040863803 12.743276706011116 1 0 0
2518 1 2.0033891391640792 34.43648883118331 12.54637560587576 -1 -1 2
3350 1 10.52745221624311 31.80271497037702 13.019987717596873 1 0 1
2672 1 13.625363345801103 36.07507453283897 8.988307331223956 1 -1 2
2713 1 15.207351052713095 35.746208086741234 11.790455867014703 1 0 1
4400 1 14.86359426284588 29.56036400226013 11.447140360093861 1 0 -1
1208 1 3.0628643319461877 34.77551422463183 10.087377535941814 1 0 1
867 1 4.677942251943316 36.83044868361591 10.297294896250323 1 1 0
4435 1 11.096724485365407 38.08228111450827 13.59929048870803 0 -2 1
4362 1 12.962841539703252 39.32523045954966 7.883898268276101 -1 0 1
2581 1 1.3051536519558329 36.593423484836094 14.30563456563002 1 0 0
1294 1 4.664452927023184 38.67325179686496 12.584624408319627 0 1 1
3325 1 6.237505364531426 41.253536795056455 12.411297865768356 0 1 0
4272 1 7.901560076729368 36.71131200081621 11.66918016861583 1 -1 0
1705 1 0.3464004397224739 28.6613752953398 22.043617441373048 0 0 -1
3125 1 13.153679089940068 35.939598814857526 3.456568178930235 1 0 0
3533 1 2.5862960282904752 44.391077750533555 12.278796089857638 1 -1 1
2220 1 6.791678773285858 44.543813469900584 9.752019972024712 1 -1 -1
562 1 7.555641989868277 44.17280260138265 12.592393677661342 0 0 1
3139 1 7.898301415865777 47.05273380938747 11.531455945896852 1 0 -1
374 1 9.495661571552786 39.921097658451046 10.420066738341742 0 0 -1
2758 1 11.14200439367085 45.474360382327475 8.736493916842791 0 -1 0
2522 1 3.4789410828802043 46.83934690005968 11.989123605069107 1 0 1
3065 1 7.0544090481736506 47.96956454839343 8.78787310003292 0 0 0
3858 1 8.371182158389828 49.60518430189922 6.974715630566932 0 -1 0
2792 1 10.962952329281617 42.64590763725285 10.163777036969824 0 0 1
3894 1 14.119066037562176 42.10228779169594 13.34124570975748 2 0 0
3687 1 16.02204034385923 28.271898625465496 19.6284439355038 1 0 -2
1476 1 0.8853942989208035 20.931294604594513 10.037519400188904 0 0 1
4404 1 5.982867104946772 50.42239987465686 10.430150173891601 1 0 0
3757 1 10.995327574410938 46.51106361356645 11.19429547194132 0 -1 1
2273 1 10.842800550729702 44.03064281939372 12.608967638802444 -1 -1 1
54 1 14.987953634124334 46.78709739596456 11.454652421218759 -1 0 1
1630 1 10.184211042517662 33.63083410631298 24.36980576847704 0 -1 -1
1921 1 6.848995760921926 0.285468048801107 16.558289155324864 -1 -1 0
1361 1 7.817580188649494 1.9425449874431842 9.634580148001513 1 0 0
681 1 12.824498567884476 49.81519070284193 13.064491739457873 0 -2 0
1622 1 3.8395390645240104 48.88716554991068 13.821479401300422 1 -1 0
481 1 0.29325742217138173 25.204001139079033 24.198103995448385 0 -1 -2
211 1 4.951492978604611 5.5943090878017125 16.37056173711702 0 1 0
2371 1 10.270730756773869 2.969424421088159 13.285061927589236 0 0 2
1266 1 9.326160237498273 5.464488885684838 13.673181734455433 0 0 0
3234 1 11.986102668574127 1.9503303260250677 10.85473589453378 1 2 -1
590 1 15.366217995977971 4.469994492106316 15.584760169418875 -1 1 -1
4583 1 0.19397135373862678 23.806595258930894 2.810173055690866 0 1 2
3713 1 17.65343620401335 3.1026291964377086 15.849377052946048 0 0 -1
3901 1 7.732025580574664 6.686228209844817 15.92406211371093 1 0 1
2064 1 9.190752125617387 10.122154785901524 11.571664521379347 0 1 0
805 1 11.33620908309959 6.944154355511662 14.384770952506349 0 0 1
3014 1 0.5067355328507559 29.156080254759576 17.29389920032488 2 1 -1
4546 1 16.56848668253254 19.388418675271605 17.595234861557707 1 0 1
1083 1 16.818436966562537 22.899495230870084 18.54036638366626 0 0 1
3510 1 1.6548797408620681 10.602707025464271 15.423847869575653 1 -1 0
1799 1 1.6212611434004967 7.566319668849529 10.654196967321454 1 0 1
3159 1 1.2366583600761085 4.66312309093777 15.475319998728422 1 0 0
1281 1 6.129807375697765 8.541262815710928 14.787214137577385 2 2 1
4343 1 4.865174603235647 13.384452754669299 15.265164886491833 0 0 0
1010 1 10.059970933865541 9.034232900950135 15.760841948217571 1 2 -1
3063 1 10.470315006154372 12.37977514512709 11.669783868533752 1 -1 0
443 1 13.009962163882795 13.272709358761274 13.220041476998224 0 0 -1
497 1 0.22933282701273705 39.26332803101001 3.612773478425839 0 0 2
46 1 2.0679988666642446 17.744361361448757 11.92061138872581 0 2 -1
1181 1 2.055526625994912 14.959278591274495 15.786881538630285 0 0 2
3020 1 10.990931413876552 11.885218098817344 8.787154778148798 1 1 1
3788 1 15.754314043135302 14.103862374920928 12.509163122543544 1 0 0
2119 1 12.397674279565523 15.383217961397637 10.962733137541516 0 1 1
3278 1 3.714515580363456 17.169246374762583 16.07456116952732 1 0 0
3086 1 3.452684603746985 18.84182598505782 13.82132298677824 1 -1 0
2123 1 6.109135029849712 14.635461869413668 11.931431506948295 1 -1 0
216 1 8.799342142202399 14.314713006555206 13.121828412575825 0 0 0
2596 1 13.296885976279386 17.40512660565933 12.625828267373468 0 0 0
1915 1 9.74704873156654 16.065839727447788 11.156333752188345 -2 0 0
917 1 14.652783234196395 40.649032615360746 10.998827030155518 -1 1 1
923 1 3.837444433952907 26.982268929022126 15.24452055274147 0 1 2
3354 1 3.9837836354660503 21.599152999304323 14.81040708302593 1 0 -1
2236 1 6.189696190428289 23.26674787899083 17.741595668570135 1 1 0
679 1 6.850727759424054 20.644623433036212 14.889386387498948 -1 0 0
3416 1 6.422414830068464 18.322021975907163 13.21369142497451 0 1 0
1585 1 11.441328459524343 18.16512602900183 14.058055010947587 -1 0 0
2722 1 13.90812239539866 19.129728188858802 11.153576749281896 0 0 0
2866 1 5.12241357594803 25.22869080810289 12.926883362807219 1 0 2
4174 1 6.298587584655322 29.0867003177179 14.48391055881321 1 -1 0
1313 1 8.869725721516561 22.343989265677923 13.35000096626933 0 0 0
1714 1 11.890868615887873 22.667450386379528 15.666193796873255 1 0 1
3028 1 15.157022955981196 28.317957569189353 17.002033719342993 1 0 1
3010 1 13.994671774535735 21.856701794037065 11.7676732374957 0 0 1
3255 1 2.163789836888663 26.04654318763984 21.275010345119643 0 -1 1
431 1 15.54508768999226 24.093241155249732 10.098613199068863 0 0 0
1755 1 5.09030807013909 31.43519698545278 13.339249871308757 1 -1 -1
4215 1 9.388647787090253 29.633141130103304 16.94696194219115 0 0 1
2255 1 11.787806299116198 29.293536524208847 15.263723596745997 1 1 1
2081 1 8.338632899396348 23.831932718292265 16.20085698896603 0 0 -1
1389 1 15.314924106699985 24.74824550339829 14.016937317619135 1 0 0
2803 1 7.490442356142834 27.778380386768188 16.75944265484648 0 0 1