LAMMPS data file via write_data, version 29 Oct 2020, timestep = 0

9216 atoms
1 atom types

0.46439771231001714 104.17700933660717 xlo xhi
-0.30907550950545876 50.49432203350081 ylo yhi
-0.30907550950545876 50.49432203350081 zlo zhi

Masses

1 18.015

Atoms # atomic

5 1 2.3848766283629077 2.018061634357541 1.9998420128941288 0 0 0
10 1 6.038178949559568 3.187007080525924 3.2964953720529295 0 0 0
13 1 7.909541579328686 1.6793546208868548 2.061576318994545 0 0 0
21 1 14.597492717480343 1.7871028333834706 1.7946550843329272 0 0 0
697 1 0.6004235669100594 31.452593554511832 19.10760489644933 0 0 0
27 1 3.324849805413622 6.719913068425696 3.522629496894003 0 0 0
8 1 4.921593853147805 5.274140315747205 1.8598835670292921 0 0 0
289 1 0.8950723409128093 25.615823276985726 6.257469100503032 0 0 0
35 1 9.48689403164654 6.600172165938495 3.581508732216598 0 0 0
16 1 11.390387741833361 4.830674590035489 1.905587531131524 0 0 0
18 1 12.565818289925913 3.2125873706246852 3.599372167033529 0 0 0
24 1 17.454458995358145 5.0782505279588595 1.8491447102554615 0 0 0
43 1 15.698378830758093 6.630507452378283 3.298779732621184 0 0 0
41 1 12.769806981584498 6.7215247969607 0.41916033197303193 0 0 0
132 1 10.236750566014532 34.87560293828999 0.66400832113488 0 0 0
29 1 1.7874847121227253 8.173653477408022 1.9918927643654682 0 0 0
860 1 16.196370703121495 22.29251880675623 24.993527121100318 0 0 0
34 1 6.554250908600409 9.651234622583896 3.698904142822673 0 0 0
37 1 7.84869563472898 8.27962477927991 2.1867675699855855 0 0 0
458 1 0.47865237141629163 22.08150653365055 15.948021042268412 0 0 0
45 1 14.325308125112677 8.307620551113839 2.009860105011489 0 0 0
42 1 12.794661943230398 9.68399259676735 3.6577718922672657 0 0 0
124 1 3.862689060172908 34.941362565197096 1.0399440553469497 0 0 0
129 1 6.63358594360147 31.93844451692579 0.8747226714841847 0 0 0
51 1 3.1933063945322364 13.074195358003971 3.6544242008355456 0 0 0
32 1 5.3187175566822855 11.39754174031251 2.3493607390814697 0 0 0
98 1 0.6160225470863445 28.694126878981216 3.775898032793092 0 0 0
59 1 9.875226693657623 12.737867393921508 3.801650827752782 0 0 0
40 1 11.12793638735273 11.408888580553588 2.0194953471010453 0 0 0
242 1 0.49902673626337735 15.896436616885316 9.799441057296837 0 0 0
48 1 17.752387840202516 11.250799024478658 1.9593656985779098 0 0 0
67 1 16.29311130157552 12.742540909419322 3.4286257756562994 0 0 0
53 1 2.1579104762999934 14.63395234888689 1.9803166405730974 0 0 0
595 1 15.597615845205722 50.41258429631057 22.461488634971467 0 -1 0
58 1 6.914757109716993 16.032119763204648 4.033659151964645 0 0 0
61 1 8.481225516241757 14.592900817584633 2.6032975295604786 0 0 0
69 1 14.468694646271564 14.138751411251421 2.068057505286947 0 0 0
66 1 12.8969216650477 15.864178035864166 3.7654552530299337 0 0 0
766 1 14.011594166920997 48.994587238267556 24.160299686344995 0 0 0
164 1 16.645212872277657 41.14037114599202 0.5478577980823035 0 0 0
75 1 3.992475001826921 19.55605021199228 3.599688673156086 0 0 0
56 1 5.15073372424491 17.477774443832445 2.402159829247209 0 0 0
83 1 10.181776962670149 19.339086544831144 3.5938825844348257 0 0 0
64 1 11.377951736981087 17.39568983540708 2.4559786716151466 0 0 0
91 1 16.59472994552866 19.194183555631525 3.361009738922592 0 0 0
72 1 17.855837029432323 17.65465607007446 1.9130374698690356 0 0 0
77 1 2.2674317735447724 21.093467441223428 1.993283520490082 0 0 0
52 1 3.8555073823628043 16.30593241293502 0.42311576862257994 0 0 0
82 1 6.755407411354093 22.230672709913573 3.264112102496907 0 0 0
80 1 5.242252960167059 24.007795898646812 1.8072367686628783 0 0 0
85 1 8.609114082607531 20.941603899380727 1.5522918798687637 0 0 0
93 1 14.36902987671076 20.642360841567722 2.04828172452102 0 0 0
90 1 13.367729629916125 22.497848857708316 3.6793038493964523 0 0 0
266 1 0.6099582866104301 22.099615780195165 9.66128268427667 0 0 0
99 1 3.7702424766236162 25.483312520189788 3.6366242190064466 0 0 0
101 1 1.9719179837799647 26.968007605338183 2.2033955226388837 0 0 0
481 1 0.6691412514439441 24.966041802417674 12.602976668608749 0 0 0
88 1 11.77566461937808 24.10321703638057 2.3110503566746052 0 0 0
107 1 9.783286019650598 25.67453624864494 3.1364479398509078 0 0 0
113 1 13.270837842891261 25.566948625930188 0.6638321125801916 0 0 0
96 1 18.195828113497853 23.789060566120234 2.4594763487316578 0 0 0
115 1 16.50896395100872 25.64135813528392 3.862949542439386 0 0 0
170 1 0.5997364761822293 47.189117292439846 3.302806290647422 0 0 0
104 1 5.021164552346383 30.023523685765888 1.9527186155493272 0 0 0
106 1 6.853017563102838 28.541280092317745 3.401132692132469 0 0 0
109 1 8.389321969653944 27.355936362752143 1.663728347351214 0 0 0
112 1 12.22131527711287 30.413862525585063 2.1465177691512207 0 0 0
626 1 0.6576524304603145 16.79067320262952 21.881542736671946 0 0 0
117 1 14.875825794673531 27.037691126386864 2.2850390179822115 0 0 0
114 1 13.159712778897875 28.289632808540112 3.5838286215099644 0 0 0
529 1 0.6512445957989264 37.95295648939728 12.982959421552792 0 0 0
123 1 3.7340230971718458 31.871497189021863 3.8792079144343017 0 0 0
125 1 2.243904725644719 33.39178926285213 2.100293577169352 0 0 0
133 1 8.615167025281186 33.55855968815321 2.136624473068389 0 0 0
131 1 10.161734838136022 31.994299826521654 3.5301441379504985 0 0 0
141 1 14.826536113178841 33.38990555754707 2.1568153389365188 0 0 0
409 1 0.6355768559373094 6.682889968280661 13.042877483942586 0 0 0
120 1 17.689924257051974 30.376111654914666 2.1976515343865657 0 0 0
139 1 16.038030029048485 31.74096961182563 3.6926446077020723 0 0 0
762 1 12.660920948593963 47.45126065020557 22.5448210519719 0 0 0
128 1 5.464088093188974 36.54072137804944 2.3843767951429027 0 0 0
130 1 6.863486620196693 34.94821242569088 3.7053247750427016 0 0 0
136 1 11.86372939953002 36.50779712064865 2.188332344344044 0 0 0
138 1 13.357331677692732 35.02524979198958 3.9105873353290423 0 0 0
144 1 17.99114870390337 36.324914871358686 2.0189034178283007 0 0 0
554 1 0.6753747621032156 47.00674768990554 16.40984071055144 0 0 0
149 1 2.078246316590264 39.3001894724067 2.4726729051805734 0 0 0
147 1 3.6109472377314034 37.89362987025801 3.868784576300138 0 0 0
721 1 0.603273759435365 37.820162343809045 19.460033507638737 0 0 0
157 1 8.44284818938207 39.96377646108763 2.1380070181643624 0 0 0
155 1 9.811878394297706 38.09876609332689 3.4508264771790094 0 0 0
165 1 14.82965879894075 39.796149912589954 2.0701170587113733 0 0 0
163 1 16.337267392954196 37.86286207650842 3.5116611374934634 0 0 0
57 1 6.94311923418219 13.233032410032148 0.9970265491751868 0 0 0
152 1 4.99663351030921 42.534889536277774 2.1420089893397005 0 0 0
154 1 6.936867799801328 41.65728993704539 3.522656520986763 0 0 0
160 1 11.68694799997448 42.85914005774315 1.9209046223564212 0 0 0
217 1 0.5463006839686932 6.6528340803440065 6.603419989684471 0 0 0
162 1 13.121289953664885 41.05127037254016 3.702020348054206 0 0 0
168 1 17.947889229516406 43.04020097583691 1.6900940573448067 0 0 0
1537 1 19.1005053961079 50.39532714304015 0.4137985804173354 0 -1 0
173 1 2.3829264122303724 45.726389909586416 2.124071089789033 0 0 0
171 1 3.7609357481521988 44.04593385189399 3.8354977914018815 0 0 0
181 1 8.181770186764481 45.995809075300116 2.0371502087641504 0 0 0
179 1 10.024110158756475 44.432579396251455 3.5840927331630748 0 0 0
189 1 14.066886654895834 45.94654235176101 2.229155554771024 0 0 0
180 1 9.797544469229917 47.244684697752035 0.42052359793841276 0 0 0
187 1 15.679797543768974 44.2854338261935 3.3916640477312296 0 0 0
3 1 3.445782660036011 50.03925518886814 3.607549928199294 0 -1 0
176 1 4.816730225795354 48.40160136197643 1.8452415692263233 0 0 0
178 1 6.657620923968521 47.474700892421424 3.4381540095527603 0 0 0
1753 1 19.24140592444268 6.373204658760859 6.701226590284819 0 0 0
184 1 11.26783528683417 48.723814778930404 2.0859059057031635 0 0 0
11 1 9.797553505684327 50.18493798542936 3.6539357780865505 0 -1 0
186 1 12.687373041422205 47.23220454495632 3.8542433657264166 0 0 0
19 1 15.817908052357824 50.21819526617678 3.453862283132147 0 -1 0
192 1 17.574582677591835 48.82083745953658 2.0179818856890788 0 0 0
241 1 0.7974311983614226 13.063092273477292 6.900554743185889 0 0 0
196 1 3.6622437929300955 3.4923266829141326 6.259119412706297 0 0 0
7 1 4.883177345286671 1.592893570701052 5.11858062999688 0 0 0
201 1 6.621054532608651 0.5073390339093566 6.879465690557679 0 0 0
204 1 9.57148771011616 3.640705349831258 6.52795846683631 0 0 0
15 1 11.250014320628686 1.6205942127178719 5.311163352739121 0 0 0
23 1 17.253805779480405 1.8073345259123583 5.137461365694478 0 0 0
212 1 15.546380227116398 3.1703183698852357 6.4031325376886885 0 0 0
361 1 0.497254150169469 44.111349089803355 6.78915729758335 0 0 0
758 1 7.930838626585106 49.0185436270707 23.82070071694542 0 0 0
6 1 1.7867011102134922 5.141310320594617 5.067158255452312 0 0 0
225 1 6.733560287908414 6.702952842685097 6.711716515133433 0 0 0
14 1 7.712928417968996 5.033455325103879 4.902299783694116 0 0 0
22 1 14.229903114773517 4.983836891413893 4.746914746682926 0 0 0
233 1 12.687279780432927 6.4027816838743865 6.471448961392849 0 0 0
122 1 0.5123841146738295 34.55585303994425 3.769778107944062 0 0 0
220 1 3.6118476288975128 10.012510149917352 6.949951127974293 0 0 0
31 1 5.054593666568095 8.121975892863542 5.218322066881114 0 0 0
228 1 9.499096877236376 9.675264040136115 6.8244253660568 0 0 0
39 1 11.169403559707561 7.994663796115916 5.316516582274764 0 0 0
47 1 17.72340386072989 7.8351395154553325 4.934291969875407 0 0 0
236 1 16.072075026784773 9.36230475141016 6.551263427119761 0 0 0
1825 1 19.105048372752446 25.171475913948317 6.428621342379948 0 0 0
30 1 1.9660019984602746 11.24802897227961 5.030924483889735 0 0 0
249 1 6.641531252592666 13.019644142039034 6.329601801607713 0 0 0
38 1 8.005784712799079 11.44514398298681 4.927848307978223 0 0 0
46 1 14.55888063862921 11.098121431564243 5.1346190041665976 0 0 0
257 1 13.033715938226885 12.810601062232632 6.633707154230162 0 0 0
698 1 0.8732155459268365 34.85694199656129 22.29950269278029 0 0 0
244 1 3.5539326699195937 16.503430130978693 6.660861421223174 0 0 0
55 1 4.9241992031069834 14.615146025926649 5.402057891212602 0 0 0
252 1 10.214568534319676 16.117490462317683 6.8637673058275155 0 0 0
63 1 11.424158575050264 14.396714898821736 5.226196527621963 0 0 0
71 1 17.416602676126175 14.149429741700368 5.3766854216319855 0 0 0
260 1 16.451057976641042 16.048082782025723 6.681167919380778 0 0 0
28 1 3.689933153707056 9.68294477087005 0.9763809673540884 0 0 0
54 1 2.2688381116006164 17.740847722000513 5.039256283643963 0 0 0
273 1 6.8517976039747746 19.10955939030455 6.648228156864014 0 0 0
62 1 8.568843909422784 17.71426240426921 5.271454004557741 0 0 0
70 1 14.773731466498042 17.791029172300558 4.993249835414173 0 0 0
281 1 13.161578435694153 19.425770033983223 6.447364365083967 0 0 0
2258 1 19.195729702021907 41.00678003754055 22.4125798251091 0 0 0
268 1 3.7152569920705996 22.52939869398946 6.669517400741834 0 0 0
79 1 5.66072454536255 20.754095833264188 5.082937052468023 0 0 0
276 1 10.205634427351603 22.548505281024244 6.492806219656688 0 0 0
87 1 11.658935422739477 20.84833436882264 4.946453010639793 0 0 0
94 1 14.615516752414107 24.083683470215096 5.237770735482244 0 0 0
95 1 18.239223936992484 20.76538714690935 4.889023594989298 0 0 0
284 1 16.15814566238015 22.218597142345214 6.5853623031580995 0 0 0
78 1 2.182157959145024 23.722076903521497 5.0497232823373395 0 0 0
60 1 10.216117673091857 15.625466507507687 0.953932682962038 0 0 0
297 1 6.862659462013255 25.21694946864604 7.096858525434968 0 0 0
103 1 5.401199729691191 26.782303113498454 5.2671766203770245 0 0 0
86 1 8.262104437945872 24.165640009120633 4.951145357124185 0 0 0
305 1 12.97284810290514 25.657966333087078 6.493675758800899 0 0 0
754 1 6.4311486418580435 47.087134073693875 22.70264342458332 0 0 0
292 1 3.9358707353904676 28.767713731196263 6.812814717419478 0 0 0
102 1 2.022452886692897 30.088412884714497 5.285119033173197 0 0 0
111 1 11.121723940886506 27.15876078595342 5.071951674608259 0 0 0
110 1 8.551932274836052 29.92970424854378 5.026268790464867 0 0 0
300 1 9.872945037529478 28.545490014955153 6.731470586897575 0 0 0
118 1 14.69329905321991 30.191606906231286 5.308480635967425 0 0 0
119 1 17.917999483589035 27.401387798816756 5.153221630488556 0 0 0
308 1 16.488160601852897 28.458308676793703 6.815848117658134 0 0 0
2449 1 18.982197329635436 37.999225840474864 25.086709533510746 0 0 0
321 1 7.033817598665276 31.52760096190058 6.5585471193071045 0 0 0
127 1 5.5464007312242405 33.28802049314666 5.111265756209329 0 0 0
135 1 11.82497020870112 33.30594578639008 5.009423645722199 0 0 0
329 1 12.953365361236413 31.6209950145381 6.63906296955039 0 0 0
143 1 17.598489522712892 33.285555038534284 5.240552410563002 0 0 0
126 1 2.2113341906095894 35.88757496697241 5.484274284148556 0 0 0
316 1 3.9091653320393878 34.2918249172636 6.860338761344913 0 0 0
134 1 8.758277269139684 36.38321976706091 5.206924576603778 0 0 0
324 1 10.18863799480373 34.75814379508432 6.774129875756426 0 0 0
142 1 14.731379835295115 36.550999725805525 5.257456836946995 0 0 0
332 1 16.333503281676357 34.83772249139754 6.78102780925509 0 0 0
434 1 0.5946774163075433 16.20229075812801 15.849927203309496 0 0 0
151 1 6.110473943039457 39.29100497868163 5.303667736844304 0 0 0
345 1 7.417733828083858 37.85859083775989 6.801042053896633 0 0 0
159 1 11.58858344909209 39.56597591307727 5.048307168537573 0 0 0
353 1 13.244545290457554 38.256913102277835 6.51120420086651 0 0 0
167 1 18.141811683603922 39.54857697797098 5.179114720157907 0 0 0
340 1 4.159863317612474 40.85340617461689 6.839910508488714 0 0 0
150 1 2.313306596251588 42.507677987449 5.542632159932848 0 0 0
158 1 8.341642791528258 43.19926841069238 5.222753438860983 0 0 0
348 1 9.805404143535306 41.344137873790714 6.665031658857249 0 0 0
166 1 14.621533298246058 42.55624576023803 5.340799159871902 0 0 0
356 1 16.462562347213947 41.19704992468023 6.460875721480613 0 0 0
177 1 6.299360732275547 44.589370425681196 1.032578503674035 0 0 0
369 1 6.501723228783198 44.37194100572796 6.727688665047984 0 0 0
175 1 5.2648218273552745 45.82506440119191 5.237279287756723 0 0 0
183 1 11.080650176910957 45.94271378362697 5.382855201631898 0 0 0
377 1 13.082813667474072 43.838440499326154 6.822516343579954 0 0 0
191 1 16.99324164056967 46.09818056368783 5.065413510122056 0 0 0
161 1 12.977032294800296 38.389299220745016 0.7202402662385793 0 0 0
364 1 3.518085330542301 47.20195803238421 6.880307890607543 0 0 0
174 1 1.8602789165873967 48.749250780839276 5.264098571633321 0 0 0
372 1 9.481442718183578 47.441838381389886 6.861951332169842 0 0 0
182 1 8.030210407756098 48.80015292553843 5.227578476538989 0 0 0
209 1 12.946904105788686 50.310373195345406 6.547115766396779 0 -1 0
190 1 14.291103367819716 48.61906345913172 5.02591840696941 0 0 0
380 1 15.600892387708118 47.745791041559215 7.285121436266037 0 0 0
81 1 6.7440711440774885 19.142861704235887 0.48271194350709523 0 0 0
197 1 2.0002782735307747 1.907229509347978 8.093879741432108 0 0 0
202 1 6.562167002803749 3.588302962381766 9.732352120090688 0 0 0
205 1 8.075399795287854 2.132902679988521 8.197775569171405 0 0 0
203 1 9.513576625453334 50.34217143742828 9.583692583562312 0 -1 0
213 1 14.480274989192148 1.8350131758776766 8.150559818704725 0 0 0
210 1 12.737865425101816 2.9403734038350566 9.936699510522214 0 0 0
17 1 13.012229450921284 50.30828030964753 0.5310812399338156 0 -1 0
219 1 3.337208224518409 6.9896057052843386 9.780911459177405 0 0 0
200 1 4.780978133490028 5.420438530399843 8.298641880959954 0 0 0
227 1 9.622169112803173 6.357692410954853 10.011810601371593 0 0 0
208 1 11.348383397200468 4.750475493716164 8.340802724211683 0 0 0
214 1 14.19906765630879 4.910560689761958 11.333055320558113 0 0 0
216 1 17.134074694544363 4.998811361781245 7.953514908278515 0 0 0
235 1 15.771435330093986 6.286604919148043 9.832483551941454 0 0 0
221 1 1.9986175138336273 8.418821897905401 8.282832760752509 0 0 0
226 1 7.014921322889627 10.26765902558 9.913233084650077 0 0 0
229 1 8.246458633792585 8.250717409008082 8.682041983544536 0 0 0
237 1 14.226850103119105 7.934164145018121 7.78035936935133 0 0 0
234 1 13.001498107698378 9.632265969388135 9.684451727273796 0 0 0
243 1 3.773473193629865 13.064372706191078 9.601628535071212 0 0 0
224 1 5.417399546560195 11.587082556604985 8.238235985558035 0 0 0
251 1 9.809846596735335 12.970643746423342 9.792639047811498 0 0 0
232 1 11.420250519258541 11.040188662755517 8.294962218283228 0 0 0
259 1 16.198710191267985 12.903441538701918 9.66566717114129 0 0 0
240 1 17.68685893489051 10.991095978576983 8.143086887119704 0 0 0
65 1 12.849996352250496 12.95937191227115 0.44434007929539865 0 0 0
245 1 2.257749412418883 14.87179603831737 8.22942696932374 0 0 0
250 1 6.644895540738081 15.805088479970236 9.645011319655337 0 0 0
253 1 8.273978542908502 14.3114019358705 8.191919780792217 0 0 0
261 1 14.553142715602263 14.423272100771067 8.186168319733344 0 0 0
258 1 12.808727604430276 16.191789996238782 9.99598391987323 0 0 0
267 1 3.487576117985358 18.858451109418525 9.640057153860129 0 0 0
248 1 5.334729923684934 17.693142288283397 8.398201570841028 0 0 0
256 1 11.92089780609757 17.756166220953936 8.011219924318416 0 0 0
275 1 9.886686479230542 19.374718334360736 9.197926891252132 0 0 0
264 1 18.000913221727632 17.520149675326966 8.194414612157304 0 0 0
283 1 16.58362481685598 18.99369040156344 9.956104937131421 0 0 0
287 1 17.652325716954635 21.041407440897594 11.662148419004795 0 0 0
738 1 12.924226417686459 41.02630421666508 22.33098407005011 0 0 0
269 1 2.241940060355823 20.8558716281547 8.017062753428744 0 0 0
274 1 6.837933795676249 22.00065463565254 9.632362890366503 0 0 0
277 1 8.529391234223967 20.96627341254504 7.660658068405533 0 0 0
280 1 11.737477058763545 24.002093709231726 7.946477714237498 0 0 0
285 1 15.070884236419529 20.648456354257156 8.365250390218606 0 0 0
282 1 13.174820497331398 22.13052219218328 9.906125281811278 0 0 0
25 1 0.5673385702063196 6.528263951738497 0.5176490815536848 0 0 0
291 1 3.3406807113795836 25.57497239669293 9.840963058252726 0 0 0
293 1 2.2095192290221592 27.099280051701335 8.146701748930266 0 0 0
272 1 5.091869804865305 23.625343172485767 8.534282871648902 0 0 0
299 1 10.171577547231804 25.412769416206626 9.845320389192638 0 0 0
301 1 8.390838399237284 27.078456702583782 8.13737129304229 0 0 0
303 1 11.57280630268662 27.06857923453081 11.561203544150999 0 0 0
288 1 17.856270749417522 23.699866823370623 8.238977624232202 0 0 0
307 1 16.168783927067338 25.57190873427764 9.761078821120476 0 0 0
1562 1 19.24353269155605 9.688437918754344 3.769984730615199 0 0 0
298 1 6.919768238675637 28.601214095856708 9.965939136392606 0 0 0
296 1 5.352003310187486 30.4533983226033 8.159463542775988 0 0 0
304 1 11.579361936663952 30.00969723952848 8.088894190099861 0 0 0
309 1 14.598390698972567 27.08197557682799 8.078805888768278 0 0 0
306 1 13.10766607573411 28.713741049468272 9.775492772135067 0 0 0
750 1 2.3389885888465467 48.79315950463648 23.797349843619504 0 0 0
312 1 17.959249392362544 30.172377984907435 8.408005127227067 0 0 0
315 1 3.669240938869617 31.97197817156246 9.910455528703961 0 0 0
317 1 2.212966771773666 33.40605477370046 8.45914531906414 0 0 0
325 1 8.2624861135582 33.23074815237561 8.124078351155942 0 0 0
323 1 9.672690565412243 31.64511923824121 9.67783610505174 0 0 0
333 1 14.7169343588848 33.221816042735284 8.211137894386113 0 0 0
331 1 15.950133241801915 31.355426977669396 9.82049866714467 0 0 0
1609 1 19.151563058498184 19.17245961678914 0.4590427026398048 0 0 0
320 1 5.68188080183067 35.8737602135982 8.044657492579908 0 0 0
322 1 6.961319320408032 34.77490206575223 10.186168263511977 0 0 0
328 1 11.534913768414919 36.527483462506325 8.14708748091969 0 0 0
330 1 12.851163629642677 34.73617685569833 9.672035335363663 0 0 0
336 1 17.87889817169511 36.42099272049626 8.421580869016092 0 0 0
341 1 2.284453269934036 39.57354192859192 8.184779067070664 0 0 0
339 1 4.090097383827674 37.63672749827852 9.820623974656197 0 0 0
349 1 8.638789195298214 39.722024210372055 8.62641813642367 0 0 0
347 1 10.012379490427536 38.03288542110083 9.771320345085174 0 0 0
357 1 14.842810547133734 39.51456586314232 8.079381285168648 0 0 0
355 1 16.00541127095628 37.75261586129095 10.172689910779539 0 0 0
68 1 16.067295923602607 15.690789233754167 0.6547165414090986 0 0 0
346 1 6.614376628416336 41.36356645618572 9.475408760469355 0 0 0
344 1 4.703729369799788 42.87840161014228 8.462992401129684 0 0 0
352 1 11.538939392239438 42.35717468108804 8.19689528217532 0 0 0
354 1 12.964579461648055 40.67086103223201 9.638755529386355 0 0 0
360 1 17.576133934788402 42.85742483370643 8.143179016563327 0 0 0
2282 1 18.94515033363903 47.41984561060261 22.879824724948985 0 0 0
363 1 2.9523545983012913 43.71575988314298 10.01054374099673 0 0 0
365 1 1.9902967308100221 45.59971112224831 8.538563019992614 0 0 0
743 1 17.496621388306302 39.36793257837448 23.717700683192053 0 0 0
373 1 8.14155049264074 45.81342107517101 8.323976385839503 0 0 0
371 1 9.7435459910323 44.17050280849391 9.639765470841843 0 0 0
381 1 14.333490905497465 45.832427108963955 8.50193548100327 0 0 0
379 1 15.917995256159042 44.24532870201389 9.825347340040226 0 0 0
195 1 3.2835627285099607 0.6063213926680112 9.782149784117165 0 0 0
370 1 6.449374114612812 47.41394479826789 9.898724016588378 0 0 0
368 1 5.008338139966137 49.05707680980154 8.257209043704492 0 0 0
376 1 11.506568671197108 48.8805914410253 8.26112168498895 0 0 0
378 1 12.601247256824042 47.25006953172975 10.271906882997941 0 0 0
211 1 16.15734283822604 0.711198922330941 10.011337719213499 0 0 0
384 1 17.388860620491865 49.06659442142602 8.554781272564107 0 0 0
739 1 15.995599242842975 37.886329939566025 22.108902130784564 0 0 0
388 1 3.7540956457188184 3.644525706220485 12.979570439186697 0 0 0
389 1 2.118142887202435 1.926845297985082 14.545865715409072 0 0 0
199 1 5.158608267273754 1.9767714785284447 11.389258642001444 0 0 0
207 1 11.338736469822912 1.1281699009092887 11.524589100321677 0 0 0
396 1 9.910746348191656 3.300246847828265 12.70645229349318 0 0 0
397 1 8.168104706006591 1.9864278587521433 14.475034867863513 0 0 0
404 1 15.695623812826861 3.363289117554011 12.938753199795528 0 0 0
215 1 17.445646310013235 2.1611740717714474 11.224491256130062 0 0 0
198 1 2.0811092729499694 5.1045999853553425 11.381033392466845 0 0 0
206 1 8.19389448414848 4.971642438908942 11.382749469065734 0 0 0
400 1 11.405966547438975 4.947590519687741 14.38480158809545 0 0 0
425 1 12.907709681271294 6.440462328499286 12.821737935213948 0 0 0
408 1 17.175721118064878 5.090950538067132 14.091689978023004 0 0 0
412 1 3.5732012870033807 10.158307524075221 12.875123966346052 0 0 0
413 1 1.9384646168409325 8.439256973572043 14.728269683436643 0 0 0
417 1 6.456954318577652 6.705300592602306 12.855590315056606 0 0 0
223 1 5.191634742121889 8.707427072659723 11.197545754993177 0 0 0
420 1 9.854656774759555 9.719764654499782 12.756739048713545 0 0 0
231 1 11.428673161200138 8.118586533420364 11.061006600515364 0 0 0
421 1 8.055350558623541 8.15486291846701 14.146654536776833 0 0 0
429 1 14.42737110205803 7.910361333808996 14.050242501004748 0 0 0
239 1 17.53156760968007 7.916877784704916 11.140929604439757 0 0 0
428 1 16.104569752100026 9.620540166746673 12.840408127855127 0 0 0
222 1 1.803431812356769 11.436200102620331 11.395918396504614 0 0 0
441 1 6.773173025852564 12.92697356020499 12.909439496414901 0 0 0
416 1 5.068551546718647 11.405099609812005 14.616919211922554 0 0 0
230 1 8.49992868227229 11.476544475568163 11.603327192808322 0 0 0
424 1 11.379687425834751 11.093332514546294 14.016587822623151 0 0 0
238 1 14.668636041804051 11.294460606882328 11.23425511079897 0 0 0
449 1 13.050291219542252 12.7776552788395 12.93140375489967 0 0 0
432 1 17.923946046396278 11.07116132939026 14.199082436279117 0 0 0
313 1 0.5879108799813109 31.713214106585788 7.064772175137118 0 0 0
436 1 3.4530471914533862 16.2877049245518 12.583823682967871 0 0 0
437 1 2.164021528895564 14.376144292479422 14.296803000597682 0 0 0
247 1 5.0798198777985775 14.274570004307956 11.41881462987172 0 0 0
444 1 10.148115922469655 16.539243824759847 13.012038573873179 0 0 0
255 1 11.356996666533187 14.486301105827078 11.454991706992331 0 0 0
453 1 14.77267957431464 14.001078100964003 14.297032463119109 0 0 0
263 1 17.893833508331006 14.553157014665468 11.127635177937309 0 0 0
452 1 16.224780449921642 15.729953219171723 12.930314668334375 0 0 0
246 1 1.7497543788128094 17.49958306475129 11.391141396638202 0 0 0
50 1 0.7787346949916689 16.27640130267529 3.5729597529552044 0 0 0
440 1 5.4646875317053185 17.61560447101027 14.222539758180496 0 0 0
465 1 6.6912463738680605 19.324967699565658 12.701134042788107 0 0 0
254 1 8.19116694435461 17.802075839323507 10.941362071778906 0 0 0
448 1 11.735726180170182 17.50004540947697 14.815239978623277 0 0 0
262 1 14.666312382956578 17.23196770204593 11.309141149186152 0 0 0
473 1 13.117395999728192 18.575763336352114 12.871071166602473 0 0 0
456 1 17.738091635348194 17.49548203588417 14.55060163817917 0 0 0
460 1 3.5872741647780915 22.17972196387461 12.648435384057224 0 0 0
271 1 4.985486449606842 20.594685769664334 11.178946340069032 0 0 0
279 1 11.644597276601619 20.372720229601555 11.068037978075258 0 0 0
468 1 9.752404020149342 21.789782637865187 12.58192563972443 0 0 0
469 1 8.209553606270742 20.635519218951266 14.305185725267982 0 0 0
477 1 14.159335815520661 20.329334697495344 14.532533473215514 0 0 0
476 1 15.848815726219042 22.34568894090133 12.827083871398386 0 0 0
579 1 3.5863679884621313 0.6382247619085182 22.42938459718834 0 0 0
270 1 2.3876144490072746 23.611747035184173 10.80643091370251 0 0 0
464 1 5.302491707161425 23.568247335705227 14.111775170325055 0 0 0
489 1 6.908391012540414 25.305362631752153 12.918269245058525 0 0 0
278 1 8.235585814946617 23.95796246445115 11.308345146529115 0 0 0
493 1 8.421129106365447 26.914552309034278 14.265743147876726 0 0 0
472 1 11.311000778276423 23.649474140070215 14.308255746071751 0 0 0
286 1 14.264339228389884 23.965650978404003 11.253938714543946 0 0 0
497 1 12.978667065897477 25.234823517255546 13.191616075357063 0 0 0
480 1 17.52912780744297 24.05993551401785 14.584185721261525 0 0 0
311 1 17.596827146474563 26.93095451771017 11.352527047772213 0 0 0
485 1 2.032291744738277 26.471370777079716 14.208360297432494 0 0 0
484 1 3.737156899546528 28.171073765042433 13.01226824874176 0 0 0
294 1 2.347117536972796 30.184393539772348 11.14529824296544 0 0 0
295 1 5.325117608938789 26.805222905648947 11.176113481999082 0 0 0
488 1 5.441497614292473 29.696445777418212 14.451508445929312 0 0 0
492 1 10.127707556230792 28.563741052346046 13.187786787563466 0 0 0
302 1 8.623181279072515 29.983492486151135 11.57612302360654 0 0 0
496 1 11.328746738804092 30.20296121081972 14.670210737500195 0 0 0
310 1 14.193703185145273 29.98238617066408 11.795294754615275 0 0 0
501 1 14.387347320263325 26.965125757826947 14.746113601975916 0 0 0
500 1 16.204443024459756 28.253523318261582 13.074308398651906 0 0 0
509 1 1.8206520825431594 33.329717723438264 14.525521885794664 0 0 0
319 1 5.460063682373958 33.2297498175558 11.793147069335044 0 0 0
513 1 6.951613387709763 31.655498887099927 13.05929428304492 0 0 0
327 1 11.449834360486033 33.1024138807886 11.345177580879405 0 0 0
517 1 8.402601649615203 33.08563597439917 14.847433361283572 0 0 0
521 1 12.775155066344444 31.72899372108867 13.175052915973783 0 0 0
525 1 14.753010429720929 33.35123786302144 14.683899290337992 0 0 0
335 1 17.263313644476927 33.066253903686444 11.57304666433371 0 0 0
504 1 17.66998382143885 29.97545228738489 14.48058960354045 0 0 0
318 1 2.310064571635184 36.15405680965961 11.395947382051013 0 0 0
508 1 3.526569563886022 34.55895853368773 13.050226818488898 0 0 0
512 1 4.943277822214659 36.49444542131455 14.592433556851983 0 0 0
326 1 8.39364798291112 36.327672031316254 11.496344909457363 0 0 0
516 1 9.925901775650765 34.75727320602732 13.017728389661718 0 0 0
334 1 14.506523804171994 36.224863914036646 11.347091932738763 0 0 0
524 1 16.04560455938102 34.95935924723764 12.987688589141001 0 0 0
528 1 17.708970108299535 36.2379481860967 14.771916869394396 0 0 0
731 1 9.683257966811853 37.755628459530556 22.034239703354924 0 0 0
343 1 5.284326167473723 39.68872342052083 11.204528523801137 0 0 0
537 1 6.689847158204892 38.11526169344229 12.864830000040845 0 0 0
351 1 11.601851694955648 39.304123060561494 11.334946866126767 0 0 0
541 1 7.910540868687735 39.517000478418254 14.86709216292534 0 0 0
545 1 12.857386589870991 37.5886811942448 13.182561622319561 0 0 0
549 1 14.207433700308009 39.52899970405639 14.951788110289796 0 0 0
359 1 17.695894534406897 39.54849977533236 11.740198926296436 0 0 0
532 1 3.3407388921621983 41.06896775637499 12.710310911360153 0 0 0
342 1 1.3232723257105015 42.30091102188621 11.458666430289814 0 0 0
536 1 5.047674715599358 42.79585321356197 14.312231629312146 0 0 0
350 1 8.420461300719023 42.48944024459733 11.299007258818005 0 0 0
540 1 9.592947292569034 40.77217769120443 12.755986659346652 0 0 0
544 1 11.168290794227062 42.929418983558634 14.251556745223397 0 0 0
358 1 14.512630673111515 42.30401242188108 11.357700607216502 0 0 0
548 1 16.18135967462906 41.101599631668975 13.530973724548646 0 0 0
552 1 17.785985872947897 42.79390272465376 14.734156563438688 0 0 0
557 1 1.8025236192534453 45.3820868997922 14.695315101531826 0 0 0
556 1 3.505135283426405 46.91452373999235 12.905376759117608 0 0 0
367 1 5.046006343905451 45.56221066839551 11.207559371359045 0 0 0
561 1 6.604602422199728 44.30424699394659 12.928882680152086 0 0 0
565 1 7.98055863333994 45.66552650773423 14.668093243313237 0 0 0
375 1 11.017475029765599 45.34544877271402 11.536724939523982 0 0 0
569 1 13.024459288162996 44.05380561740712 12.743132768565683 0 0 0
573 1 14.32493590783301 45.812990734837584 14.507079811040013 0 0 0