
# Create simulation box of size 50 x 50 x 50 Angstrom
#
lattice	            sc 1
Lattice spacing in x,y,z = 1.0000000 1.0000000 1.0000000
region 	            all block 0 ${X} ${YZ_LO} ${YZ_HI} ${YZ_LO} ${YZ_HI} units box
region 	            all block 0 53.4 ${YZ_LO} ${YZ_HI} ${YZ_LO} ${YZ_HI} units box
region 	            all block 0 53.4 0.4127979664983705.0 ${YZ_HI} ${YZ_LO} ${YZ_HI} units box
region 	            all block 0 53.4 0.4127979664983705.0 50.49432203350081.0 ${YZ_LO} ${YZ_HI} units box
region 	            all block 0 53.4 0.4127979664983705.0 50.49432203350081.0 0.4127979664983705.0 ${YZ_HI} units box
region 	            all block 0 53.4 0.4127979664983705.0 50.49432203350081.0 0.4127979664983705.0 50.49432203350081.0 units box
create_box          1 all
Created orthogonal box = (0.0000000 0.41279797 0.41279797) to (53.400000 50.494322 50.494322)
  3 by 1 by 2 MPI processor grid

# fill box with 4175 randomly distributed atoms
#
create_atoms        1 random 4608 63782 all
Created 4608 atoms
  create_atoms CPU = 0.001 seconds
mass                1 18.015

# Define potential
#
pair_style          sw
pair_coeff          * * /data/emrosky-sim/Freezing_Simulations/Melting/mW_fancy/mW.sw mW
Reading sw potential file /data/emrosky-sim/Freezing_Simulations/Melting/mW_fancy/mW.sw with DATE: 2019-02-27

# Run minimization
#
minimize            1.0e-8 1.0e-8 10000 1000
WARNING: Using 'neigh_modify every 1 delay 0 check yes' setting during minimization (../min.cpp:187)
Neighbor list info ...
  update every 1 steps, delay 0 steps, check yes
  max neighbors/atom: 2000, page size: 100000
  master list distance cutoff = 6.3065
  ghost atom cutoff = 6.3065
  binsize = 3.15325, bins = 17 16 16
  1 neighbor lists, perpetual/occasional/extra = 1 0 0
  (1) pair sw, perpetual
      attributes: full, newton on
      pair build: full/bin/atomonly
      stencil: full/bin/3d
      bin: standard
Per MPI rank memory allocation (min/avg/max) = 4.236 | 4.254 | 4.260 Mbytes
Step Temp E_pair E_mol TotEng Press 
       0            0    4770913.1            0    4770913.1      3403666 
     680            0   -52217.849            0   -52217.849     369.4472 
Loop time of 2.17317 on 6 procs for 680 steps with 4608 atoms

99.0% CPU use with 6 MPI tasks x no OpenMP threads

Minimization stats:
  Stopping criterion = max force evaluations
  Energy initial, next-to-last, final = 
      4770913.05196146  -52217.5026337265  -52217.8493826714
  Force two-norm initial, final = 1.0926756e+08 4.3174047
  Force max component initial, final = 57676550.0 0.9552613
  Final line search alpha, max atom move = 0.036771899 0.035126772
  Iterations, force evaluations = 680 1001

MPI task timing breakdown:
Section |  min time  |  avg time  |  max time  |%varavg| %total
---------------------------------------------------------------
Pair    | 1.8656     | 1.9565     | 2.0266     |   4.7 | 90.03
Neigh   | 0.044616   | 0.045785   | 0.04743    |   0.4 |  2.11
Comm    | 0.078634   | 0.14849    | 0.24141    |  17.1 |  6.83
Output  | 0          | 0          | 0          |   0.0 |  0.00
Modify  | 0          | 0          | 0          |   0.0 |  0.00
Other   |            | 0.02235    |            |       |  1.03

Nlocal:        768.000 ave         782 max         750 min
Histogram: 1 1 0 0 0 1 0 1 0 2
Nghost:        1705.83 ave        1725 max        1691 min
Histogram: 2 0 1 0 0 0 2 0 0 1
Neighs:        0.00000 ave           0 max           0 min
Histogram: 6 0 0 0 0 0 0 0 0 0
FullNghs:      26015.3 ave       26500 max       25090 min
Histogram: 1 0 0 1 0 0 1 0 0 3

Total # of neighbors = 156092
Ave neighs/atom = 33.874132
Neighbor list builds = 39
Dangerous builds = 0

# Add velocity/set timestep
#
velocity            all create ${TEMP} 120598 rot yes dist gaussian
velocity            all create 275 120598 rot yes dist gaussian
timestep            5.0

# Define output
#
compute	            1 all msd
thermo	            100
thermo_style        custom step temp press vol etotal ke pe c_1[4] density

# Neighbor lists
#
neigh_modify        delay 0 every 1 check yes

# Set fixes
#
fix                 1 all momentum 10 linear 1 1 1 rescale
fix                 2 all nve
fix                 3 all temp/csvr ${TEMP} ${TEMP} 500.0 928347
fix                 3 all temp/csvr 275 ${TEMP} 500.0 928347
fix                 3 all temp/csvr 275 275 500.0 928347
fix                 4 all press/berendsen iso ${PRES} ${PRES} 1000.0 modulus 20000
fix                 4 all press/berendsen iso -500 ${PRES} 1000.0 modulus 20000
fix                 4 all press/berendsen iso -500 -500 1000.0 modulus 20000

# Run 0.5 ns equilibration
#
dump                1 all custom 1000 eq.${NAME}.dump id type x y z vx vy vz
dump                1 all custom 1000 eq.liq_275K_-500atm_mW.dump id type x y z vx vy vz
run                 100000
Per MPI rank memory allocation (min/avg/max) = 3.504 | 3.507 | 3.510 Mbytes
Step Temp Press Volume TotEng KinEng PotEng c_1[4] Density 
     680          275    1658.3546    133935.69   -48441.387    3776.4628   -52217.849 1.9667222e-33    1.0291993 
     700    149.82436    1085.5573    135534.35   -48130.379    2057.4768   -50187.856   0.12720193    1.0170596 
     800    186.65449   -252.41607    137679.46   -46673.079    2563.2499   -49236.329   0.57041946    1.0012134 
     900    215.66843   -368.15385    138492.01   -45722.332    2961.6866   -48684.018    1.0187673   0.99533911 
    1000     236.3882   -210.38101    139027.92   -45059.582    3246.2227   -48305.805    1.4813968   0.99150239 
    1100    248.36328   -451.98706    139306.44   -44591.121    3410.6716   -48001.793    2.0293417   0.98952009 
    1200    254.54599   -654.48404    139670.79   -44226.207    3495.5763   -47721.783      2.77417   0.98693879 
    1300    261.44882   -486.23079    139757.63   -43910.238    3590.3699   -47500.608    3.6650367   0.98632555 
    1400    266.49256     -435.016    139791.64   -43765.891    3659.6336   -47425.525     4.636226   0.98608555 
    1500    265.54136   -512.38264    139509.28   -43577.425    3646.5711   -47223.997    5.7193067   0.98808132 
    1600    268.51539   -404.73833    139673.93   -43528.311    3687.4122   -47215.723    6.8627809    0.9869166 
    1700    269.71058   -603.49132    139828.01    -43497.36    3703.8253   -47201.185    7.9831503   0.98582906 
    1800    268.13263   -557.87731    139496.82   -43377.479     3682.156   -47059.635    9.1859488   0.98816958 
    1900    270.72608   -514.78877    139497.02   -43318.846    3717.7707   -47036.616    10.399455   0.98816818 
    2000    271.19648   -741.43971    139536.17   -43215.196    3724.2306   -46939.427    11.730678    0.9878909 
    2100    272.56688   -499.21023    139520.62   -43278.524    3743.0498   -47021.574    12.909194   0.98800106 
    2200    271.64638   -438.66856    139431.33   -43272.935    3730.4089   -47003.344     14.20647   0.98863377 
    2300    268.43338   -363.08316    139597.96   -43218.397     3686.286   -46904.683    15.548454   0.98745364 
    2400    274.86412   -533.05855    139741.52   -43212.116    3774.5968   -46986.712    16.574244   0.98643926 
    2500    276.36049   -707.85562    139677.87   -43231.844    3795.1459    -47026.99    17.857319   0.98688875 
    2600    275.80811   -354.83873    139796.36   -43124.333    3787.5602   -46911.894    19.298469   0.98605229 
    2700    276.37051    -243.4296    139936.07   -43094.886    3795.2834   -46890.169    20.924542   0.98506779 
    2800    277.08481   -538.49551    139721.71   -43198.092    3805.0926   -47003.185    22.000269    0.9865791 
    2900    271.74206   -401.14771    139377.06   -43168.893    3731.7228   -46900.616     23.09158   0.98901866 
    3000    279.27126    -372.2253    139386.54   -43129.264    3835.1182   -46964.382    24.660389    0.9889514 
    3100    278.36998   -427.65742    139311.33   -43139.659    3822.7414     -46962.4     25.94603    0.9894853 
    3200    277.78396    -545.1273    139196.01   -43159.625    3814.6937   -46974.318    27.097648   0.99030509 
    3300    273.73825   -460.19514    139195.82   -43179.192    3759.1357   -46938.328    28.199671   0.99030641 
    3400    277.54178   -289.09512    139249.25   -43160.833     3811.368   -46972.201    29.520824   0.98992646 
    3500    277.69593   -427.73724    139238.33   -43068.126    3813.4848   -46881.611    30.826187   0.99000409 
    3600    278.63964   -604.50516    139258.72   -43071.454    3826.4444   -46897.898    31.973291   0.98985917 
    3700    282.37277   -516.55821    139400.99   -43081.875      3877.71   -46959.585    33.378407   0.98884894 
    3800     276.7216   -289.69248    139495.47   -43067.367    3800.1048   -46867.472    34.612276   0.98817918 
    3900    276.31643    -782.6041    139655.57   -43196.312    3794.5407   -46990.853    35.862223   0.98704634 
    4000    274.28743   -543.46507    139467.36   -43226.601    3766.6774   -46993.279    37.100962   0.98837833 
    4100    273.64946   -459.96429    139546.98   -43215.861    3757.9164   -46973.777    38.463905   0.98781444 
    4200    276.36287   -448.78561    139548.07   -43212.415    3795.1785   -47007.594    39.689984   0.98780666 
    4300    275.80412   -580.51274    139354.11   -43155.186    3787.5054   -46942.691    41.078429   0.98918158 
    4400    278.38514   -522.75244    139253.16   -43158.499    3822.9495   -46981.449    42.475878   0.98989866 
    4500    272.06333   -387.25327    139238.58   -43130.144    3736.1347   -46866.279    43.964571   0.99000229 
    4600    279.92193   -610.80417    139177.25    -43171.43    3844.0536   -47015.483    45.470803   0.99043859 
    4700    273.44487   -508.41623     139330.3   -43222.342    3755.1069   -46977.449    47.088636   0.98935064 
    4800    272.38882   -478.23408    139347.27   -43183.007    3740.6046   -46923.612     48.31763    0.9892301 
    4900    282.52804   -500.94941    139396.28    -43129.14    3879.8423   -47008.982    49.554048   0.98888234 
    5000    275.50479   -484.91413     139208.9   -43218.835    3783.3949    -47002.23    50.826149   0.99021337 
    5100    275.81884   -610.80866    138872.46   -43188.191    3787.7075   -46975.899    52.397534   0.99261232 
    5200     271.3146   -386.18946    138840.13   -43272.154    3725.8526   -46998.007    53.722901   0.99284346 
    5300    271.03186   -543.95544    138896.28   -43269.764      3721.97   -46991.734    54.926591   0.99244211 
    5400    272.95344   -269.09727    139035.17    -43168.27    3748.3583   -46916.629    56.011224   0.99145068 
    5500    277.36134   -447.86884    139331.48   -43111.476    3808.8901   -46920.366    57.383506   0.98934224 
    5600    278.42119   -417.52527    139370.88    -43065.27    3823.4446   -46888.714    58.632335   0.98906255 
    5700    272.92213   -560.71272    139439.35   -43182.893    3747.9283   -46930.822    59.921398   0.98857688 
    5800    273.43523   -634.18042    139364.52   -43116.924    3754.9745   -46871.898    61.514777   0.98910767 
    5900    274.00288    -414.8746    139431.27   -43196.083    3762.7697   -46958.853    63.002318   0.98863414 
    6000     269.9298   -421.13115    139273.32   -43288.769    3706.8358   -46995.605    64.341768   0.98975535 
    6100    271.84998   -590.33899     139260.9   -43295.224    3733.2048   -47028.429    65.655204   0.98984365 
    6200    274.04436    -526.9351       139248   -43268.058    3763.3393   -47031.397    67.389031   0.98993532 
    6300    272.26639   -439.22298    139381.35   -43259.355    3738.9233   -46998.279     68.75856   0.98898821 
    6400    276.49795   -562.74456     139193.9    -43240.09    3797.0335   -47037.124    69.995654   0.99032008 
    6500    272.78743   -497.60292    139232.14   -43177.811    3746.0785   -46923.889     71.25643   0.99004809 
    6600    269.83653   -371.96921    139222.48   -43226.805    3705.5549    -46932.36    72.715801   0.99011677 
    6700    275.66581   -710.78231    139241.62   -43212.722     3785.606   -46998.328    73.699894   0.98998072 
    6800    272.33635    -729.4776    138988.32   -43304.717    3739.8839   -47044.601    75.306588   0.99178487 
    6900    274.60809   -514.64725    139279.75    -43266.49    3771.0808    -47037.57    76.795269   0.98970969 
    7000    279.45367   -377.55146    139440.78   -43136.792    3837.6232   -46974.416    78.160992   0.98856674 
    7100    272.28989   -806.57268     139530.9   -43249.333    3739.2459   -46988.579    79.516934   0.98792827 
    7200    272.40204    -484.7991    139331.24   -43251.424    3740.7861    -46992.21    80.724937   0.98934392 
    7300    274.93913   -495.32535    139182.45   -43281.482    3775.6268   -47057.109    81.866829   0.99040155 
    7400    274.65633   -460.28217    139061.42   -43338.863    3771.7433   -47110.606    83.034166   0.99126355 
    7500    275.46587   -554.80671    138993.35   -43291.229    3782.8603   -47074.089    84.570666   0.99174898 
    7600    272.40049    -392.7843    139327.52   -43229.745    3740.7647    -46970.51    86.081939   0.98937035 
    7700    268.98251    -501.0809    139303.82   -43165.514    3693.8271   -46859.341     87.41034    0.9895387 
    7800    274.73246   -336.31048    139218.59   -43193.539    3772.7887   -46966.328    88.418668    0.9901445 
    7900     269.7783   -796.12398    139048.49   -43285.915    3704.7554   -46990.671    89.417842   0.99135572 
    8000    274.12893   -436.01693    138591.27   -43308.087    3764.5007   -47072.587    90.369636   0.99462629 
    8100    280.58664   -476.61007    138749.89   -43203.313    3853.1818   -47056.495    91.799562   0.99348919 
    8200    276.75956   -551.34908    139134.21   -43223.272    3800.6261   -47023.898    93.017305   0.99074499 
    8300    274.06361   -775.56191    139075.24   -43206.245    3763.6037   -46969.848    94.363135   0.99116506 
    8400    271.37215   -429.92207    138844.45   -43252.128     3726.643   -46978.771    95.965235    0.9928126 
    8500    271.67334   -501.58012    138776.26   -43282.609    3730.7791   -47013.388    97.119234   0.99330045 
    8600    274.70706   -627.27231    138924.61   -43196.454      3772.44   -46968.894    98.534997   0.99223976 
    8700    274.39003   -608.54246     138735.7   -43148.556    3768.0863   -46916.642    99.870826   0.99359079 
    8800    273.23993   -364.65639    138852.18   -43119.956    3752.2924   -46872.248    101.29665   0.99275733 
    8900    272.28214   -345.09407    139036.69   -43151.091    3739.1395   -46890.231    103.04486   0.99143988 
    9000    275.91111   -472.92341    139257.75   -43072.547    3788.9746   -46861.522    104.63844     0.989866 
    9100    272.52857   -579.62778    139165.84   -43079.443    3742.5236   -46821.966    105.80963   0.99051976 
    9200    276.88246   -494.03412    139192.15   -43087.547    3802.3138    -46889.86    107.21413   0.99033256 
    9300    273.21562   -632.96594    139039.34     -43100.3    3751.9586   -46852.259    108.79358   0.99142094 
    9400    278.54163   -547.85667    138985.71   -43113.663    3825.0985   -46938.761    109.85504   0.99180352 
    9500    280.19485   -480.40251    138796.53   -43158.625    3847.8016   -47006.426    111.06976   0.99315533 
    9600    277.45403   -190.47009    139172.41   -43213.088     3810.163   -47023.251    112.48769     0.990473 
    9700    275.19798   -598.15444    139168.75   -43160.648    3779.1816   -46939.829    113.71053   0.99049907 
    9800    273.78518   -402.15309    139191.69   -43190.461    3759.7802   -46950.242    115.24525   0.99033584 
    9900    274.35864   -630.27205    139366.42   -43090.369    3767.6553   -46858.024    116.80448   0.98909419 
   10000    272.21726   -509.12615    139422.29   -43241.288    3738.2486   -46979.537    118.65548   0.98869786 
   10100    275.66831   -538.24467    138950.54   -43151.718    3785.6405   -46937.358    119.54826   0.99205454 
   10200    269.75879   -655.55893     139067.4   -43285.527    3704.4873   -46990.014    120.92551   0.99122092 
   10300    277.90268   -407.44349    138850.38   -43220.019    3816.3241   -47036.344    121.80782   0.99277014 
   10400    278.92328   -561.81853    138923.42   -43142.829    3830.3396   -46973.169    123.33425   0.99224821 
   10500     274.7093   -529.32322    138747.59   -43146.497    3772.4708   -46918.968    125.29148   0.99350565 
   10600    279.64931   -451.53726    138818.56    -43135.89    3840.3099     -46976.2    126.44479   0.99299778 
   10700    273.93429   -519.63301    139010.42   -43178.933    3761.8279   -46940.761     127.9988   0.99162721 
   10800    278.38186   -528.25056    138951.38   -43121.055    3822.9045   -46943.959    129.66142   0.99204858 
   10900    279.07798   -566.44861     139081.2   -43009.699     3832.464   -46842.163     131.1449   0.99112259 
   11000    276.68828   -444.51444    138945.82   -43050.455    3799.6472   -46850.102    132.71949   0.99208824 
   11100    277.82961   -522.27896     139177.9   -43103.593    3815.3206   -46918.913    133.92383   0.99043397 
   11200    279.32278   -572.51984    139273.79   -43077.817    3835.8258   -46913.643    135.67975     0.989752 
   11300    275.37454   -559.65592    139047.59   -43151.733    3781.6062   -46933.339    136.86578   0.99136216 
   11400    271.94106   -528.09261    138917.64   -43159.931    3734.4556   -46894.387      138.301   0.99228948 
   11500     276.3126   -467.48728    138899.57   -43303.809    3794.4882   -47098.297    139.82404   0.99241859 
   11600    264.76247    -721.8767    138788.29   -43361.786    3635.8749   -46997.661    141.22546   0.99321432 
   11700    279.05575   -523.27319     138761.6   -43262.008    3832.1587   -47094.167    142.83142   0.99340533 
   11800    276.38606   -554.54522    138979.81   -43218.152     3795.497   -47013.649    144.76399   0.99184564 
   11900    272.24275   -536.93147    138905.85   -43320.595    3738.5986   -47059.194    145.81353    0.9923737 
   12000    273.46195   -515.53847    139041.53   -43274.191    3755.3413   -47029.532    147.48882   0.99140535 
   12100    267.64505   -484.94677    139001.14   -43281.924    3675.4602   -46957.384    148.99553   0.99169344 
   12200    278.71762   -358.42976    138988.42   -43131.105    3827.5154   -46958.621    150.70197    0.9917842 
   12300    280.06753   -307.49729    139154.67   -43050.186    3846.0531   -46896.239    151.85261   0.99059931 
   12400    275.40297   -373.57846     139197.2   -43021.535    3781.9966   -46803.532    153.11367   0.99029659 
   12500    277.97915   -643.71233    139259.51   -43025.308    3817.3743   -46842.682    154.28352   0.98985356 
   12600    275.57638   -408.53102    139136.42   -43066.326    3784.3779   -46850.704     155.6626   0.99072921 
   12700    282.27521   -569.19348    139073.96   -43059.925    3876.3703   -46936.295    157.08537   0.99117415 
   12800    273.98057   -558.24815    139018.21    -43155.86    3762.4634   -46918.324    158.43801   0.99157166 
   12900    279.08195   -602.17643    139020.86   -43153.163    3832.5185   -46985.682    159.92837   0.99155274 
   13000    269.27565   -482.88628    139255.57    -43160.02    3697.8526   -46857.872    161.42849   0.98988156 
   13100    278.22329   -579.40107    139073.01   -43133.773    3820.7268   -46954.499    162.62368   0.99118096 
   13200    275.53113   -193.69492    139028.46   -43104.355    3783.7566   -46888.112    163.81774   0.99149858 
   13300    276.13687    -485.4477    139090.86   -43100.646     3792.075   -46892.721    165.04472   0.99105371 
   13400    278.24844   -390.53187    139132.28   -43157.092    3821.0723   -46978.164     166.4037   0.99075872 
   13500    271.92371   -343.08012    139410.19   -43171.411    3734.2173   -46905.628    168.08275   0.98878364 
   13600    276.93119   -418.64753    139174.19   -43172.555     3802.983   -46975.538    169.54362   0.99046034 
   13700    276.97435   -269.17702    139306.99   -43179.704    3803.5758    -46983.28    171.59058   0.98951618 
   13800    272.57974   -514.71477     139368.9   -43206.183    3743.2264   -46949.409    173.21202   0.98907657 
   13900    267.73958   -427.98386    139325.94   -43253.003    3676.7584   -46929.761    174.11088   0.98938159 
   14000    271.27083   -588.33948    139249.33   -43315.703    3725.2515   -47040.955    174.98387   0.98992592 
   14100    270.98567   -563.29496    138994.31   -43268.145    3721.3357   -46989.481    175.72431   0.99174214 
   14200    272.60514   -494.22623     138853.5   -43193.438    3743.5752   -46937.014    176.88119   0.99274787 
   14300    270.45865   -476.35575    138857.08    -43227.63    3714.0982   -46941.729    178.26054   0.99272231 
   14400    275.08918   -491.14624    138874.19   -43246.751    3777.6874   -47024.439    179.62095   0.99259996 
   14500    275.91165   -558.34645    138914.65   -43271.192    3788.9821   -47060.175    180.70524   0.99231086 
   14600    276.38881   -504.82196    139235.43   -43156.399    3795.5348   -46951.934    182.23132   0.99002474 
   14700     274.0472   -310.92873    139356.13     -43139.2    3763.3783   -46902.578    183.21548   0.98916724 
   14800     274.0941    -523.2356    139323.39   -43162.438    3764.0224    -46926.46     184.8515   0.98939971 
   14900    273.00289   -576.76657    139059.03   -43157.685    3749.0373   -46906.722    185.96874   0.99128059 
   15000    273.92611   -266.12616    138825.62   -43228.828    3761.7155   -46990.544    187.11323   0.99294728 
   15100    274.25615   -529.66157    138951.72   -43229.328    3766.2477   -46995.576    187.94726   0.99204612 
   15200    274.15493   -368.07011    139080.23   -43252.795    3764.8577   -47017.652    188.88941   0.99112949 
   15300    276.07646   -589.22796    139086.19   -43183.394    3791.2454   -46974.639    190.01774   0.99108702 
   15400    275.76226    -523.4707    138986.28    -43134.23    3786.9306   -46921.161    190.86688   0.99179943 
   15500    277.34557   -640.87526    138671.49   -43132.496    3808.6735    -46941.17     191.4504   0.99405091 
   15600    273.32296   -659.50363       138797   -43163.504    3753.4326   -46916.937    192.64217   0.99315196 
   15700    276.66375   -393.92631    138600.47   -43231.286    3799.3104   -47030.597    193.44091   0.99456027 
   15800    275.93819   -495.71324    138682.15   -43234.906    3789.3465   -47024.252     194.7966   0.99397447 
   15900    271.28682   -470.75163    138838.37   -43163.359    3725.4711    -46888.83    196.48406   0.99285603 
   16000    271.48505   -571.85647    138783.02   -43215.252    3728.1934   -46943.446    197.93405   0.99325207 
   16100    273.57508   -490.51682    138773.64   -43197.409    3756.8949   -46954.304    199.03895   0.99331914 
   16200    278.23771   -441.57089    139037.59   -43048.657     3820.925   -46869.582    200.75317   0.99143345 
   16300    280.49351   -561.96728    139207.93   -43046.369    3851.9029   -46898.272    202.56513   0.99022026 
   16400     280.3325   -478.22077    139163.58   -43016.671    3849.6919   -46866.363    203.81471   0.99053589 
   16500    278.72833   -450.83165    139059.09   -43003.681    3827.6623   -46831.343    205.18067   0.99128015 
   16600    277.43733   -442.13558    139285.29   -43102.343    3809.9336   -46912.276    206.56789   0.98967032 
   16700    271.98494   -435.79054    139028.67   -43136.592    3735.0581    -46871.65    207.67756   0.99149708 
   16800    275.90942   -128.55252    139273.89   -43139.633    3788.9515   -46928.585    209.24883   0.98975129 
   16900     278.2258   -382.81055    139281.29   -43123.693    3820.7613   -46944.455    210.15388   0.98969877 
   17000    275.34779   -418.30173    139624.27   -43118.631    3781.2388    -46899.87    211.94642    0.9872676 
   17100    272.62475   -309.14001    139607.34   -43143.228    3743.8445   -46887.072    213.30553    0.9873873 
   17200    280.48022   -340.15147     139653.3   -43070.216    3851.7204   -46921.936    214.94938   0.98706235 
   17300    278.47802   -566.91071    139605.87   -43003.704    3824.2251   -46827.929    216.98697   0.98739771 
   17400    272.36151   -408.92768    139374.94   -43095.523    3740.2295   -46835.753    218.51399    0.9890337 
   17500    276.14148   -605.51694    139260.96   -43102.593    3792.1383   -46894.731    219.83275   0.98984325 
   17600    270.82386   -294.52482    139213.25   -43180.429    3719.1136   -46899.542    220.85228   0.99018246 
   17700    275.66762   -488.81945    139171.28   -43192.609    3785.6309    -46978.24    222.40773   0.99048106 
   17800    276.82801   -553.56917     138961.6   -43178.455    3801.5661   -46980.021    223.47836   0.99197558 
   17900    271.25833   -580.09003    138967.16   -43233.043    3725.0799   -46958.123    224.90482   0.99193588 
   18000    271.04449    -521.3741    138918.03   -43318.461    3722.1433   -47040.605    226.38651   0.99228672 
   18100    274.59694   -550.63634    139101.28   -43321.464    3770.9277   -47092.392    228.31311   0.99097951 
   18200    278.79031   -567.92418    139287.24   -43182.807    3828.5135   -47011.321    229.99235   0.98965645 
   18300    272.57952    -629.3911    139250.63   -43243.494    3743.2234   -46986.717    230.92719   0.98991664 
   18400    268.74585   -446.82627    139176.88   -43305.732    3690.5771   -46996.309    231.98959   0.99044118 
   18500    275.33717   -414.00731     139003.3   -43235.728     3781.093   -47016.821    233.22744     0.991678 
   18600    276.52714   -393.50915    139143.62   -43192.415    3797.4344   -46989.849    234.27503   0.99067792 
   18700    274.72686   -430.22833    139094.61   -43120.146    3772.7118   -46892.858    235.67127   0.99102704 
   18800    275.57852   -503.51581    139088.04   -43114.434    3784.4073   -46898.841    237.01546   0.99107386 
   18900    276.53936    -456.3689    138963.55    -43177.59    3797.6021   -46975.192    238.29193   0.99196167 
   19000    274.23128   -510.74778       139179   -43212.332    3765.9063   -46978.238    240.27502   0.99042614 
   19100    272.83467   -362.75077     139367.4    -43251.19    3746.7272   -46997.917    241.66088   0.98908722 
   19200    275.06399   -670.41603    139243.76   -43206.744    3777.3415   -46984.086    242.28239    0.9899655 
   19300    273.18188   -392.40112    139228.79   -43199.871    3751.4952   -46951.366    243.33905    0.9900719 
   19400    272.70771   -521.50008    139332.03   -43200.558    3744.9837   -46945.542    244.80766   0.98933833 
   19500     279.4453   -617.64086    139371.22   -43143.084    3837.5082   -46980.593    245.80745   0.98906012 
   19600    273.84178   -748.78534    139229.32   -43201.738    3760.5574   -46962.296    246.75429   0.99006814 
   19700    274.87424   -78.306114    139509.16   -43199.631    3774.7357   -46974.367    249.08407   0.98808217 
   19800    277.90839   -389.80749    139665.48    -43161.98    3816.4026   -46978.382    250.81119   0.98697626 
   19900    279.60967   -499.15011    139699.76   -43173.845    3839.7655    -47013.61    253.48344   0.98673408 
   20000    277.06281   -639.08078    139526.01   -43130.333    3804.7904   -46935.124    254.97019   0.98796288 
   20100     272.0717   -485.18793     139402.2   -43151.981    3736.2497    -46888.23       256.03   0.98884035 
   20200    275.54077    -685.1359    138897.35   -43084.366     3783.889   -46868.255    257.02809   0.99243446 
   20300    281.93414   -478.43782    139296.31   -43075.639    3871.6865   -46947.326    258.94543   0.98959202 
   20400     277.5459   -304.89024    139127.76   -43150.145    3811.4246   -46961.569    259.93458   0.99079086 
   20500    278.64987   -644.48214    139115.29   -43089.956     3826.585   -46916.541    261.15164   0.99087968 
   20600    276.09959    -389.5998    139159.26   -43126.971     3791.563   -46918.534    263.22168   0.99056663 
   20700    274.41743   -508.05865    139402.53   -43156.086    3768.4626   -46924.549    264.85945   0.98883799 
   20800    272.80619   -568.15488    139165.71    -43163.83    3746.3361   -46910.166    266.01701   0.99052067 
   20900    269.12888   -472.45717    139063.84   -43187.581    3695.8371   -46883.418      266.896   0.99124628 
   21000    277.82777   -714.02816     139229.2   -43132.091    3815.2953   -46947.386    268.10306   0.99006904 
   21100     273.8837   -412.11912    139359.21   -43188.593     3761.133   -46949.726    269.86055   0.98914538 
   21200    272.73831   -506.54994    139407.12   -43253.816    3745.4039    -46999.22    271.04975   0.98880543 
   21300    271.02409   -683.36414    139427.27   -43271.456    3721.8633   -46993.319    272.96686   0.98866254 
   21400     272.1404    -476.3583    139313.23   -43213.445    3737.1931   -46950.638     274.1138    0.9894718 
   21500    274.64336   -569.96717    139273.65    -43076.44    3771.5652   -46848.005    275.07371   0.98975305 
   21600    277.92079    -477.9368    139091.28   -43149.929    3816.5728   -46966.502    276.05653   0.99105074 
   21700    272.88532   -494.83761    139474.66    -43107.16    3747.4227   -46854.583    277.97615   0.98832661 
   21800    274.47185   -592.61154    139132.99   -43054.542    3769.2099   -46823.752    278.91893   0.99075363 
   21900    270.40927   -472.56855    139304.84   -43035.058    3713.4201   -46748.478    280.48525   0.98953145 
   22000    275.78458   -539.25812    139309.24     -43065.9    3787.2371   -46853.137    281.28386   0.98950015 
   22100    273.83441   -344.98842    139415.55   -43038.996    3760.4561   -46799.452    282.88773   0.98874561 
   22200     274.4208   -422.44905    139406.55   -43014.765    3768.5089   -46783.274    284.04918   0.98880946 
   22300    279.45704   -659.23554    139494.45   -43027.487    3837.6694   -46865.156    284.94466   0.98818636 
   22400    274.99892   -640.44519    139536.84   -43134.347     3776.448   -46910.795     285.7968   0.98788622 
   22500    277.61884   -668.22263    139212.83   -43124.753    3812.4263   -46937.179    287.23011   0.99018541 
   22600     276.5496   -428.89957    139279.47   -43139.657    3797.7428     -46937.4    288.62967   0.98971163 
   22700    280.48727   -568.24679    139119.33   -43194.139    3851.8172   -47045.956    290.12169   0.99085095 
   22800    270.96101   -599.71413     139317.2   -43250.026    3720.9969   -46971.023    291.40219   0.98944363 
   22900    276.48387   -532.31344    139432.38   -43272.089    3796.8401   -47068.929    293.19754   0.98862627 
   23000    280.15538   -452.47916    139387.03   -43164.396    3847.2595   -47011.656    294.70953   0.98894796 
   23100    279.38477   -398.72155    139401.48   -43186.176     3836.677   -47022.853    295.96607   0.98884546 
   23200    276.42897    -676.4201    139281.14   -43206.533    3796.0862   -47002.619    296.87585   0.98969983 
   23300    277.32459   -559.13339     139137.6   -43252.177    3808.3854   -47060.562    298.31077   0.99072084 
   23400    271.05622   -656.89811    138931.75   -43289.693    3722.3044   -47011.997    300.15733   0.99218872 
   23500    272.56695   -569.42665    138918.27   -43206.798    3743.0507   -46949.849    300.92766   0.99228501 
   23600    272.91831   -489.59514    138961.65   -43241.185    3747.8758   -46989.061    302.37524   0.99197524 
   23700     273.1815   -568.57343     138745.1   -43256.584      3751.49   -47008.074    303.15187   0.99352346 
   23800    272.71975   -608.63508    138809.52    -43224.54     3745.149   -46969.689    304.35621   0.99306243 
   23900     275.5251   -429.68845    138791.86   -43161.025    3783.6737   -46944.699    306.03104    0.9931888 
   24000    280.08647   -439.04183    138824.42   -43097.951    3846.3132   -46944.265    307.12543    0.9929558 
   24100    273.65963   -341.91811    138992.86   -43097.646     3758.056   -46855.702     308.2963   0.99175247 
   24200    276.20296   -458.94862    138939.62   -43009.386    3792.9825   -46802.369    309.54447   0.99213256 
   24300    278.79836   -492.97991    138782.42   -43047.875    3828.6242     -46876.5    311.02502    0.9932563 
   24400     275.2465   -491.92356    139147.22    -43022.83    3779.8478   -46802.678    312.98385   0.99065233 
   24500    280.11213   -534.62079    139210.32   -43100.063    3846.6655   -46946.729    314.93091   0.99020329 
   24600    274.45802   -561.59648    139129.55   -43122.209      3769.02   -46891.229    316.56101   0.99077816 
   24700      275.078   -417.28281    139317.53   -43079.668    3777.5339   -46857.202    318.35215    0.9894413 
   24800    279.96473   -547.55457    139530.08   -43055.183    3844.6414   -46899.825     320.5476   0.98793403 
   24900    273.60233   -424.21859    139273.02    -43179.28    3757.2692    -46936.55    322.08725   0.98975748 
   25000     271.7335   -717.62903    139046.84   -43186.854    3731.6053    -46918.46    323.67952   0.99136752 
   25100    280.49644    -471.4732    138751.79   -43146.225    3851.9432   -46998.168    324.75172   0.99347557 
   25200    273.66101   -355.31581    138858.81   -43192.378     3758.075   -46950.453    326.46562   0.99270993 
   25300    277.00022   -388.46697    139041.52   -43215.853    3803.9309   -47019.784    327.96732   0.99140539 
   25400     272.6277   -412.61069    139191.39   -43200.611     3743.885   -46944.496    329.95865   0.99033797 
   25500    272.98468   -561.59154       139214   -43209.689    3748.7873   -46958.476    331.20052   0.99017714 
   25600    270.26064    -543.6518    139116.67   -43255.836    3711.3791   -46967.215    332.44331   0.99086985 
   25700    270.77953   -452.74276    139157.84   -43263.004    3718.5048   -46981.509    333.99191   0.99057671 
   25800    273.63526   -667.33854    139100.89    -43267.21    3757.7214   -47024.932    335.45213   0.99098226 
   25900    266.64059   -614.52809    139076.05   -43356.289    3661.6664   -47017.955    337.00894   0.99115926 
   26000    273.78839   -396.16165    139178.37   -43203.129    3759.8242   -46962.953    338.86874   0.99043058 
   26100    274.98891   -577.59619    139146.69   -43258.815    3776.3104   -47035.125     340.3186   0.99065611 
   26200    277.06625   -564.66457    139224.92   -43178.149    3804.8377   -46982.986     341.8962   0.99009948 
   26300    279.26377   -714.06247    139229.97   -43121.647    3835.0154   -46956.662    343.41616   0.99006353 
   26400    277.41362   -454.23348    139002.03   -43196.666     3809.608   -47006.274    344.09194   0.99168706 
   26500    276.93152    -411.4172    139172.03   -43104.966    3802.9876   -46907.953    345.92526   0.99047571 
   26600    273.11635   -454.26756    139368.18   -43104.152    3750.5954   -46854.747    347.88174   0.98908169 
   26700    278.75289   -363.88089    139517.04   -43086.025    3827.9996   -46914.024    349.29295   0.98802641 
   26800    278.30209   -492.97248    139725.53   -43076.798     3821.809   -46898.607    351.46379   0.98655214 
   26900    275.36696   -808.61486    139610.17   -43178.327     3781.502   -46959.829    352.41506   0.98736727 
   27000    272.73735   -406.03103    139446.88   -43225.757    3745.3907   -46971.148    353.82901   0.98852348 
   27100    276.42943   -379.47847    139503.37   -43215.627    3796.0925    -47011.72    355.51906   0.98812322 
   27200    270.85545     -559.103    139318.94   -43168.062    3719.5474    -46887.61    356.02995   0.98943131 
   27300     276.0943   -538.78599    139291.63   -43144.021    3791.4903   -46935.511    357.14741   0.98962525 
   27400    273.49962   -514.21885    139375.38   -43106.025    3755.8587   -46861.883    358.41617   0.98903063 
   27500    277.05715   -379.04674    139395.47   -43183.833    3804.7128   -46988.545    360.56009   0.98888809 
   27600    276.21689   -434.91928    139301.14   -43120.454    3793.1739   -46913.628    361.54884   0.98955769 
   27700    274.96524   -482.94748     139226.9   -43137.937    3775.9854   -46913.922    362.72157   0.99008535 
   27800    272.88159   -477.94253    139246.04   -43087.339    3747.3715   -46834.711    364.67105   0.98994928 
   27900     278.6047   -653.61074    139398.99   -43071.681    3825.9647   -46897.645     365.7679   0.98886309 
   28000    282.63072    -652.9486    139134.13   -42980.097    3881.2523   -46861.349    367.00689   0.99074552 
   28100    279.02595   -394.49632    138973.53   -43047.206    3831.7495   -46878.956     367.7597   0.99189045 
   28200    277.18465   -612.51035    138736.06   -43172.445    3806.4637   -46978.909    368.75084   0.99358821 
   28300    271.75356   -322.29845    138692.11   -43251.761    3731.8808   -46983.641    370.63514   0.99390312 
   28400    276.80808   -517.18993    139161.37   -43087.662    3801.2925   -46888.955    373.32708   0.99055162 
   28500    276.55098   -419.75243    139053.57   -43114.726    3797.7617   -46912.488    374.92936    0.9913195 
   28600    276.12907   -313.04169    139244.52   -43178.662    3791.9679    -46970.63    376.44306    0.9899601 
   28700    275.17916   -495.31179    139266.97   -43222.881    3778.9231   -47001.804    378.26341   0.98980054 
   28800    275.67835   -605.38824    139399.12   -43198.552    3785.7782    -46984.33    379.99883   0.98886217 
   28900    276.99365   -428.37229    139088.19   -43184.857    3803.8407   -46988.698    379.99867   0.99107274 
   29000    278.41446   -441.24554    139106.38    -43158.42    3823.3522   -46981.773    381.10449   0.99094317 
   29100    273.62977   -385.57847    139239.86   -43147.604    3757.6459    -46905.25    383.57166   0.98999319 
   29200    272.43276   -553.12354    139195.67   -43209.968     3741.208   -46951.176     385.0244   0.99030752 
   29300    269.64616   -403.98362    139198.42   -43221.299    3702.9406    -46924.24    387.70499   0.99028797 
   29400    275.61284   -405.95792    139025.53   -43169.481    3784.8787    -46954.36    388.63391   0.99151942 
   29500    273.39901   -547.98747    138974.05   -43215.736     3754.477   -46970.213    390.83023   0.99188675 
   29600    274.13702   -608.11912     138973.6   -43190.455    3764.6119   -46955.067    392.37718   0.99188991 
   29700    278.32902   -508.55695     139147.6   -43140.322    3822.1789   -46962.501    394.20379   0.99064962 
   29800    273.92433     -556.999    139339.02   -43127.619     3761.691    -46889.31    396.61659   0.98928872 
   29900    275.78008   -693.01011     139310.8   -43040.888    3787.1753   -46828.063    398.10495    0.9894891 
   30000    274.75983   -599.74401    139234.33   -43077.893    3773.1646   -46851.057    399.56168   0.99003253 
   30100    272.35591   -567.79375    138980.72    -43041.15    3740.1526   -46781.303    400.18707   0.99183916 
   30200    273.97365   -567.65723    138833.27   -43094.951    3762.3683   -46857.319    401.01633   0.99289253 
   30300    281.02893   -642.99239    139086.98   -43031.427    3859.2556   -46890.683    402.79748   0.99108137 
   30400     271.9239   -514.25445    139349.18   -43163.573    3734.2199   -46897.793    405.04233   0.98921655 
   30500    274.82984   -565.56032    139336.52   -43183.626     3774.126   -46957.752    405.36205   0.98930643 
   30600    273.74685   -697.33416    138735.29   -43171.097    3759.2538   -46930.351     405.7754   0.99359378 
   30700     272.3508   -471.71222    138903.38    -43199.14    3740.0824   -46939.223    408.31691   0.99239138 
   30800     274.0869   -503.22128     138873.7   -43178.623    3763.9235   -46942.547    409.70692    0.9926035 
   30900    271.89142   -426.13937    139161.57    -43153.36    3733.7739   -46887.134    412.14832   0.99055014 
   31000     273.7479   -289.12476    139057.52   -43068.986    3759.2682   -46828.254    412.63584   0.99129138 
   31100    272.66856   -515.24195    138910.52   -43226.303    3744.4461   -46970.749    413.49663   0.99234037 
   31200    271.06729    -502.8864    138802.21   -43262.881    3722.4565   -46985.337    414.09694   0.99311471 
   31300    270.89063   -387.57656    138962.66   -43142.375    3720.0305   -46862.405    415.01956   0.99196805 
   31400    268.17167   -527.72687    139094.69   -43247.011    3682.6921   -46929.704    416.89354   0.99102643 
   31500     282.7048   -508.77481     139241.7   -43179.347    3882.2696   -47061.616    418.08342   0.98998011 
   31600    273.93254   -425.95302    139238.27   -43168.716    3761.8038    -46930.52    419.55762   0.99000453 
   31700    272.95735    -600.5291    139300.93   -43181.048    3748.4119    -46929.46    420.98641   0.98955919 
   31800     277.0628   -715.43786    139179.01   -43113.638    3804.7904   -46918.429    422.10423   0.99042606 
   31900    274.28101   -390.46847    139205.97   -43134.289    3766.5892   -46900.878    423.43618   0.99023422 
   32000    281.15946   -488.69935    139225.92   -43060.836    3861.0482   -46921.884    425.66484   0.99009237 
   32100     273.3358   -522.11097    139122.97   -43110.336     3753.609   -46863.945    427.60527   0.99082502 
   32200    276.22849   -414.30774    139273.93   -43089.767    3793.3331     -46883.1    430.06982   0.98975107 
   32300    275.09988   -471.50571    139346.78   -43114.355    3777.8344    -46892.19    432.22479   0.98923359 
   32400    277.97714   -659.83674    139155.13   -43052.302    3817.3466   -46869.648    432.70249   0.99059598 
   32500    274.41942   -599.12089     138884.3   -43148.093    3768.4899   -46916.583    433.76451   0.99252773 
   32600    277.01124   -630.87192    138835.94   -43182.144    3804.0823   -46986.227    434.49272   0.99287341 
   32700    272.15628   -438.91341    139029.71   -43149.933    3737.4111   -46887.345    436.34087   0.99148963 
   32800    273.83029   -338.72683    139187.91   -43203.661    3760.3997    -46964.06    437.60535   0.99036269 
   32900    267.22271   -594.82835    138986.32   -43304.303    3669.6604   -46973.963    438.47125   0.99179916 
   33000    270.51168    -535.4534    138744.03   -43288.053    3714.8266    -47002.88    438.54714   0.99353117 
   33100    272.71364   -286.85972    138859.49    -43296.55    3745.0651   -47041.615    439.78087   0.99270502 
   33200    272.48733   -388.83715    139139.48   -43208.966    3741.9573   -46950.924    442.19529   0.99070744 
   33300    272.07859   -613.64937    139255.44   -43184.212    3736.3442   -46920.556    442.89217   0.98988244 
   33400    278.93533   -560.02595    139215.83   -43213.374     3830.505   -47043.879    444.03215   0.99016408 
   33500      279.405   -420.00767    139246.86     -43141.9    3836.9548   -46978.855    445.12502   0.98994347 
   33600    274.72492   -487.64216    139176.14   -43171.465    3772.6853    -46944.15    446.66906   0.99044649 
   33700    273.77625   -551.44808    139555.38    -43184.96    3759.6575   -46944.617    448.19034   0.98775497 
   33800    276.75349   -354.14658    139659.87   -43174.423    3800.5428   -46974.966    450.05866    0.9870159 
   33900     273.1959    -604.2827    139276.37   -43202.014    3751.6879   -46953.702    449.57731   0.98973366 
   34000    272.04347   -542.65533    139139.51   -43176.466     3735.862   -46912.328    451.47582   0.99070721 
   34100    268.42564   -591.55725    139011.07   -43231.642    3686.1798   -46917.822    453.67474    0.9916226 
   34200    271.06889   -315.70345    138932.55   -43206.962    3722.4785   -46929.441    455.72882   0.99218299 
   34300    276.18948   -328.09363    138913.14   -43166.542    3792.7975    -46959.34    457.97548   0.99232163 
   34400    277.81577    -526.9826    138854.71   -43049.861    3815.1306   -46864.991    459.25546   0.99273924 
   34500    275.86827   -703.62664    138880.13    -43034.39    3788.3863   -46822.776    461.23904   0.99255751 
   34600     275.8955    -625.2417     138954.4   -43059.738    3788.7603   -46848.498    462.06305   0.99202701 
   34700    272.82872   -495.63311     138834.8   -43155.467    3746.6454   -46902.113     462.9542   0.99288162 
   34800    272.44809   -450.19955    139133.18   -43181.359    3741.4184   -46922.777    465.09738   0.99075228 
   34900     272.2291    -345.2203    139003.78   -43178.906    3738.4111   -46917.317    467.12965   0.99167461 
   35000    275.62807    -519.8907    138853.43    -43193.07    3785.0878   -46978.158    468.36115   0.99274836 
   35100     274.7158   -415.29758    138768.22    -43176.55      3772.56   -46949.111    468.99837   0.99335799 
   35200    283.13828   -496.55357    138896.17   -43007.093    3888.2225   -46895.316    470.80677   0.99244286 
   35300    272.77882    -452.4978    138884.16   -43015.618    3745.9602   -46761.579    472.32272   0.99252868 
   35400    275.97603   -618.77408    138720.22   -43115.356    3789.8663   -46905.222    473.71763    0.9937017 
   35500    273.27965   -659.60386    138474.25   -43122.825    3752.8379   -46875.663    474.37128   0.99546678 
   35600    276.31694   -282.69424    138587.53   -43125.781    3794.5477   -46920.329    476.00877   0.99465313 
   35700    277.53488   -485.64375    138650.26   -43102.612    3811.2733   -46913.885    477.60768   0.99420306 
   35800    275.56208   -473.74087    138490.87   -43121.841    3784.1816   -46906.022    479.31418    0.9953473 
   35900    274.93859   -535.48655    138476.75    -43095.39    3775.6194   -46871.009    480.58935   0.99544882 
   36000    276.82626   -417.48118    138699.78   -43094.339     3801.542   -46895.881    482.61283   0.99384813 
   36100    270.95064   -489.30567     138986.2   -43142.183    3720.8545   -46863.038    484.96576   0.99179999 
   36200    276.48692   -731.19804    138842.61   -43108.961    3796.8821   -46905.843    486.61882   0.99282573 
   36300    275.76136   -444.56297    138838.25   -43126.105    3786.9182   -46913.023     488.2747   0.99285689 
   36400    277.03164    -461.4745    138726.15   -43088.473    3804.3624   -46892.836    489.84729   0.99365921 
   36500    281.98769   -406.71003    138548.18    -42997.04    3872.4219   -46869.462    490.85343   0.99493557 
   36600    279.40229   -612.55459     138523.8   -43098.049    3836.9177   -46934.967    492.67449   0.99511074 
   36700    276.84738   -547.78628    138534.77   -43118.759    3801.8321   -46920.592     495.1612   0.99503193 
   36800    270.00943   -521.91278    138515.06   -43212.319    3707.9293   -46920.248    497.59807   0.99517353 
   36900    268.17569   -456.88858    138507.23   -43248.478    3682.7473   -46931.225    498.96277   0.99522977 
   37000    274.34436   -477.51621    138685.29   -43168.034    3767.4591   -46935.494    500.67036   0.99395195 
   37100    269.87929   -487.71699    138692.04   -43199.278    3706.1422    -46905.42    501.54073    0.9939036 
   37200    271.95124    -427.4327    138690.97     -43171.1    3734.5955   -46905.696    502.47595   0.99391123 
   37300    273.16428   -427.54181    139061.34   -43159.993    3751.2536   -46911.247    504.39169   0.99126414 
   37400     272.3164   -580.45484    139149.16   -43226.394    3739.6099   -46966.004    506.63689   0.99063854 
   37500    270.41151   -421.65525    139056.77   -43247.751    3713.4509   -46961.202    507.69523   0.99129671 
   37600    269.52214   -556.53686    138954.59    -43189.15    3701.2376   -46890.387    509.62813   0.99202567 
   37700    274.23673   -417.79069    138726.54   -43202.974    3765.9811   -46968.955    510.30372   0.99365642 
   37800    269.69634   -358.95363     138695.9   -43229.259    3703.6298   -46932.888    510.91757   0.99387593 
   37900     273.3208   -353.26987    138817.99    -43238.58    3753.4031   -46991.983    512.46015   0.99300183 
   38000    271.31189   -415.05123    138982.92   -43208.676    3725.8155   -46934.492    515.01259    0.9918234 
   38100    274.19102   -646.07425    138856.49   -43219.494    3765.3533   -46984.847    516.50783    0.9927265 
   38200    272.66622   -743.51965    139052.45   -43274.941    3744.4139   -47019.355    518.87622   0.99132751 
   38300    272.68434   -680.86671    139161.12   -43338.563    3744.6627   -47083.226    520.82023   0.99055338 
   38400     272.7997   -467.19617    138940.77   -43374.945    3746.2469   -47121.191    521.14901   0.99212429 
   38500    270.36328   -495.33167     138993.4   -43435.339    3712.7886   -47148.128     522.5501   0.99174864 
   38600    271.82463   -494.41055    138894.13   -43314.165    3732.8568   -47047.021    524.30972   0.99245749 
   38700    271.99518   -358.32432    139003.27   -43246.237    3735.1988   -46981.435    525.27384   0.99167821 
   38800    270.34976   -442.27919    138924.19   -43149.207     3712.603    -46861.81    526.55917   0.99224273 
   38900    274.94337   -469.25603    138971.36    -43110.19    3775.6851   -46885.875    528.35325   0.99190597 
   39000    272.89596   -396.48974    138986.95   -43146.395    3747.5689   -46893.964    530.48136   0.99179471 
   39100    276.99106   -497.24066    139024.31   -43155.412    3803.8052   -46959.217    532.97944   0.99152817 
   39200    274.54328   -485.73134    138883.45   -43159.917    3770.1908   -46930.108    534.36293   0.99253376 
   39300    275.38426   -371.91436    139001.73   -43121.348    3781.7396   -46903.088    536.45677   0.99168925 
   39400    269.48814   -207.39876    139154.34   -43136.793    3700.7706   -46837.564    538.43361   0.99060161 
   39500    278.02366   -381.48996     139212.5    -43090.63    3817.9855   -46908.616    540.58792   0.99018778 
   39600    279.02134   -357.08921    139312.67   -43096.644    3831.6863    -46928.33    543.26859    0.9894758 
   39700    274.49131     -354.137    139464.44   -43170.534    3769.4772   -46940.011    544.41932   0.98839902 
   39800    276.01041   -538.55162     139519.2   -43167.648    3790.3384   -46957.986    546.18783   0.98801111 
   39900    267.48569   -675.65268    139410.07   -43293.926    3673.2719   -46967.198      547.674   0.98878448 
   40000    274.41848   -555.87478    139124.67   -43251.839     3768.477   -47020.316    548.61049    0.9908129 
   40100    272.66506   -356.46291    139626.54   -43193.715     3744.398   -46938.113    551.18234   0.98725153 
   40200    274.30922    -442.5181    139748.11    -43157.05    3766.9765   -46924.027    551.83824   0.98639268 
   40300    277.28812   -655.67121    139886.49   -43090.556    3807.8846    -46898.44    554.14829   0.98541697 
   40400    277.52605   -398.82994    139706.62    -43133.15    3811.1519   -46944.302    554.70226   0.98668565 
   40500    274.15411   -517.40002    139674.12   -43166.084    3764.8465    -46930.93    555.20496   0.98691523 
   40600    274.79865   -540.61878    139557.37   -43137.316    3773.6977   -46911.014    556.59093   0.98774086 
   40700    275.69731   -533.34867    139276.87   -43176.927    3786.0386   -46962.965    556.81441   0.98973016 
   40800     269.6192   -313.27154     139210.5   -43183.858    3702.5705   -46886.428    558.44173   0.99020199 
   40900    273.24696   -429.22294    139135.16   -43196.148     3752.389   -46948.537      560.386   0.99073816 
   41000    270.95088    -489.8488    139222.97    -43226.79    3720.8578   -46947.647    561.69338   0.99011334 
   41100    274.96853   -616.14501    138874.48     -43264.1    3776.0307    -47040.13    561.69456   0.99259793 
   41200    279.63742   -284.88083    138966.88   -43103.715    3840.1466   -46943.862    563.94479   0.99193793 
   41300    271.96771    -411.0385    139069.89   -43219.967    3734.8215   -46954.788    565.97008   0.99120319 
   41400    279.84811   -575.04112    139068.76    -43194.86    3843.0399     -47037.9     566.9393   0.99121121 
   41500    272.49719   -609.80677    139128.02   -43234.252    3742.0927   -46976.345     568.5863   0.99078902 
   41600    278.31306   -483.74655    139121.53   -43133.115    3821.9597   -46955.075    569.93842   0.99083527 
   41700    272.43649   -501.40914    139103.14   -43263.377    3741.2592   -47004.636    571.56733   0.99096626 
   41800     275.9063    -536.7708    139098.93   -43192.002    3788.9086   -46980.911    573.50701   0.99099626 
   41900    278.78278   -516.01178    139193.83   -43120.741    3828.4101   -46949.151    575.05182   0.99032059 
   42000    278.66987   -723.08283    139196.87   -43162.689    3826.8596   -46989.549    576.04357   0.99029898 
   42100    273.52215   -495.25869    139248.14   -43145.227    3756.1681   -46901.396    576.73312   0.98993436 
   42200    274.75073   -442.03323    139199.52   -43127.531    3773.0396    -46900.57    577.73292   0.99028013 
   42300    268.36165   -362.95092    139331.84   -43156.432     3685.301   -46841.733    579.41586   0.98933967 
   42400    268.89555   -523.27331    139202.79   -43179.889    3692.6329   -46872.521    581.52362   0.99025685 
   42500    276.04128   -582.88145    139152.71   -43158.197    3790.7623   -46948.959    581.43581   0.99061322 
   42600    276.72353   -382.00883    139039.55   -43189.434    3800.1312   -46989.566    582.62705   0.99141944 
   42700    272.85358   -591.94446    139334.53    -43219.01    3746.9868   -46965.997     584.9016   0.98932054 
   42800    274.49494   -593.66774    139235.39   -43303.658     3769.527   -47073.185    586.67161   0.99002499 
   42900    275.53136   -604.95969    139391.98   -43272.682    3783.7598   -47056.442    587.75651   0.98891285 
   43000    270.15512   -400.30357     139575.2   -43226.561    3709.9301   -46936.491    589.90059   0.98761468 
   43100    273.19985   -493.09175    139340.95    -43240.24     3751.742   -46991.982    590.77819   0.98927497 
   43200     276.1284   -629.27574    139281.81   -43227.905    3791.9587   -47019.864    591.47752   0.98969505 
   43300    274.13299   -628.00037    138958.27   -43242.453    3764.5564   -47007.009    591.36277   0.99199937 
   43400    274.17789   -575.24957    139133.59   -43315.389     3765.173   -47080.562    592.45397   0.99074939 
   43500     273.0762   -612.22262    139039.02   -43241.393     3750.044   -46991.437    593.36884   0.99142324 
   43600    272.63258   -464.61343    139237.24   -43232.346    3743.9519   -46976.298     595.6963   0.99001186 
   43700     272.1581   -643.65077    139330.29   -43226.706    3737.4362   -46964.142    597.89678   0.98935065 
   43800    277.53419   -356.59281    139269.05   -43171.076    3811.2637   -46982.339    599.02105   0.98978571 
   43900    275.04813   -592.68669    139393.07   -43206.616    3777.1238    -46983.74    601.37712   0.98890511 
   44000    276.97102   -547.00008    139291.46     -43191.9      3803.53    -46995.43    602.48808   0.98962649 
   44100     280.1083   -481.61203    139127.54   -43141.264     3846.613   -46987.877    602.95389   0.99079249 
   44200    274.11255   -474.81731    139217.58   -43155.578    3764.2758   -46919.853    604.14928   0.99015164 
   44300    271.74699   -646.56974    139503.12   -43238.082    3731.7905   -46969.872    605.54776   0.98812497 
   44400    273.06296   -628.57995    139490.49   -43212.841    3749.8623   -46962.703    606.54227   0.98821445 
   44500    273.32197     -600.505    139545.92   -43282.331    3753.4191    -47035.75    608.49976   0.98782188 
   44600     270.1539    -579.2289    139539.47   -43292.448    3709.9132   -47002.362    610.17911   0.98786758 
   44700      268.198   -384.33954    139493.44   -43370.738    3683.0537   -47053.792    611.64046   0.98819353 
   44800    271.21679   -229.59768    139370.32   -43265.271    3724.5095    -46989.78    612.11213    0.9890665 
   44900    275.37044   -558.95841    139638.32   -43224.421    3781.5499   -47005.971    613.62879   0.98716824 
   45000    275.03929   -576.98473    139498.32   -43232.352    3777.0023   -47009.354    614.54305   0.98815894 
   45100    273.47333   -544.02914    139377.52   -43231.422    3755.4977    -46986.92    615.22307   0.98901539 
   45200    269.69691   -298.63827    139663.58   -43249.107    3703.6376   -46952.745    617.10335   0.98698974 
   45300    270.63216   -638.68115    139371.21    -43246.17     3716.481   -46962.651     616.9671   0.98906019 
   45400    266.42588   -365.49137    139406.09   -43255.165    3658.7179   -46913.883    617.81968   0.98881277 
   45500    279.02156   -583.17593    139239.77   -43181.304    3831.6893   -47012.993    618.27408   0.98999383 
   45600    278.70125   -413.44888     139199.8   -43181.355    3827.2906   -47008.646    619.17849   0.99027813 
   45700     278.6108   -402.80783    139363.11   -43194.277    3826.0484   -47020.325    620.13097   0.98911769 
   45800    275.20041   -464.63856    139468.22   -43090.371    3779.2149   -46869.586    622.01128   0.98837225 
   45900    276.10699   -602.43712    139116.58   -43110.427    3791.6646   -46902.091    621.18693   0.99087049 
   46000     279.0475   -679.66915    138922.62   -43130.015    3832.0455    -46962.06    621.47803   0.99225393 
   46100     276.0852   -378.94091    138978.76   -43175.194    3791.3653   -46966.559     623.6585   0.99185314 
   46200     272.7097     -443.835    139146.88   -43152.544     3745.011   -46897.555    626.08243   0.99065472 
   46300    273.19901   -462.21814    139007.96   -43133.555    3751.7306   -46885.286    626.11074   0.99164477 
   46400    277.39718   -413.81578    139059.66   -43100.922    3809.3823   -46910.304    627.33955   0.99127609 
   46500    280.29342   -546.40829    139313.98   -43130.411    3849.1552   -46979.566    629.43871   0.98946647 
   46600    279.01639   -567.44797    139174.47   -43104.929    3831.6183   -46936.548    630.13545   0.99045837 
   46700    275.36744   -257.67984     139038.6   -43105.747    3781.5086   -46887.256    631.20585   0.99142625 
   46800     280.3101   -539.25933     139019.6   -43054.791    3849.3841   -46904.175    632.94606   0.99156178 
   46900    275.45337   -383.06647    138965.14   -43049.501    3782.6887    -46832.19     633.6718   0.99195036 
   47000    278.66559   -513.94494    139101.69   -43123.716    3826.8009   -46950.517     635.0655    0.9909766 
   47100    278.41679   -475.46325    139018.65   -43117.974    3823.3841   -46941.358    636.30555   0.99156855 
   47200    272.39343   -518.60917    139125.25   -43133.256    3740.6678   -46873.923    639.11538   0.99080874 
   47300    282.23671    -539.7719    139095.03   -43165.542    3875.8416   -47041.383    640.47615     0.991024 
   47400    274.86659   -461.93845     139259.7   -43067.373    3774.6307   -46842.003    641.74333   0.98985218 
   47500    275.98273   -600.09308     139298.9     -43147.6    3789.9582   -46937.558    643.32204   0.98957364 
   47600    269.71565   -391.86708    139316.14   -43078.868     3703.895   -46782.763    643.90917   0.98945116 
   47700    279.15438   -363.81705    139186.66   -43119.208    3833.5131   -46952.721    645.04658    0.9903716 
   47800      270.747   -729.84603    138953.65   -43148.466    3718.0581   -46866.524    645.94979   0.99203235 
   47900    275.47687   -512.00673    139124.09   -43134.329    3783.0114   -46917.341    648.62034   0.99081704 
   48000      271.604   -537.62926       139214   -43242.814    3729.8269   -46972.641    650.95085    0.9901771 
   48100    268.88349   -693.47546    138986.88   -43247.543    3692.4673    -46940.01    652.37829   0.99179517 
   48200    272.08018   -650.48181    138818.39    -43199.14     3736.366   -46935.506     654.4292   0.99299898 
   48300    273.75312   -268.36178    138806.03   -43157.338    3759.3399   -46916.678    656.02636   0.99308741 
   48400    271.13685   -693.02946    139048.09   -43106.641    3723.4117   -46830.052    658.00864    0.9913586 
   48500    278.90658   -439.55917    139133.69   -43181.115    3830.1102   -47011.226    660.70911   0.99074869 
   48600     274.7847   -598.41621    139412.82   -43209.457    3773.5062   -46982.963     662.4052   0.98876501 
   48700    270.88106    -588.0529    139431.43   -43263.002     3719.899   -46982.901    663.18002   0.98863303 
   48800    273.31518   -684.84657    139179.34   -43260.321    3753.3259   -47013.647     664.0242   0.99042368 
   48900    274.11624   -562.46783    139057.96   -43205.408    3764.3265   -46969.734    664.56381   0.99128819 
   49000    281.11369   -534.15401    139202.82   -43244.539    3860.4195   -47104.958    665.88192   0.99025664 
   49100    272.94335   -537.24005    139108.41   -43234.545    3748.2197   -46982.765    667.43637   0.99092872 
   49200    271.13275   -593.94774    139028.03   -43317.813    3723.3553   -47041.168    668.05656   0.99150163 
   49300    272.68667    -468.6772    139050.78   -43319.452    3744.6947   -47064.147     669.2292   0.99133942 
   49400    275.35525   -638.73261    138958.02   -43226.691    3781.3413   -47008.033    669.56481   0.99200116 
   49500    272.74938   -303.82027    138921.25   -43187.816     3745.556   -46933.372    671.25141   0.99226371 
   49600     270.3381   -517.71319    139150.58   -43163.884    3712.4428   -46876.327    672.77763   0.99062838 
   49700    273.88789   -559.92722    139117.12     -43130.5    3761.1907   -46891.691    673.75775   0.99086665 
   49800    274.88807   -522.88102    139240.67   -43096.177    3774.9256   -46871.102    675.24543   0.98998748 
   49900    272.46864   -397.87238    139161.26   -43159.246    3741.7007   -46900.947    676.38705   0.99055235 
   50000     273.0975   -396.69408    139267.54   -43216.943    3750.3365   -46967.279    678.79891   0.98979642 
   50100    270.41217   -496.71868    139186.14   -43244.151      3713.46   -46957.611    681.35512   0.99037534 
   50200    269.25631   -573.49426     138948.6   -43218.805     3697.587   -46916.392    682.28517   0.99206844 
   50300    274.23272   -431.27617    138918.39   -43230.233    3765.9261   -46996.159    683.87729   0.99228412 
   50400    276.20791   -504.38522    138930.49   -43190.282    3793.0505   -46983.332    685.56552   0.99219776 
   50500    269.52077   -427.23872    139173.23   -43231.154    3701.2187   -46932.373    686.62163    0.9904672 
   50600    274.92045   -634.75829     139242.9    -43219.29    3775.3704    -46994.66    687.39969   0.98997161 
   50700    279.20092   -466.13168    139212.92   -43189.154    3834.1523   -47023.307    687.76948   0.99018481 
   50800    271.53135   -630.99391    139301.43   -43129.968    3728.8292   -46858.797     690.0098   0.98955563 
   50900    278.96885   -568.19791    139151.88   -43129.647    3830.9653   -46960.613    690.77341   0.99061918 
   51000    272.29863   -670.86334    139223.78   -43213.306     3739.366   -46952.672    692.21401   0.99010758 
   51100    271.90276   -565.59965    139316.23   -43175.646    3733.9296   -46909.576    693.72967   0.98945051 
   51200    273.16552   -402.42799    139216.33   -43089.614    3751.2707   -46840.884    694.06716   0.99016055 
   51300    277.10078   -521.13199    139314.45   -42973.971    3805.3119   -46779.282    695.90812   0.98946313 
   51400     277.9905   -692.62647    139186.47   -43201.748    3817.5301   -47019.278    696.29246   0.99037297 
   51500    270.53266   -495.79835    139137.15   -43249.288    3715.1146   -46964.403    697.60175   0.99072399 
   51600    273.49613   -565.42454    139153.96   -43251.678    3755.8107   -47007.489    698.28441   0.99060437 
   51700    278.38773   -535.50289    138983.91    -43192.43    3822.9851   -47015.415    698.31353    0.9918164 
   51800    272.71036   -641.30325    138787.35   -43274.842    3745.0201   -47019.862    699.03384   0.99322101 
   51900    267.38402   -508.03853     138772.8   -43275.275    3671.8756   -46947.151    700.80239   0.99332517 
   52000    273.51972   -389.05021    138986.49   -43259.862    3756.1347   -47015.996    702.58026   0.99179793 
   52100     269.8651   -542.57426     139161.9    -43264.23    3705.9473   -46970.177    705.02559   0.99054781 
   52200    270.00136   -504.64348    139034.21   -43305.054    3707.8185   -47012.873    706.40691   0.99145752 
   52300    272.41966   -486.16528    139031.15   -43204.811     3741.028   -46945.839    708.67333   0.99147937 
   52400    282.19852   -520.24379    139021.95   -43118.469    3875.3171   -46993.786     710.7538   0.99154496 
   52500    274.95904   -521.87608    139177.76   -43153.812    3775.9003   -46929.713    712.56828   0.99043494 
   52600    273.76906   -406.53719    139311.94   -43261.322    3759.5588   -47020.881    714.31282   0.98948103 
   52700     272.2783    -520.3877    139043.53   -43250.925    3739.0868   -46990.011    714.95684   0.99139112 
   52800    271.53127   -589.83396    139149.75   -43308.404    3728.8281   -47037.232    715.19558    0.9906343 
   52900    275.00069   -595.46565    139156.59   -43359.417    3776.4723   -47135.889     715.8447   0.99058565 
   53000    266.72293   -407.34545    138737.31   -43428.582    3662.7971   -47091.379    716.92948   0.99357929 
   53100    268.61184    -523.0443    138709.92   -43442.378    3688.7368   -47131.115     717.9462    0.9937755 
   53200    274.13154   -283.04111    138861.78   -43283.265    3764.5366   -47047.801     718.8528   0.99268869 
   53300    274.89557   -434.06657     139010.2   -43305.705    3775.0287   -47080.733    720.50397   0.99162876 
   53400    278.78103    -528.1332    139381.97   -43232.441    3828.3861   -47060.827    723.62965   0.98898381 
   53500    276.84822     -629.063    139123.39   -43168.498    3801.8437   -46970.342    725.28854   0.99082201 
   53600    270.42365   -296.13896    139034.67   -43180.686    3713.6176   -46894.303    725.35433   0.99145429 
   53700    275.04967   -435.41439    139215.88   -43152.837    3777.1448   -46929.982    728.36924   0.99016373 
   53800    272.38839    -590.3435    139249.85   -43274.577    3740.5986   -47015.176    730.58222    0.9899222 
   53900     268.7886   -587.23578    139411.53   -43298.823    3691.1642   -46989.987    732.94679   0.98877413 
   54000    273.69876   -734.46197    138912.22    -43237.98    3758.5933   -46996.573    732.28415    0.9923282 
   54100    277.26536   -474.35609    138925.78   -43242.169     3807.572   -47049.741     733.4316   0.99223136 
   54200    275.23844   -459.04509    139109.71   -43181.368    3779.7371   -46961.105    736.02421   0.99091947 
   54300    273.92254   -608.98405    138852.53   -43194.123    3761.6665    -46955.79      735.581   0.99275484 
   54400    271.41421   -133.63974    138860.24   -43238.805    3727.2206   -46966.025    737.85625   0.99269966 
   54500    275.17382    -416.5551    139002.64   -43264.427    3778.8497   -47043.277    739.15529    0.9916827 
   54600    274.53318   -623.86129    138978.72    -43236.99    3770.0521   -47007.042    739.47546   0.99185343 
   54700    274.34079   -615.77587    138422.39   -43240.987    3767.4101   -47008.397    738.77881   0.99583977 
   54800    272.96252   -645.97886    138665.16   -43241.651    3748.4829   -46990.134    740.19407   0.99409626 
   54900     277.5159   -487.80051    139030.39   -43142.079    3811.0126   -46953.091    742.73785   0.99148478 
   55000    274.66594   -442.84248    139171.42   -43088.855    3771.8752    -46860.73    745.18342   0.99048009 
   55100    275.67249    -684.7487    139134.86   -43061.703    3785.6978   -46847.401    747.25912   0.99074032 
   55200    274.08378   -588.71386    138835.54   -43098.441    3763.8807   -46862.322    749.28872   0.99287627 
   55300    273.81066   -501.60871    138840.24   -43071.802    3760.1301   -46831.932    750.60116   0.99284271 
   55400    276.66474   -361.18344    138959.99    -43074.29     3799.324   -46873.614    752.41463   0.99198707 
   55500    279.37382   -358.62801    139318.28   -43064.252    3836.5266   -46900.779    753.26473   0.98943593 
   55600    276.03079   -562.10369    139100.36   -43044.973    3790.6182   -46835.592    754.27141   0.99098607 
   55700    272.14863   -378.12415    139086.21    -43092.69    3737.3061   -46829.996    756.42923   0.99108689 
   55800    276.20525   -563.91808    139304.79   -43157.563     3793.014   -46950.577    756.89881   0.98953175 
   55900    271.77169   -591.56817    139082.18    -43230.98    3732.1298   -46963.109    756.81657    0.9911156 
   56000    269.66873   -550.04945    139123.78   -43310.681    3703.2507   -47013.931    758.27112   0.99081923 
   56100    272.91608   -525.83039    139139.22   -43238.767    3747.8451   -46986.612    759.47943   0.99070927 
   56200    272.98916   -548.57933    138940.57   -43247.512    3748.8488   -46996.361    759.22546   0.99212577 
   56300    270.35877    -411.6359    138822.11   -43152.326    3712.7267   -46865.052    759.42758   0.99297235 
   56400    274.45078   -419.44032    138838.67   -43120.706    3768.9205   -46889.627    761.26688   0.99285391 
   56500    271.54657   -448.67312    139014.19   -43098.051    3729.0383   -46827.089    762.94058   0.99160032 
   56600      278.042   -423.77709     138960.1     -43067.5    3818.2373   -46885.737      763.227   0.99198634 
   56700    274.36655   -542.41304    139104.69   -43065.433    3767.7639   -46833.197    764.39635   0.99095523 
   56800    278.65389   -504.25224    139014.72   -43026.147    3826.6402   -46852.787    765.60046   0.99159653 
   56900    274.86338   -479.05953    139067.27   -43082.856    3774.5866   -46857.443    766.94894   0.99122185 
   57000    274.77525   -570.54318    138762.69   -43167.389    3773.3763   -46940.765    766.54844   0.99339752 
   57100    271.92295   -754.53048    138481.94   -43213.131    3734.2069   -46947.338    766.00231   0.99541148 
   57200    267.28797   -687.23632    138383.48   -43297.067    3670.5566   -46967.624    766.83921   0.99611972 
   57300    267.23017   -370.96422    138629.22   -43303.491    3669.7629   -46973.253    768.80485   0.99435401 
   57400    271.02942   -648.17336    138761.54   -43288.305    3721.9364   -47010.242    771.39357   0.99340579 
   57500    271.52517   -463.54384    138850.35   -43223.902    3728.7443   -46952.646    773.30786   0.99277039 
   57600    270.07645   -625.02113    138844.21   -43284.486    3708.8497   -46993.336    774.56756   0.99281429 
   57700    270.29738   -547.91588    138573.76   -43295.644    3711.8837   -47007.528    774.92916   0.99475191 
   57800    271.50468   -460.20655    138609.11   -43158.676    3728.4629   -46887.139    776.37121   0.99449828 
   57900    270.68759   -459.55339    138472.83   -43202.871    3717.2422   -46920.113    777.51369   0.99547702 
   58000     274.4127   -175.20877     138978.4   -43254.399    3768.3977   -47022.797    779.67088   0.99185569 
   58100    271.35115   -571.11932    139129.93   -43191.209    3726.3546   -46917.563    780.73605   0.99077544 
   58200    273.79479   -403.01924    139056.04   -43266.164    3759.9121   -47026.076    782.51392   0.99130189 
   58300    268.54971   -264.71229    139026.24   -43325.331    3687.8836   -47013.215    783.11538   0.99151438 
   58400    274.23726    -655.8135    139079.54   -43194.433    3765.9884   -46960.421    785.01405   0.99113438 
   58500    276.99059    -487.3988    139084.07   -43161.436    3803.7987   -46965.235    785.84576   0.99110209 
   58600    272.92975   -516.90186    139205.89   -43197.551    3748.0329   -46945.584    787.89759   0.99023477 
   58700    273.25389   -523.87199    139305.23    -43155.51    3752.4841   -46907.994    789.24999   0.98952862 
   58800    275.27335   -658.68139    139055.37   -43205.905    3780.2166   -46986.122     790.5471   0.99130666 
   58900    277.05679   -414.85886     139038.3    -43133.16    3804.7078   -46937.868    791.95236   0.99142837 
   59000    276.42913   -567.14007    139082.15   -43220.051    3796.0884    -47016.14    793.69915   0.99111579 
   59100    272.75395   -450.92196    139211.74   -43220.595    3745.6187   -46966.214    796.32024   0.99019319 
   59200    275.50508   -552.29249    139273.64   -43212.631    3783.3988    -46996.03    798.17638   0.98975308 
   59300    270.76399   -386.81363    139266.15   -43238.738    3718.2914    -46957.03    799.80175   0.98980634 
   59400    274.18624   -580.19305    139216.48   -43163.765    3765.2877   -46929.052    801.29621   0.99015946 
   59500    274.92026   -458.75155    139185.38   -43162.353    3775.3677    -46937.72    802.37618   0.99038075 
   59600    281.54907   -412.41071    138876.86   -43100.011    3866.3985    -46966.41    801.67804   0.99258088 
   59700    276.34591   -419.26574    138996.95   -43121.777    3794.9456   -46916.723    802.96935   0.99172334 
   59800    277.03539   -589.17656    139152.02   -43110.159    3804.4139   -46914.573    805.18924   0.99061812 
   59900    272.61145   -549.66182    139137.42   -43208.731    3743.6617   -46952.393    806.17649   0.99072208 
   60000    274.55681   -477.53093     138844.6   -43180.539    3770.3766   -46950.916    806.35538   0.99281149 
   60100    274.89247   -499.75806    139194.45   -43131.312    3774.9861   -46906.298     809.8044   0.99031621 
   60200    274.62836   -501.21256     138960.3   -43218.562    3771.3592   -46989.921     809.5529   0.99198489 
   60300      272.911   -462.57846    138936.43   -43179.184    3747.7754   -46926.959    810.96561   0.99215528 
   60400    271.13975   -418.29999    138975.16   -43171.026    3723.4516   -46894.477    813.21626   0.99187881 
   60500    270.87506   -637.72578     138991.3   -43261.179    3719.8167   -46980.996    814.32249   0.99176362 
   60600    274.80963   -352.16309    139041.63   -43208.016    3773.8485   -46981.865    815.13513   0.99140467 
   60700    273.36126   -332.53727    138971.58   -43180.427    3753.9586   -46934.386    817.63444   0.99190434 
   60800    271.15634   -431.01865    139046.97   -43139.485    3723.6794   -46863.165    819.39771   0.99136656 
   60900    274.23563    -624.1258    138869.64   -43102.946    3765.9659   -46868.911    820.62675   0.99263246 
   61000    277.69211   -376.18601    138865.51   -43049.981    3813.4325   -46863.414    822.44739   0.99266203 
   61100    280.99082   -482.33613    139067.96   -42998.864    3858.7323   -46857.596    825.00752   0.99121694 
   61200    280.99213   -599.26277    138938.25   -43066.047    3858.7502   -46924.798    825.89556   0.99214234 
   61300    278.82967   -470.76021    138895.18   -43043.698    3829.0541   -46872.752    826.66076   0.99244997 
   61400     281.6211   -421.00816    138993.46   -42931.814    3867.3877   -46799.202    827.99345   0.99174826 
   61500    281.76194   -609.92277    138999.24   -42968.243    3869.3218   -46837.565    831.15344   0.99170698 
   61600    276.74639   -598.37945    139059.66   -43022.587    3800.4453   -46823.033    833.14074   0.99127608 
   61700    277.10728   -449.12243    139085.02   -43076.339    3805.4012    -46881.74    834.67163   0.99109532 
   61800    273.23458   -457.71536    139216.98   -43151.291     3752.219    -46903.51    837.31318   0.99015591 
   61900    276.21083   -447.58225    139411.42   -43036.666    3793.0906   -46829.756    838.76235   0.98877489 
   62000    279.29989    -585.4416    139357.35   -43125.746    3835.5114   -46961.258    839.71487   0.98915856 
   62100     271.9556   -371.52884    139351.82   -43135.643    3734.6553   -46870.299    841.39924   0.98919781 
   62200    274.64428   -634.60308     139196.6   -43190.068    3771.5779   -46961.646    842.84905   0.99030091 
   62300    277.04405   -509.36466    139230.45   -43187.373    3804.5329   -46991.905    843.65678   0.99006011 
   62400    274.74186    -384.8834    139412.14   -43277.375    3772.9179   -47050.293    845.57007   0.98876979 
   62500    274.08944   -509.42772    139527.98   -43266.665    3763.9585   -47030.623     846.5255   0.98794893 
   62600    268.89411   -547.65864    139359.33   -43217.084    3692.6131   -46909.697    847.00535   0.98914449 
   62700    273.36324   -431.41518    139326.27   -43208.648    3753.9858   -46962.634    847.68776    0.9893792 
   62800    276.32419   -511.33948    139347.99   -43235.347    3794.6474   -47029.994    849.74842   0.98922502 
   62900    275.81443   -397.84386    139354.92   -43181.336     3787.647   -46968.983    852.01877   0.98917584 
   63000    272.01947   -381.93386    139341.03   -43214.336    3735.5324   -46949.869    852.66781   0.98927443 
   63100    273.06535   -517.92432    139182.45   -43204.646    3749.8951   -46954.541    853.56018   0.99040159 
   63200    276.38967   -382.18779    139030.84    -43211.05    3795.5466   -47006.596    853.92588   0.99148161 
   63300    268.71347   -531.02322    139075.86   -43261.534    3690.1324   -46951.667    855.93173   0.99116063 
   63400    270.97109   -526.90506    138820.24   -43308.011    3721.1354   -47029.146    855.41457   0.99298571 
   63500    271.78985   -354.42832    139170.09   -43185.016     3732.379   -46917.395    857.14761   0.99048955 
   63600    273.37706   -415.07305    139304.06   -43182.158    3754.1756   -46936.333    858.16369   0.98953695 
   63700    274.55081   -511.45307    139472.61   -43217.369    3770.2943   -46987.664    860.71464   0.98834113 
   63800    276.12089   -704.29049    139499.92    -43218.24    3791.8556   -47010.095    862.50346   0.98814764 
   63900    271.11151   -662.25564    139254.81   -43168.301    3723.0638   -46891.365    862.89389   0.98988694 
   64000    272.00875   -497.82011    139050.39   -43269.819    3735.3852   -47005.204    864.47871   0.99134217 
   64100    277.69284   -650.27353    138996.84   -43274.794    3813.4425   -47088.236    865.46201   0.99172412 
   64200     273.1274   -451.45613    138936.68   -43263.851    3750.7472   -47014.599    866.30444    0.9921535 
   64300    276.68611   -366.69966    139312.26   -43332.846    3799.6174   -47132.463    867.84808   0.98947869 
   64400    272.01213   -567.07839    139374.52   -43327.365    3735.4316   -47062.796    869.36004   0.98903669 
   64500    270.48959   -337.00558    139151.85   -43403.005    3714.5232   -47117.528     869.9437   0.99061938 
   64600    271.17987   -612.71835    139134.24   -43318.002    3724.0025   -47042.005    871.18574   0.99074478 
   64700    271.12489   -562.83853    139030.23   -43241.729    3723.2474   -46964.976    872.15116   0.99148596 
   64800    278.37019   -392.31618     139000.7   -43132.005    3822.7442   -46954.749     871.9132   0.99169658 
   64900    273.00578   -389.45059    139268.55   -43128.588     3749.077   -46877.665    873.92441   0.98978926 
   65000    274.70432   -513.25225    139119.17   -43144.234    3772.4023   -46916.637    875.32444   0.99085207 
   65100    274.11401   -404.11124    139423.24   -43204.567    3764.2959   -46968.863    878.66661    0.9886911 
   65200    272.97891   -473.01539    139381.46   -43208.657    3748.7079   -46957.365    880.83603   0.98898744 
   65300    271.78683   -396.09899    139189.37   -43250.329    3732.3376   -46982.667    881.27493   0.99035234 
   65400    270.41441   -573.14501    139166.16   -43269.872    3713.4907   -46983.363    882.09894   0.99051748 
   65500    274.69379   -185.79599     139133.6   -43192.067    3772.2578   -46964.325    883.88401   0.99074927 
   65600    278.79346   -656.55489    139462.55   -43138.977    3828.5568   -46967.534    886.38053   0.98841241 
   65700    273.71275   -673.86935    139302.28    -43090.69    3758.7855   -46849.476    887.29567    0.9895496 
   65800    273.36756    -496.2225    139092.43   -43179.449    3754.0452   -46933.494    887.93586   0.99104255 
   65900    270.53913   -546.60115    138985.17   -43148.078    3715.2034   -46863.281    889.05081   0.99180735 
   66000    271.97242   -505.02307    139012.95   -43168.109    3734.8863   -46902.995    888.64189    0.9916092 
   66100    274.06263   -414.51391    138986.01   -43166.231    3763.5902   -46929.821     890.3479    0.9918014 
   66200    279.05114   -324.28413    139365.39   -43106.289    3832.0955   -46938.384    891.36613   0.98910147 
   66300    276.00879   -463.05371    139280.37   -43082.989    3790.3161   -46873.305     892.4113    0.9897053 
[...]
   84600    275.03582   -571.48839    139429.28   -43229.442    3776.9546   -47006.396     1150.718   0.98864825 
   84700    268.31201   -576.73085    139254.42   -43275.949    3684.6194   -46960.568    1151.1991   0.98988972 
   84800    270.78237   -476.37347    139154.13   -43212.494    3718.5437   -46931.037    1152.4195   0.99060311 
   84900    275.72556   -606.51157    139326.36   -43198.201    3786.4266   -46984.627    1154.3215   0.98937861 
   85000    277.17291   -374.22491    139199.68   -43201.766    3806.3025   -47008.068    1155.0055   0.99027901 
   85100    272.65551   -394.41036    139265.73   -43217.941    3744.2669   -46962.208    1156.8685   0.98980932 
   85200    272.77273    -414.1312    139289.78   -43207.243    3745.8766    -46953.12    1157.5294   0.98963843 
   85300    277.51293   -632.98732    139202.46   -43174.747    3810.9718   -46985.719    1158.9604   0.99025923 
   85400    275.68205   -491.56981    139392.76   -43171.221    3785.8291    -46957.05    1161.9834   0.98890732 
   85500    272.17008   -586.78315    139307.49   -43190.181    3737.6006   -46927.782    1162.1059   0.98951264 
   85600     276.6933    -565.2554    139204.93   -43154.589    3799.7162   -46954.306    1163.9234    0.9902416 
   85700    274.29797   -483.05127    139123.91   -43179.559    3766.8221   -46946.381    1164.5626   0.99081827 
   85800    271.80282   -581.43803    138648.76   -43231.499    3732.5572   -46964.056    1163.9485   0.99421384 
   85900    272.27328    -486.9328    138688.45   -43256.254    3739.0178   -46995.271     1164.967   0.99392933 
   86000    274.65124     -539.315       139024   -43223.006    3771.6733    -46994.68    1168.4256   0.99153033 
   86100    272.84833   -369.42112    139111.97   -43208.811    3746.9148   -46955.726    1169.0119   0.99090337 
   86200    277.41376   -438.44295    139055.53   -43234.587    3809.6099   -47044.197    1169.5345   0.99130555 
   86300     273.4129   -417.16696    139145.51   -43239.419    3754.6678   -46994.087    1171.5096   0.99066451 
   86400    273.41307   -492.51693    139102.85   -43188.857    3754.6702   -46943.528    1172.7955   0.99096834 
   86500    277.27965   -463.65719    138929.53   -43169.179    3807.7683   -46976.948    1172.6454   0.99220457 
   86600    274.76856   -619.43802    139049.72   -43162.118    3773.2846   -46935.402    1175.5012   0.99134697 
   86700    274.74042   -484.72019    139074.84   -43165.744    3772.8981   -46938.642    1177.5306   0.99116793 
   86800    275.62834    -638.6004    139055.86   -43121.686    3785.0915   -46906.778    1179.2563   0.99130321 
   86900    273.42159   -542.66407    139082.95   -43140.388    3754.7872   -46895.175    1181.3952    0.9911101 
   87000    275.66308   -455.94078    138764.18   -43159.773    3785.5686   -46945.342    1181.1393   0.99338689 
   87100    276.14079   -651.48494    138884.49    -43214.82    3792.1287   -47006.949    1183.0257   0.99252632 
   87200    273.32994   -315.43847    138905.28   -43225.537    3753.5286   -46979.065      1183.47   0.99237784 
   87300    278.13973   -780.95433    138361.57   -43084.071    3819.5794    -46903.65     1182.597   0.99627752 
   87400    281.48262   -539.56335    138493.44   -43111.403    3865.4859   -46976.889    1184.0678   0.99532882 
   87500    275.74969   -504.57482    138224.89    -43220.86    3786.7579   -47007.618    1184.2668   0.99726266 
   87600    269.37236   -205.53438     138548.8   -43191.462    3699.1808   -46890.643    1186.9645   0.99493114 
   87700     274.1943   -353.47086    139126.93   -43182.051    3765.3984    -46947.45    1191.1464   0.99079682 
   87800    278.65035   -607.11095    139131.29   -43063.897    3826.5916   -46890.488    1192.0148   0.99076575 
   87900    277.58446    -527.5427    139240.86   -43064.306    3811.9541    -46876.26    1193.5158   0.98998607 
   88000    277.32616   -378.70401    139341.68   -43072.356     3808.407   -46880.763    1196.4959   0.98926981 
   88100    276.17054   -512.86762    139262.37   -43103.263    3792.5374     -46895.8    1197.5568    0.9898332 
   88200    279.42211   -613.99973    139284.87   -43063.688    3837.1898   -46900.878     1198.189   0.98967329 
   88300    280.75269   -355.84984    139175.45   -43101.058    3855.4621    -46956.52    1199.6857   0.99045141 
   88400    270.85257   -531.42388    139238.49   -43132.508    3719.5078   -46852.016    1202.2324   0.99000295 
   88500    274.18302   -598.59686    139266.59   -43189.302    3765.2435   -46954.545    1203.5959   0.98980321 
   88600    270.05013   -684.06317    139066.51    -43171.38    3708.4882   -46879.868    1204.2353   0.99122723 
   88700      273.533   -543.51689    138875.92   -43187.523    3756.3171    -46943.84    1205.1165   0.99258757 
   88800    272.07311   -446.85697    138895.31   -43165.405     3736.269   -46901.674    1205.5667   0.99244902 
   88900    275.20459   -532.11953    138861.92   -43215.888    3779.2723    -46995.16    1207.4376   0.99268764 
   89000    279.40844   -623.69739    138734.86   -43171.489    3837.0021   -47008.491    1208.5297   0.99359685 
   89100    276.77524   -470.80841    138826.75    -43133.97    3800.8415   -46934.812    1211.3853   0.99293915 
   89200    269.17515   -510.43468    138744.56   -43224.234    3696.4725   -46920.707    1212.5828   0.99352733 
   89300     274.5826   -523.24701    138626.75   -43234.974    3770.7308   -47005.704    1214.3565   0.99437173 
   89400    276.42559   -421.24673    138619.77   -43155.389    3796.0398   -46951.429    1215.9506   0.99442176 
   89500    268.05981   -642.94009    138680.03    -43262.18     3681.156   -46943.336    1218.6777   0.99398968 
   89600    270.39288   -484.83973    138797.41   -43171.726    3713.1951   -46884.921     1220.718   0.99314908 
   89700    273.91281   -525.10522    138657.04   -43172.934    3761.5329   -46934.467    1222.1127   0.99415448 
   89800    276.63801   -439.71868    138851.95    -43229.98    3798.9569   -47028.937    1224.4716   0.99275895 
   89900    269.54985   -544.00409    138750.51   -43228.763    3701.6181   -46930.381    1225.6747   0.99348478 
   90000    273.52142    -523.0667    138730.34   -43201.059     3756.158   -46957.217    1227.4988   0.99362917 
   90100     269.7221   -331.98914     138853.6   -43138.254    3703.9835   -46842.237    1230.5729   0.99274715 
   90200    275.27886   -428.21481    139292.92    -43250.51    3780.2923   -47030.802    1233.3473   0.98961609 
   90300    269.98189   -662.37691     139286.4   -43293.739    3707.5511    -47001.29    1231.9724   0.98966242 
   90400    274.12545   -459.69818       139382   -43181.966    3764.4529   -46946.419    1234.4882   0.98898363 
   90500    274.29033   -669.76174    139294.74   -43119.113    3766.7172   -46885.831    1234.8817   0.98960319 
   90600      279.356   -398.65884    139211.95   -43136.946    3836.2819   -46973.228    1235.3759    0.9901917 
   90700    271.57021   -664.38138    139342.32   -43171.839    3729.3628   -46901.202    1236.8966   0.98926524 
   90800    276.31334   -552.40393    139196.24   -43149.578    3794.4983   -46944.077    1238.1601   0.99030347 
   90900     274.7713   -565.45297     138831.6   -43207.364    3773.3222   -46980.687    1236.2728   0.99290444 
   91000    273.75212   -512.99714    138932.07   -43185.763    3759.3261   -46945.089    1239.2753   0.99218643 
   91100    276.20598   -320.73484    138751.73    -43127.98     3793.024   -46921.004    1239.8594   0.99347601 
   91200     276.5875   -608.96404    138992.65   -43151.757    3798.2633   -46950.021     1242.984   0.99175403 
   91300    276.99052   -526.66832    138961.83   -43208.726    3803.7977   -47012.523    1245.3117   0.99197399 
   91400     268.8866   -481.97344    139117.37   -43260.166    3692.5099   -46952.676     1247.557   0.99086486 
   91500    268.63629   -572.13924    138813.25   -43230.694    3689.0726   -46919.767    1245.7916   0.99303571 
   91600     274.1678    -341.8728    138725.14   -43238.332    3765.0345   -47003.367    1247.4974   0.99366641 
   91700     272.7279   -473.23758    139300.13   -43222.872    3745.2609   -46968.133    1253.3588   0.98956491 
   91800    270.10257   -369.03629    139307.19   -43328.721    3709.2084   -47037.929     1254.979   0.98951472 
   91900    271.00698   -471.95502    139037.49   -43298.503    3721.6282   -47020.131    1254.7957   0.99143414 
   92000    275.14792   -640.37479    139164.06   -43224.034    3778.4941   -47002.528    1257.8882   0.99053248 
   92100    272.11878   -408.96209    138915.34   -43154.421    3736.8962   -46891.317    1258.0604   0.99230593 
   92200    279.93866   -312.42413    138847.26   -43061.324    3844.2834   -46905.607    1260.3942   0.99279248 
   92300    275.42656   -422.24267    138771.77   -43071.143    3782.3205   -46853.464    1262.2992   0.99333259 
   92400    274.45711   -514.13575    138786.65   -43125.765    3769.0075   -46894.773    1263.9248   0.99322604 
   92500    277.70593   -517.53788    138924.61   -43073.006    3813.6222   -46886.628    1265.9945   0.99223975 
   92600    274.47815   -381.96015    139029.96   -43119.199    3769.2965   -46888.495    1268.5346   0.99148788 
   92700    273.74169    -420.4422    139111.23   -43139.768    3759.1829    -46898.95    1270.9386    0.9909086 
   92800    273.83454   -355.08733    139308.02   -43102.849    3760.4579   -46863.307    1273.2216   0.98950885 
   92900    277.52378    -568.1768    139268.37   -43127.692    3811.1208   -46938.813     1274.504   0.98979054 
   93000    270.26486   -539.75555    139052.84   -43053.184    3711.4371   -46764.621     1275.416   0.99132469 
   93100    277.45814   -527.24461    139123.56   -43089.979    3810.2193   -46900.198    1276.8726   0.99082079 
   93200    277.33111   -458.13258    138872.37   -43047.342     3808.475   -46855.817    1277.1853   0.99261296 
   93300    281.51891   -581.79743    139077.74   -43003.624    3865.9843   -46869.608    1279.2861   0.99114723 
   93400    278.53788    -592.8176    139181.53    -43115.49    3825.0471   -46940.537     1281.384    0.9904081 
   93500    276.75734   -604.63582    139231.31   -43158.825    3800.5956   -46959.421     1282.626     0.990054 
   93600    272.01606   -720.90755    139092.88   -43225.339    3735.4855   -46960.825    1283.0379   0.99103931 
   93700    277.22846   -728.08666    138951.11   -43205.625    3807.0653    -47012.69    1282.9926   0.99205045 
   93800    278.87385   -593.78957    138994.24   -43110.815    3829.6608   -46940.476    1284.4315   0.99174263 
   93900    273.02435   -507.58464    139049.43   -43243.204    3749.3319   -46992.536     1285.753     0.991349 
   94000    271.92887   -395.94866    139057.54   -43245.267    3734.2882   -46979.555    1287.2911   0.99129123 
   94100    270.69899   -521.06323    139115.33   -43280.964    3717.3988   -46998.362    1288.4594   0.99087938 
   94200    273.18901   -758.79132    138819.32   -43293.701    3751.5932   -47045.295    1287.1186   0.99299232 
   94300    274.16009   -434.66927    138673.28   -43230.503    3764.9287   -46995.432      1287.64   0.99403807 
   94400    276.22008   -471.74601    138892.88   -43251.525    3793.2176   -47044.743    1290.1322   0.99246643 
   94500    273.34665   -427.95485    138811.03   -43250.781     3753.758   -47004.539    1290.4047    0.9930516 
   94600    269.20139   -657.82734    138860.83    -43317.13    3696.8328   -47013.963    1290.1645   0.99269545 
   94700    272.48184   -408.03063    138767.12   -43282.578    3741.8819    -47024.46    1291.6088   0.99336583 
   94800    275.41436   -549.45281    139104.67       -43192     3782.153   -46974.153    1295.1314   0.99095536 
   94900    272.40181   -614.37569    138858.19    -43133.32    3740.7829   -46874.103    1294.7433   0.99271433 
   95000    275.00094   -441.78271     138896.4   -43147.754    3776.4757    -46924.23    1296.7338   0.99244126 
   95100    276.91592   -519.65938    138681.32   -43134.975    3802.7734   -46937.749    1297.7614   0.99398041 
   95200    275.91174   -395.79898    138681.19   -43100.734    3788.9833   -46889.717    1299.3402   0.99398136 
   95300     276.9707   -477.52924    138785.64   -43155.364    3803.5257    -46958.89    1300.9931   0.99323326 
   95400     274.3474   -509.62081    139117.47   -43145.675    3767.5008   -46913.176    1304.7686   0.99086415 
   95500    279.03282   -282.26438    139184.46   -43163.606    3831.8438    -46995.45    1306.1944   0.99038728 
   95600    274.13961   -565.00179    139401.33   -43278.726    3764.6474   -47043.373    1308.6599   0.98884652 
   95700    279.18539    -395.2282    139514.02   -43238.187    3833.9391   -47072.126    1309.9953   0.98804774 
   95800     273.5726   -538.71291    139425.87   -43234.522    3756.8608   -46991.382    1311.0991   0.98867245 
   95900     276.1435   -491.68126    139521.68   -43261.306     3792.166   -47053.472    1312.9793   0.98799352 
   96000    274.89349   -473.84844    139268.05   -43196.576    3775.0002   -46971.577    1313.0071   0.98979281 
   96100     274.1934   -573.67836    139263.65   -43206.182    3765.3861   -46971.568    1314.7573   0.98982409 
   96200    272.32982   -475.94672    139094.51   -43193.433    3739.7942   -46933.227    1314.3885    0.9910277 
   96300    274.68537   -570.80455    139178.09    -43200.28    3772.1421   -46972.422    1315.3063   0.99043257 
   96400    277.30145   -649.27051    138810.44   -43293.521    3808.0676   -47101.589    1314.5756    0.9930558 
   96500    276.62922   -442.80627    138879.52   -43233.172    3798.8362   -47032.008    1316.4747   0.99256188 
   96600    274.39336   -390.98929    139046.17   -43149.749     3768.132   -46917.881    1317.5419   0.99137227 
   96700    281.84139   -696.31174    139089.61   -43112.542    3870.4128   -46982.955    1318.4931   0.99106266 
   96800    275.24689   -432.72506    138951.45   -43106.221    3779.8531   -46886.074    1318.3834   0.99204804 
   96900    273.39826   -692.20881    138902.12   -43113.468    3754.4667   -46867.935    1318.1372   0.99240038 
   97000    278.04413   -530.66025     139283.4   -43110.029    3818.2666   -46928.295    1321.3208   0.98968374 
   97100    278.53198   -402.39462    139238.24   -43114.147     3824.966   -46939.113    1320.9764   0.99000476 
   97200    276.93824   -607.56168    138852.04   -43133.037    3803.0799   -46936.117    1320.4154   0.99275829 
   97300    272.88661   -550.42348    139053.33   -43147.003    3747.4404   -46894.443    1322.4009   0.99132121 
   97400    273.93885   -542.73261    138944.41   -43143.406    3761.8904   -46905.296    1323.0123   0.99209835 
   97500    274.47972   -427.43896    138720.94   -43174.596     3769.318   -46943.914    1323.8012   0.99369653 
   97600    278.89224   -707.39233    138550.31   -43161.465    3829.9133   -46991.379    1323.5815   0.99492029 
   97700    275.33796   -485.73043    138524.26   -43217.471    3781.1039   -46998.575    1324.3218   0.99510744 
   97800    277.76194    -602.9094    138642.75   -43218.347    3814.3913   -47032.739    1325.8239   0.99425695 
   97900    274.21988   -293.52759    138598.75   -43146.832    3765.7497   -46912.582    1326.9059   0.99457261 
   98000    275.40253   -408.94723    138643.84    -43113.99    3781.9906   -46895.981    1328.2454   0.99424916 
   98100    277.84751   -514.07496    138884.48   -43197.154    3815.5665    -47012.72    1332.6465   0.99252645 
   98200    274.62172   -407.61371    138925.93   -43152.548     3771.268   -46923.816    1334.9324   0.99223027 
   98300    272.63826    -396.6087     139049.4   -43070.239      3744.03   -46814.269    1336.4077   0.99134923 
   98400    276.92704   -513.75607    138902.25    -43058.96     3802.926   -46861.886    1336.1764   0.99239947 
   98500    275.24704   -682.97905    138848.87   -43155.188    3779.8553   -46935.044    1337.8253   0.99278101 
   98600    274.35169   -563.65594    139166.38   -43120.468    3767.5598   -46888.028    1340.4948   0.99051593 
   98700    275.69693   -536.58402     138991.5   -43204.697    3786.0334    -46990.73    1340.9867   0.99176218 
   98800     274.8278   -389.92347    138810.28   -43191.827    3774.0981   -46965.925    1340.6302   0.99305695 
   98900    275.51683   -390.86232    139317.02    -43158.69    3783.5602    -46942.25     1345.152   0.98944494 
   99000    280.55374   -685.72463     139224.9   -43066.317      3852.73   -46919.047     1345.943   0.99009957 
   99100    273.31807    -515.5198    139137.99   -43150.251    3753.3655   -46903.616    1346.4288   0.99071801 
   99200    276.27686   -492.43833    139312.28   -43105.474    3793.9974   -46899.471    1349.2207   0.98947859 
   99300      276.403   -537.05145    139158.83   -43161.369    3795.7296   -46957.099    1350.5021   0.99056967 
   99400    281.65388   -492.50727    139128.71   -43086.249    3867.8378   -46954.087    1351.4448   0.99078415 
   99500    275.61422   -653.61857    138995.87   -43173.584    3784.8975   -46958.482    1351.3189   0.99173103 
   99600    273.59936   -221.60666    139074.91   -43204.638    3757.2284   -46961.867    1352.6293   0.99116738 
   99700    274.14639   -517.35031    139307.35   -43146.656    3764.7405   -46911.397     1353.973   0.98951357 
   99800    270.40996   -540.39139    139119.03   -43186.203    3713.4296   -46899.632     1353.884   0.99085303 
   99900    275.05572   -635.04218       139082   -43161.668     3777.228   -46938.896    1354.5152   0.99111689 
  100000    273.06592   -459.17219    138843.77   -43135.845    3749.9029   -46885.748    1353.7971   0.99281745 
  100100    279.26077   -225.71541    139212.98   -43129.205    3834.9742   -46964.179    1357.4057   0.99018439 
  100200    274.64338    -227.7429    139554.21    -43143.28    3771.5654   -46914.845    1361.1058   0.98776325 
  100300    277.17211   -607.05506    139431.08   -43180.234    3806.2915   -46986.526    1362.2335   0.98863554 
  100400    274.82594   -613.24003    139387.94   -43160.867    3774.0724   -46934.939    1363.8626   0.98894149 
  100500    275.47749   -390.71566    139430.92    -43189.29      3783.02    -46972.31    1365.7657   0.98863666 
  100600    271.98138   -724.57542    139041.07   -43241.688    3735.0093   -46976.697    1364.3875   0.99140866 
  100680    275.92846    -401.8841    138956.62   -43185.239     3789.213   -46974.452     1364.864   0.99201114 
Loop time of 182.303 on 6 procs for 100000 steps with 4608 atoms

Performance: 236.968 ns/day, 0.101 hours/ns, 548.537 timesteps/s
99.3% CPU use with 6 MPI tasks x no OpenMP threads

MPI task timing breakdown:
Section |  min time  |  avg time  |  max time  |%varavg| %total
---------------------------------------------------------------
Pair    | 160.37     | 162.27     | 164.69     |  12.5 | 89.01
Neigh   | 7.4937     | 7.6037     | 7.7388     |   3.3 |  4.17
Comm    | 7.3702     | 9.6963     | 11.689     |  52.8 |  5.32
Output  | 0.17333    | 0.17402    | 0.17726    |   0.3 |  0.10
Modify  | 1.8446     | 1.9348     | 2.0143     |   3.6 |  1.06
Other   |            | 0.6232     |            |       |  0.34

Nlocal:        768.000 ave         778 max         753 min
Histogram: 1 0 0 1 0 0 2 0 0 2
Nghost:        1675.17 ave        1690 max        1659 min
Histogram: 1 0 2 0 0 0 1 0 0 2
Neighs:        0.00000 ave           0 max           0 min
Histogram: 6 0 0 0 0 0 0 0 0 0
FullNghs:      25532.7 ave       25926 max       24836 min
Histogram: 1 0 0 0 1 0 0 2 1 1

Total # of neighbors = 153196
Ave neighs/atom = 33.245660
Neighbor list builds = 7071
Dangerous builds = 0

undump              1
unfix               2
unfix               3
unfix               4


################################################
#######         Run Simulation         #########
################################################

reset_timestep      0
log                 log.run_${NAME}
log                 log.run_liq_275K_-500atm_mW
