
# Define the lattice
#
variable	    lattice_constant equal 6.36339
lattice		    diamond ${lattice_constant}
lattice		    diamond 6.36339
Lattice spacing in x,y,z = 6.3633900 6.3633900 6.3633900

# Define region
# multiples of lattice spacing
#
region 		    simbox block 0 9 0 8 0 8

# Create Atoms
#
create_box          1 simbox
Created orthogonal box = (0.0000000 0.0000000 0.0000000) to (57.270510 50.907120 50.907120)
  3 by 1 by 2 MPI processor grid
create_atoms        1 box
Created 4608 atoms
  create_atoms CPU = 0.001 seconds
mass                1 18.015

# Define potential
#
pair_style          sw
pair_coeff          * * /data/emrosky-sim/Freezing_Simulations/Melting/mW_fancy/mW.sw mW
Reading sw potential file /data/emrosky-sim/Freezing_Simulations/Melting/mW_fancy/mW.sw with DATE: 2019-02-27

# Add velocity/set timestep
#
velocity            all create ${TEMP} 120598 rot yes dist gaussian
velocity            all create 275 120598 rot yes dist gaussian
timestep            5.0

# Define output
#
compute	            1 all msd
thermo              100
thermo_style        custom step temp press vol etotal ke pe c_1[4]

# Neighbor lists
#
neigh_modify        delay 0 every 1 check yes

# Set fixes
#
fix                 1 all momentum 10 linear 1 1 1 rescale
fix                 2 all nve
fix                 3 all temp/csvr ${TEMP} ${TEMP} 500.0 928347
fix                 3 all temp/csvr 275 ${TEMP} 500.0 928347
fix                 3 all temp/csvr 275 275 500.0 928347
fix                 4 all press/berendsen iso ${PRES} ${PRES} 1000.0 modulus 20000
fix                 4 all press/berendsen iso -500 ${PRES} 1000.0 modulus 20000
fix                 4 all press/berendsen iso -500 -500 1000.0 modulus 20000

# Run 0.5 ns equilibration
#
dump		    1 all custom 1000 eq.${NAME}.dump id type x y z vx vy vz
dump		    1 all custom 1000 eq.ice_275K_-500atm_mW.dump id type x y z vx vy vz
run                 100000
Neighbor list info ...
  update every 1 steps, delay 0 steps, check yes
  max neighbors/atom: 2000, page size: 100000
  master list distance cutoff = 6.3065
  ghost atom cutoff = 6.3065
  binsize = 3.15325, bins = 19 17 17
  1 neighbor lists, perpetual/occasional/extra = 1 0 0
  (1) pair sw, perpetual
      attributes: full, newton on
      pair build: full/bin/atomonly
      stencil: full/bin/3d
      bin: standard
Per MPI rank memory allocation (min/avg/max) = 4.778 | 4.778 | 4.778 Mbytes
Step Temp Press Volume TotEng KinEng PotEng c_1[4] 
       0          275   -4570.5261    148418.52   -52777.059    3776.4628   -56553.522            0 
     100    218.56814   -1088.0431     141746.4   -51599.801    3001.5071   -54601.308   0.24644031 
     200    216.97985   -526.82971    141161.88   -50712.734    2979.6958    -53692.43   0.32336701 
     300    226.68999   -469.95076    141315.25   -50140.363    3113.0412   -53253.404    0.3367158 
     400    245.92897   -502.05537     141508.8   -49751.176    3377.2422   -53128.418   0.30603054 
     500    263.47643   -521.03707    141649.43   -49475.721    3618.2144   -53093.935   0.31798465 
     600    262.41676   -447.97205    141770.99   -49210.757    3603.6622   -52814.419   0.34195538 
     700    269.64663   -455.74914    141801.69   -49140.264    3702.9471   -52843.211   0.29038591 
     800     271.3902   -520.22746       141840    -49056.04    3726.8909   -52782.931   0.32327117 
     900    268.95516   -493.37269    141909.05   -49041.609    3693.4514    -52735.06   0.31862644 
    1000    278.57369    -458.7576    141862.58   -49086.604    3825.5388   -52912.143    0.3028021 
    1100    275.58689   -490.95239    141888.92       -49026    3784.5224   -52810.522   0.29861037 
    1200    281.65479   -467.29696    141890.25   -49028.391    3867.8503   -52896.241   0.30936849 
    1300    275.31762   -520.67739    141891.25   -48938.747    3780.8245   -52719.571   0.33384369 
    1400    273.77809   -501.51263    141894.38   -49029.664    3759.6827   -52789.347   0.29369775 
    1500    270.63109   -528.96281    141868.54   -49067.663    3716.4663   -52784.129   0.31801796 
    1600    282.54435   -521.82486    141869.86    -49006.66    3880.0662   -52886.727   0.32884826 
    1700    275.20328   -491.67229    141889.46   -49029.326    3779.2543    -52808.58   0.29700816 
    1800    273.74013   -487.10473     141898.3   -49021.481    3759.1616   -52780.643   0.30139443 
    1900    275.71779   -482.21611    141913.28   -48930.291    3786.3199   -52716.611   0.32255039 
    2000    278.86501   -487.32113    141939.05   -48882.568    3829.5394   -52712.107   0.32140284 
    2100    270.28241   -509.80847    141908.62   -49045.459     3711.678   -52757.137   0.29249169 
    2200    279.14704   -518.19781    141909.14   -48983.863    3833.4123   -52817.275   0.31339402 
    2300    276.53425   -520.24891    141924.89   -48916.125     3797.532   -52713.657   0.33430166 
    2400    278.91851   -485.82958    141931.31   -48941.597     3830.274   -52771.871   0.29413944 
    2500    277.05602   -444.90211    141920.07   -48984.248    3804.6972   -52788.945   0.30600698 
    2600    273.00473   -498.61753    141893.77   -49015.714    3749.0625   -52764.777   0.33073515 
    2700    272.77297   -483.33485     141889.4   -48995.898    3745.8798   -52741.778   0.31096216 
    2800    276.66625   -464.83079       141897   -48902.349    3799.3447   -52701.694   0.30203471 
    2900    275.11399   -531.48299    141934.58   -48913.668    3778.0282   -52691.696    0.3363783 
    3000    279.52657   -533.04981    141883.38   -48968.128    3838.6243   -52806.752    0.3214159 
    3100    278.52566   -486.42964    141883.69   -48938.886    3824.8793   -52763.765   0.29864846 
    3200    275.96656   -529.14148     141869.3   -49050.746    3789.7362   -52840.482   0.31921402 
    3300    274.98952   -509.74501    141801.34   -49108.339    3776.3189   -52884.658   0.33145311 
    3400    276.16556   -464.34946    141796.49   -49042.847    3792.4689   -52835.316   0.30073917 
    3500    271.28157    -525.4681    141813.98   -49006.734    3725.3992   -52732.133   0.32257525 
    3600    274.54948   -494.85785    141816.93   -49017.141     3770.276   -52787.417   0.33866257 
    3700    276.44573   -488.48484    141837.84   -48978.236    3796.3163   -52774.552   0.31887348 
    3800     270.8614   -501.64664    141872.14   -48970.987     3719.629   -52690.616    0.3063472 
    3900    273.57898   -507.02658    141852.18   -48971.814    3756.9485   -52728.762   0.33981389 
    4000    275.57902   -500.84977    141851.35   -49017.599    3784.4142   -52802.013   0.33170911 
    4100     273.0291   -491.69769    141837.28    -49026.22    3749.3972   -52775.618    0.3069081 
    4200    274.51498   -471.45377    141845.48   -48982.279    3769.8022   -52752.081   0.32049531 
    4300    270.99516   -546.13254    141849.71   -49110.952    3721.4659   -52832.418   0.33432704 
    4400    275.52922   -498.38505    141848.65   -49007.045    3783.7304   -52790.776   0.32043293 
    4500    276.40717   -521.44183    141860.55   -49065.666    3795.7869   -52861.453   0.30712567 
    4600    274.30457   -509.55751    141810.99   -49090.346    3766.9128   -52857.259    0.3374844 
    4700    279.01641   -457.85586    141841.61   -49000.931    3831.6184   -52832.549   0.31772099 
    4800     276.3102    -458.7003    141845.32   -48905.157    3794.4553   -52699.613   0.31259463 
    4900    275.87247   -536.06336    141858.47   -48876.108    3788.4441   -52664.552    0.3348212 
    5000    274.01325   -508.98824    141863.48   -48998.912    3762.9121   -52761.824    0.3386334 
    5100    272.25007   -516.46081    141857.27   -48926.384    3738.6992   -52665.084   0.30929747 
    5200    273.25324   -528.08597    141864.95   -48994.859    3752.4752   -52747.334   0.33191001 
    5300    271.08569   -516.25316    141804.63   -49093.517    3722.7091   -52816.226   0.34821635 
    5400    272.55102   -498.78125     141791.9   -49068.109     3742.832   -52810.941   0.29589909 
    5500    272.50941   -463.62115    141825.17   -49037.859    3742.2605   -52780.119   0.32081931 
    5600    275.75873   -487.87654    141825.83   -49071.626    3786.8821   -52858.508   0.33085926 
    5700    272.94577   -491.75321    141816.49   -49062.137    3748.2529    -52810.39   0.32090257 
    5800    272.73824   -500.44763    141818.03   -49002.801    3745.4029   -52748.204   0.31358536 
    5900    271.16478   -510.09873    141823.88   -49081.571    3723.7953   -52805.366    0.3355333 
    6000    270.79009   -494.61536    141811.73   -49058.638    3718.6497   -52777.288   0.32678201 
    6100    271.17967   -515.20046    141812.71   -49132.947    3723.9997   -52856.947   0.30422104 
    6200    273.28241   -513.37495    141799.77    -49116.27    3752.8758   -52869.146   0.32847241 
    6300    274.10632   -494.49584    141834.46   -49002.508    3764.1902   -52766.698   0.32815436 
    6400    274.84505    -481.3692    141795.81   -49052.866    3774.3348   -52827.201   0.30821835 
    6500    272.46156   -541.17494    141777.71   -49060.761    3741.6034   -52802.365   0.32127352 
    6600    275.08951   -462.88798    141790.85   -49068.546    3777.6919   -52846.238   0.32783329 
    6700    268.84878   -483.45308    141766.15   -49115.096    3691.9906   -52807.086   0.32975914 
    6800    274.28701   -512.79732    141747.38   -49076.724    3766.6716   -52843.395   0.31137472 
    6900    276.23481   -492.34594     141812.5   -49003.412    3793.4199   -52796.832   0.32770215 
    7000    273.99449    -505.0011    141824.83   -49000.839    3762.6545   -52763.494   0.33106571 
    7100    272.24893   -471.88623    141834.16   -49007.815    3738.6834   -52746.499   0.30727552 
    7200    270.52497   -526.46597    141822.09    -49121.92    3715.0089   -52836.929   0.32218772 
    7300    270.23232   -540.15954    141776.89   -49164.189    3710.9901   -52875.179   0.33304094 
    7400    270.77727   -492.83277    141816.64   -49062.238    3718.4737   -52780.711    0.3181378 
    7500    280.98868   -476.18968    141854.68   -48999.798    3858.7029   -52858.501    0.3040572 
    7600    275.07975   -501.55615    141863.21   -48972.956     3777.558   -52750.514   0.33716544 
    7700    273.00595   -536.15845    141867.81   -49069.578    3749.0793   -52818.657   0.31783818 
    7800    274.89135   -496.97953    141851.98   -49120.009    3774.9707    -52894.98   0.29455796 
    7900     272.6259   -497.67396    141848.28   -49070.055    3743.8603   -52813.915   0.32595024 
    8000    276.29474   -472.91804    141858.61   -48966.483    3794.2429   -52760.726   0.33544662 
    8100    277.87052   -519.86742    141879.82   -48941.213    3815.8825   -52757.096   0.30158033 
    8200     278.7242   -522.51871    141858.32   -48959.244    3827.6057    -52786.85   0.32377509 
    8300    276.25602   -498.63371       141841   -48917.619    3793.7112    -52711.33   0.34174714 
    8400    275.99964   -510.23775    141887.44   -48892.107    3790.1904   -52682.298   0.31587983 
    8500    275.65814    -515.4336    141868.12   -48975.169    3785.5007    -52760.67    0.3132468 
    8600    274.16946    -533.3764    141852.68   -48988.341    3765.0573   -52753.398   0.33502414 
    8700    280.14677   -469.78367    141865.43   -48962.821    3847.1412   -52809.962   0.31507164 
    8800    276.99521   -515.26616    141818.85   -48997.706    3803.8622   -52801.569    0.3057787 
    8900    274.20467   -478.82838    141799.33   -49057.861    3765.5408   -52823.402   0.33021547 
    9000    272.83696   -450.22845    141833.87   -48996.484    3746.7586   -52743.242   0.32567314 
    9100    273.83602   -507.01074    141842.14   -49045.323    3760.4783   -52805.802   0.31132698 
    9200    278.92006   -501.57734    141861.58   -48942.661    3830.2954   -52772.957   0.31609203 
    9300    274.53956   -521.96612     141837.8    -49085.32    3770.1397   -52855.459   0.33647325 
    9400    271.28228   -492.24469    141830.57   -49050.288    3725.4088   -52775.697   0.30692894 
    9500    273.53374   -500.75371    141803.95   -49091.516    3756.3273   -52847.844   0.30886848 
    9600    271.45762   -479.36724    141795.06   -49080.593    3727.8167    -52808.41   0.32488105 
    9700     277.1795   -518.38769    141842.06   -48968.254     3806.393   -52774.647   0.32399677 
    9800    275.46397   -522.54462    141868.28   -48918.048    3782.8343   -52700.882   0.31894269 
    9900    277.20736   -503.82243    141853.08   -48946.885    3806.7755   -52753.661   0.31415337 
   10000    275.88459   -505.94639    141843.54   -49000.429    3788.6104    -52789.04     0.336542 
   10100    277.32469   -516.57267    141856.64   -48957.571    3808.3868   -52765.958   0.30593066 
   10200    275.15398   -501.80283    141878.64   -48930.191    3778.5773   -52708.769   0.31652067 
   10300    279.09699   -527.03582    141892.01   -48927.178    3832.7251   -52759.903   0.32824217 
   10400    277.20176   -527.24846    141884.12   -48935.435    3806.6987   -52742.134   0.31315072 
   10500    271.96493    -507.1253    141859.02   -48981.461    3734.7835   -52716.244   0.31345096 
   10600    272.94739   -525.31719    141865.15   -49005.151    3748.2751   -52753.426   0.33345823 
   10700    271.73323   -479.31033     141859.4    -49028.48    3731.6016   -52760.082   0.32162124 
   10800    267.77163   -507.49483    141802.79   -49149.218    3677.1985   -52826.416   0.30559467 
   10900    270.20038   -501.64171    141770.42   -49136.345    3710.5515   -52846.896   0.31824742 
   11000    270.31952    -515.1929    141786.72     -49149.7    3712.1877   -52861.887     0.322164 
   11100    274.74737   -471.24368    141818.38    -49061.73    3772.9935   -52834.723   0.30640453 
   11200    269.08299   -531.27806    141783.09   -49160.022    3695.2069   -52855.229   0.32070663 
   11300    272.04233   -527.92053    141782.13   -49083.016    3735.8463   -52818.863   0.33075718 
   11400    278.30294   -489.39582     141800.5   -49058.747    3821.8207   -52880.568   0.31202636 
   11500    275.12403   -485.23018    141822.74    -48968.35    3778.1661   -52746.516   0.31974923 
   11600    274.96292   -526.45376    141824.92   -48953.081    3775.9536   -52729.034   0.33358068 
   11700    276.74773   -462.73425    141871.97   -48831.781    3800.4636   -52632.245    0.3277933 
   11800    280.00923   -488.59941    141857.98   -48898.525    3845.2524   -52743.778   0.31907814 
   11900    279.37777    -484.6398    141827.89   -48941.818    3836.5808   -52778.398   0.31496676 
   12000     278.9371   -479.73723    141831.19   -48908.413    3830.5294   -52738.943   0.32832106 
   12100    276.60182   -494.19045    141834.09   -48964.477    3798.4599   -52762.937   0.32184552 
   12200    275.64419   -528.05119    141799.38   -48967.063    3785.3091   -52752.372   0.31134023 
   12300    277.17701   -461.10471    141792.31   -49019.431    3806.3588    -52825.79    0.3320166 
   12400    277.34877   -508.17869    141801.17   -49011.763    3808.7175   -52820.481   0.31856825 
   12500    278.70146   -502.41549    141821.26   -48947.658    3827.2933   -52774.951   0.30760154 
   12600    275.61651    -499.0067     141820.4   -48911.747     3784.929   -52696.676   0.33514623 
   12700    278.06526   -484.35775       141822   -48987.496    3818.5567   -52806.052   0.33324701 
   12800    276.62649   -516.78885     141823.8   -48972.886    3798.7987   -52771.685   0.30903465 
   12900    277.23198   -486.78976    141804.06   -49029.827    3807.1137   -52836.941   0.32045466 
   13000    276.02493   -479.14906    141807.24    -49001.73    3790.5377   -52792.267   0.33477755 
   13100    275.30819   -512.89131    141794.23   -49075.305     3780.695       -52856   0.31112614 
   13200    268.98734   -494.05907    141772.21   -49101.984    3693.8933   -52795.878    0.3198555 
   13300    267.17539   -543.63835    141771.96   -49184.848    3669.0106   -52853.859    0.3385554 
   13400     269.6398   -485.10399    141766.27   -49167.072    3702.8533   -52869.926   0.32117772 
   13500    271.93499   -478.64502    141820.97   -49084.231    3734.3722   -52818.603   0.31245355 
   13600    277.18424   -495.28252    141814.01   -49037.638     3806.458   -52844.096   0.33054874 
   13700    276.81102    -517.4773    141803.01   -49060.326    3801.3328   -52861.659   0.31555849 
   13800    277.01842   -486.47925    141838.14   -49017.932    3804.1809   -52822.113   0.32292315 
   13900    279.60432   -504.14571    141820.34   -49005.488     3839.692    -52845.18   0.31488406 
   14000    276.05408   -498.30159    141857.25   -48903.402    3790.9381    -52694.34   0.33408696 
   14100    273.20167   -497.99742    141811.87   -48979.611    3751.7671   -52731.378   0.33045938 
   14200    273.80607   -525.07465    141795.02   -48986.265     3760.067   -52746.332   0.31104892 
   14300    270.38387   -510.96482     141808.5   -49023.186    3713.0714   -52736.258   0.33554484 
   14400    269.69032   -514.77747    141786.28   -49073.422    3703.5471    -52776.97    0.3316474 
   14500    271.58379    -524.8532    141795.07   -49096.571    3729.5494    -52826.12   0.30881024 
   14600    275.11857   -482.31043     141800.6   -49046.648     3778.091   -52824.739   0.31748035 
   14700    278.59563   -478.13782    141818.16   -49003.957    3825.8401   -52829.797   0.33646209 
   14800    271.08553   -504.67414    141854.28   -48982.648     3722.707   -52705.355   0.31365295 
   14900    275.14896    -476.2726    141867.17   -48996.657    3778.5084   -52775.165   0.30243667 
   15000    270.01285   -504.13874    141847.21    -49058.25    3707.9763   -52766.226   0.33890794 
   15100    274.25485   -482.29557    141829.16   -49070.357      3766.23   -52836.587   0.31869227 
   15200    278.32409   -503.26244    141813.75   -49001.146    3822.1111   -52823.258   0.30708467 
   15300    273.31978   -495.59486    141824.86   -49078.568     3753.389   -52831.957    0.3347716 
   15400    270.10685   -498.07609    141816.12    -49073.85    3709.2671   -52783.117   0.32729537 
   15500    274.80814   -496.55631    141823.11   -49013.903     3773.828   -52787.731   0.30535497 
   15600    276.93739   -462.44924    141870.93   -48894.176    3803.0682   -52697.245   0.31605096 
   15700    280.76205   -481.38514    141893.68   -48911.106    3855.5906   -52766.697   0.32569994 
   15800    277.49536   -498.56919    141902.94    -48914.79    3810.7306    -52725.52   0.31350061 
   15900    276.95525   -509.81934    141885.18   -48934.859    3803.3135   -52738.172   0.31141835 
   16000    273.99852   -529.40278    141897.67   -48980.542    3762.7098   -52743.252   0.32816425 
   16100    273.76954   -497.87985    141859.12   -49011.699    3759.5654   -52771.265   0.31723678 
   16200    276.80487   -514.26129    141870.41   -49019.392    3801.2484   -52820.641   0.30258966 
   16300    274.67877   -537.24165    141865.79   -49048.824    3772.0514   -52820.875   0.32292429 
   16400    276.22822   -516.83105    141849.29   -49051.298    3793.3295   -52844.628   0.32312939 
   16500    271.51071   -506.98842    141860.26   -48970.016    3728.5457   -52698.562   0.31005352 
   16600     277.1335   -475.72399     141871.1   -48898.749    3805.7613    -52704.51    0.3176396 
   16700    276.62767   -505.04784    141864.01   -48938.868    3798.8149   -52737.683   0.33242951 
   16800    275.87171   -518.33945    141841.72   -48990.919    3788.4337   -52779.353   0.31914472 
   16900    272.57682   -458.22164    141802.11   -49011.314    3743.1862   -52754.501    0.3142775 
   17000    270.34908   -504.83343    141784.02   -49060.653    3712.5936   -52773.247   0.33639223 
   17100    274.96242   -493.03299    141813.92   -49014.085    3775.9467   -52790.032    0.3223339 
   17200    273.65497   -484.59735     141786.9   -49071.301     3757.992   -52829.293   0.31303986 
   17300    270.97817   -487.16196     141769.4   -49158.371    3721.2327   -52879.603    0.3214453 
   17400    273.02095   -495.52421    141728.23   -49147.256    3749.2852   -52896.541   0.33155177 
   17500    270.40442   -477.37248    141743.78   -49041.618    3713.3535   -52754.971   0.31945637 
   17600    271.66994   -498.81528    141779.53   -49055.656    3730.7325   -52786.388   0.31578666 
   17700    275.31313   -459.30383    141764.88   -49109.757    3780.7628   -52890.519   0.33271757 
   17800     276.2196   -476.18655    141780.18   -49070.687    3793.2111   -52863.898   0.32071713 
   17900    275.38111   -506.95921     141768.1   -49007.317    3781.6964   -52789.013   0.31882678 
   18000     280.2591   -483.64758    141792.31   -48925.765    3848.6839   -52774.449   0.33793365 
   18100    281.33165   -517.84368    141804.53   -48929.268    3863.4127   -52792.681   0.33362413 
   18200    279.06282   -506.20777    141820.06   -48975.547    3832.2558   -52807.803   0.30454023 
   18300    274.55035   -505.83291    141822.29   -48984.144     3770.288   -52754.432   0.33158335 
   18400    274.20955     -484.292    141800.26   -49077.425    3765.6079   -52843.033   0.33298002 
   18500    275.48122   -501.72375     141792.3   -49022.997    3783.0712   -52806.068    0.3108895 
   18600    278.58193    -482.1756    141781.64   -48967.508     3825.652    -52793.16   0.32330018 
   18700    276.59696    -497.8357    141792.43   -48982.379    3798.3932   -52780.772   0.34191411 
   18800    275.03412   -495.57185    141809.58   -49006.443    3776.9313   -52783.374   0.31970328 
   18900      280.234   -489.57284    141827.02   -48969.066    3848.3392   -52817.405   0.31176612 
   19000    272.89106   -538.51961    141808.19    -48999.17    3747.5016   -52746.671   0.34636633 
   19100    280.71064   -497.28683    141842.71   -48914.272    3854.8847   -52769.157   0.32115794 
   19200    277.51217   -486.57594    141815.13   -48942.944    3810.9613   -52753.905   0.31778929 
   19300    280.12466    -502.9487    141811.15   -48834.853    3846.8376   -52681.691   0.33690904 
   19400    276.87894   -431.87655    141808.32   -48895.459    3802.2655   -52697.725   0.33252521 
   19500    275.48162   -495.16447     141811.5   -48890.696    3783.0766   -52673.773   0.32845457 
   19600    273.24806   -504.19377    141807.92   -48884.243    3752.4041   -52636.647   0.33553442 
   19700    280.14109   -472.54228    141834.25   -48932.744    3847.0633   -52779.807   0.33555479 
   19800    278.75988   -489.33169    141844.24   -48887.022    3828.0957   -52715.118   0.32515189 
   19900    274.70227    -494.9263    141841.48   -48965.164    3772.3742   -52737.539   0.32127158 
   20000    276.85737   -520.43873    141802.92   -48990.612    3801.9693   -52792.581   0.33053288 
   20100    271.19865   -518.78261    141783.47   -49036.267    3724.2604   -52760.527   0.33462353 
   20200     274.9144   -499.62466     141759.2   -49012.587    3775.2873   -52787.874   0.31844158 
   20300    270.03375   -488.00544    141781.56   -48974.588    3708.2633   -52682.851   0.33119424 
   20400    270.45917   -544.42592    141805.55   -49036.261    3714.1055   -52750.366   0.34619702 
   20500    265.37814   -514.49869    141770.87   -49066.713    3644.3297   -52711.043   0.32262471 
   20600    270.45368   -488.28773    141772.81   -49091.714    3714.0301   -52805.744   0.32234985 
   20700    275.11228   -466.99939    141805.72   -49042.432    3778.0047   -52820.437   0.33835719 
   20800    282.02974   -481.88888    141810.38   -48907.423    3872.9994   -52780.423   0.31905543 
   20900    274.81504   -510.03085    141813.78   -49011.577    3773.9228     -52785.5   0.31531692 
   21000     273.8979   -531.93866    141818.23   -49021.223    3761.3281   -52782.551   0.33181103 
   21100    281.14943   -461.36832    141838.21   -48909.335    3860.9103   -52770.245   0.32702432 
   21200    276.31189   -462.29707    141850.81   -48925.574    3794.4784   -52720.053   0.31853307 
   21300    279.54939   -516.25711    141855.46   -48918.689    3838.9377   -52757.627   0.32555642 
   21400    272.91626   -499.79569    141851.11   -48957.205    3747.8476   -52705.052    0.3264584 
   21500    278.91401   -495.08661    141861.56   -48865.504    3830.2123   -52695.716   0.31666637 
   21600    280.38667   -513.72877    141870.33   -48869.218    3850.4357   -52719.654   0.32171318 
   21700    272.97299   -527.49661    141832.89   -48998.829    3748.6266   -52747.456   0.32540582 
   21800     276.2901   -510.39006    141806.25   -49035.344    3794.1792   -52829.523   0.32164906 
   21900    273.56811   -501.76716     141787.4   -49004.696    3756.7993   -52761.495   0.32788794 
   22000    273.75402   -530.99451    141774.53   -49036.753    3759.3522   -52796.105    0.3191919 
   22100    270.37393   -517.18278    141789.04   -49080.104    3712.9348   -52793.039    0.3293701 
   22200    269.41209   -513.95692    141733.09   -49157.898    3699.7263   -52857.624   0.32870844 
   22300    269.24042   -475.59259    141755.64   -49050.907    3697.3688   -52748.275   0.31452113 
   22400    279.05055   -517.42036    141827.42   -49005.946    3832.0873   -52838.033   0.33179567 
   22500    277.11586    -473.1199    141819.79   -48952.886     3805.519   -52758.405   0.32617679 
   22600     277.0746   -467.46458     141821.5   -48997.393    3804.9524   -52802.345    0.3117447 
   22700    270.89087   -553.89916    141789.27   -49053.306    3720.0338    -52773.34    0.3355666 
   22800    274.68999   -525.19215    141801.76   -48981.338    3772.2056   -52753.544   0.33256841 
   22900    273.84857   -472.68021    141799.37   -49012.732    3760.6506   -52773.383   0.31551562 
   23000     269.5338   -519.23222    141784.92   -49082.867    3701.3977   -52784.265   0.32467747 
   23100     272.6805   -479.36554    141776.98   -49021.968      3744.61   -52766.578   0.33723147 
   23200    278.38669   -491.47196    141822.29   -48974.882    3822.9708   -52797.852   0.31525684 
   23300       272.98   -522.28823    141798.63   -48970.011     3748.723   -52718.734   0.33158859 
   23400    278.16903   -503.55181    141792.16   -49018.525    3819.9818   -52838.507   0.33401202 
   23500    276.60069    -514.1359    141828.07   -48910.535    3798.4444   -52708.979   0.32487368 
   23600    279.51923   -521.49606    141860.34   -48926.347    3838.5236    -52764.87   0.31802022 
   23700    276.97991    -497.6816    141839.52   -48918.507    3803.6521   -52722.159   0.33389708 
   23800    275.47498   -490.36658     141860.4   -48928.242    3782.9855   -52711.227   0.31937945 
   23900    272.29164   -515.61936    141866.36   -49016.479      3739.27   -52755.749    0.3155441 
   24000    279.00181   -476.20596    141856.32   -48962.119     3831.418   -52793.537    0.3318039 
   24100      277.677   -494.87088    141875.23    -48900.63     3813.225   -52713.855   0.32381909 
   24200    274.92585     -517.839    141872.09   -49023.064    3775.4445   -52798.508   0.31852366 
   24300    272.08492   -511.78558    141832.45   -49059.246    3736.4312   -52795.678   0.32671131 
   24400    275.17417   -471.38331    141815.38   -49082.048    3778.8546   -52860.902   0.31861079 
   24500    276.29335    -478.7182    141819.72   -49037.021    3794.2238   -52831.244   0.31679693 
   24600    274.64947   -466.70605    141830.86   -49082.243    3771.6491   -52853.893   0.32203553 
   24700    271.02106   -470.94203    141812.97   -49086.876    3721.8216   -52808.698   0.31834912 
   24800    274.25226   -505.27613    141809.45   -49023.403    3766.1944   -52789.597   0.32337595 
   24900    272.85653      -477.01    141791.75   -49079.385    3747.0273   -52826.412    0.3257586 
   25000    276.04734    -476.7246    141794.32   -49064.057    3790.8454   -52854.903   0.31648131 
   25100    274.54116   -520.30055    141769.27   -49116.341    3770.1618   -52886.503   0.32306868 
   25200    267.24572   -546.40369    141739.11   -49242.023    3669.9764   -52911.999   0.32437566 
   25300    271.08892   -477.79619    141766.91   -49081.102    3722.7535   -52803.856   0.31792582 
   25400    269.66293   -477.21973    141808.61   -49118.712     3703.171   -52821.883   0.31761156 
   25500    272.09773   -497.84714    141849.57    -49013.87    3736.6071   -52750.477   0.32668988 
   25600    270.96256   -519.58388       141864   -48945.757    3721.0182   -52666.776   0.31704988 
   25700    276.13142   -528.52219    141838.97   -49032.832    3792.0001   -52824.832   0.31866422 
   25800    277.95338   -514.67944    141852.76    -48893.24    3817.0203   -52710.261    0.3330884 
   25900    284.49026   -535.46474    141891.47   -48922.082    3906.7886   -52828.871   0.31685641 
   26000    274.75365    -500.8452    141839.12   -48967.854    3773.0797   -52740.933   0.32686732 
   26100    278.18742   -483.88168     141861.1   -48944.893    3820.2343   -52765.127   0.32864539 
   26200    272.24066   -532.81599    141845.42   -49043.896    3738.5699   -52782.466   0.31803986 
   26300    272.79955   -485.74364    141829.05   -49011.123    3746.2449   -52757.367   0.32087238 
   26400    274.60947   -522.50777    141861.22   -49070.893    3771.0997   -52841.993   0.32176274 
   26500    277.54442   -504.24636    141862.12   -48980.532    3811.4042   -52791.937   0.31662394 
   26600    271.32998    -519.4641    141874.61   -48923.681    3726.0639   -52649.745   0.32534316 
   26700    278.07288   -477.95708    141883.59   -48928.593    3818.6613   -52747.254   0.32225062 
   26800    275.56849   -524.27451    141869.39   -48981.287    3784.2696   -52765.557   0.31830504 
   26900    280.79027   -494.03162    141863.84   -48924.902    3855.9782    -52780.88   0.32332536 
   27000    277.56238   -527.36703    141866.43   -48952.895    3811.6509   -52764.545   0.31379679 
   27100      279.188   -495.34994       141847   -48900.164    3833.9749   -52734.139    0.3228816 
   27200    273.87191   -517.26769    141840.04   -48966.266    3760.9712   -52727.237   0.31793655 
   27300    285.86588   -436.20402    141891.86   -48808.714    3925.6795   -52734.394   0.31788719 
   27400    273.52223   -514.58645    141869.73   -48922.642    3756.1691   -52678.811   0.32133388 
   27500    275.40889   -500.97213    141837.71   -49029.864    3782.0778   -52811.942   0.31705391 
   27600    268.80921   -527.40224    141784.59   -49079.137    3691.4472   -52770.584    0.3327031 
   27700    278.48095   -517.54626    141784.86   -48978.974    3824.2653    -52803.24   0.31192949 
   27800    279.72197   -533.19772    141819.69   -48959.207    3841.3077   -52800.515   0.33320478 
   27900    275.33403   -487.12103    141832.75   -49018.586    3781.0498   -52799.636   0.31612638 
   28000    273.32185   -527.05346    141780.18   -49084.272    3753.4174    -52837.69   0.31482413 
   28100    275.58341   -489.72462    141783.99   -49055.439    3784.4745   -52839.913   0.32794608 
   28200    277.55471   -498.53209     141798.3   -49030.769    3811.5455   -52842.315   0.31477463 
   28300    273.89352   -486.41807    141805.51   -49046.223    3761.2679   -52807.491   0.32122348 
   28400    274.04243    -488.3094    141818.07   -48978.247    3763.3129    -52741.56   0.32239351 
   28500    271.33215   -498.81468     141802.5   -49010.153    3726.0936   -52736.247   0.32156307 
   28600    274.11041   -498.25828    141822.52   -49018.456    3764.2464   -52782.702   0.31522319 
   28700     277.1143   -478.23855    141796.62   -49017.652    3805.4976    -52823.15   0.32086939 
   28800    272.66756   -524.54432    141773.81   -49061.333    3744.4323   -52805.766   0.32975318 
   28900    275.34464   -476.87049    141785.63   -49035.536    3781.1956   -52816.732   0.31169464 
   29000    272.72965   -495.94284    141817.07   -48974.239     3745.285   -52719.524   0.32877003 
   29100    278.54884   -480.81219    141842.57   -48975.029    3825.1976   -52800.227   0.32084574 
   29200    283.85958   -503.37318    141894.98   -48910.789    3898.1277   -52808.917   0.31077466 
   29300    278.36815   -500.76127     141900.9   -48918.805    3822.7163   -52741.521    0.3229916 
   29400    275.86392   -473.01717    141902.51     -48931.8    3788.3266   -52720.127   0.31827178 
   29500    271.41921   -462.11642    141879.13   -48969.373    3727.2892   -52696.662   0.31539829 
   29600    277.23571     -539.719    141880.39   -48951.649    3807.1648   -52758.814   0.32112308 
   29700    277.81382   -497.27106    141827.18   -49021.395    3815.1039   -52836.499   0.32315834 
   29800    273.71871    -502.3155    141786.25   -49108.958    3758.8673   -52867.826   0.31503947 
   29900    272.19977   -505.88427    141761.05   -49089.207    3738.0084   -52827.216   0.33221871 
   30000    275.38939   -469.30344    141767.49   -49052.752    3781.8101   -52834.562   0.32674836 
   30100    273.66567   -523.72184    141774.46   -49019.927    3758.1389   -52778.066   0.32436934 
   30200    277.29289   -520.75961    141777.63   -49026.707    3807.9501   -52834.657   0.33302419 
   30300    280.49697    -466.9517    141751.62   -49013.989    3851.9504    -52865.94   0.32528948 
   30400    272.44165   -508.00267    141761.62   -49051.638      3741.33   -52792.968   0.32155107 
   30500    270.04824     -524.132    141732.24   -49146.288    3708.4623   -52854.751   0.32689668 
   30600    272.64607   -450.92195    141763.99   -49024.119    3744.1371   -52768.256   0.32710355 
   30700    267.53568   -481.86112    141774.47   -49056.008    3673.9584   -52729.967   0.31566771 
   30800    276.34435   -456.79557    141795.86   -48999.108    3794.9242   -52794.032   0.33422084 
   30900    276.07566   -510.24819    141829.23   -48976.348    3791.2343   -52767.583     0.331126 
   31000     279.5105    -520.6373    141824.54   -49008.164    3838.4036   -52846.568   0.31100655 
   31100    272.59219   -468.94367     141801.1   -49016.743    3743.3974    -52760.14   0.33263073 
   31200    275.97376   -542.44022    141812.04   -48963.425     3789.835    -52753.26   0.32542302 
   31300    275.84714   -545.18063    141843.83   -48903.459    3788.0962   -52691.555   0.31741091 
   31400    275.63078   -519.79261    141845.28   -49017.206     3785.125   -52802.331   0.33141951 
   31500     278.2306   -515.12141    141860.75   -48968.282    3820.8273   -52789.109   0.31952947 
   31600    274.96325   -514.29159     141843.9   -48986.177    3775.9581   -52762.136   0.31025419 
   31700    273.43909   -538.28066    141855.23   -48961.259    3755.0274   -52716.286   0.32802321 
   31800    279.17562   -499.33801    141860.06   -49022.949    3833.8048   -52856.754   0.31958708 
   31900    269.84657   -490.11897    141839.03   -49016.186    3705.6928   -52721.879   0.31828317 
   32000    274.08249   -478.36571    141843.65   -48968.968     3763.863   -52732.831   0.32491535 
   32100    276.56732     -523.726    141837.71   -49009.883    3797.9862   -52807.869   0.32576189 
   32200    275.07811    -481.4164    141810.61   -49123.897    3777.5355   -52901.432   0.30958098 
   32300    273.12393   -481.48362    141782.09   -49067.305    3750.6995   -52818.004   0.32541352 
   32400     269.4775   -533.33263    141757.55   -49153.432    3700.6246   -52854.057   0.31925759 
   32500    277.98079    -489.3876    141782.36   -49017.552    3817.3967   -52834.949   0.31875769 
   32600     276.4956   -468.25552    141813.85   -48967.703    3797.0012   -52764.704    0.3304265 
   32700    270.24948   -522.84263    141806.43   -49062.151    3711.2258   -52773.377   0.32484219 
   32800    277.63341   -485.96995    141821.02   -48939.416    3812.6263   -52752.042   0.31844333 
   32900    273.46982   -530.40147       141813   -49000.252    3755.4495   -52755.701   0.33509147 
   33000    273.42137   -502.22158    141824.26    -48987.04    3754.7841   -52741.824   0.32165505 
   33100    274.00214   -455.83972    141818.77    -49019.94    3762.7595     -52782.7   0.30930402 
   33200    274.58149   -493.90268    141815.64    -49001.87    3770.7155   -52772.586   0.32876954 
   33300    277.07933   -500.06458    141832.68   -49004.099    3805.0173   -52809.116   0.31479251 
   33400    272.43994   -506.16465    141817.03     -49025.4    3741.3066   -52766.707   0.32581053 
   33500    269.67537   -500.57442    141834.23   -49050.583    3703.3418   -52753.925   0.32640823 
   33600    268.77555   -471.97183     141812.8   -49059.387    3690.9849   -52750.372   0.32142481 
   33700    273.14123   -512.04725    141834.54   -48965.063     3750.937       -52716    0.3205977 
   33800    277.59812   -502.94614    141874.82   -48858.798    3812.1416    -52670.94   0.32791614 
   33900    284.52532   -499.04411    141867.64   -48885.874    3907.2701   -52793.144   0.32234592 
   34000    272.01184   -489.09763    141816.72   -49017.307    3735.4276   -52752.735   0.32167437 
   34100     274.1475   -505.41671    141815.35   -49033.237    3764.7558   -52797.992   0.32310355 
   34200    278.42721    -506.3113    141801.56   -49033.289    3823.5273   -52856.816   0.32209783 
   34300     272.9783   -497.02276    141801.57   -49065.785    3748.6996   -52814.484   0.31227371 
   34400    275.48175   -487.54551    141791.91    -49001.52    3783.0784   -52784.599   0.32948245 
   34500    277.75141   -496.45508     141832.5   -48925.143    3814.2467    -52739.39   0.31573832 
   34600    278.85111   -513.85671    141876.77   -48922.082    3829.3485    -52751.43   0.31864599 
   34700    274.56907   -498.80059    141843.45   -49028.151     3770.545   -52798.696   0.32769617 
   34800    270.82867   -456.59699     141803.2   -49015.743    3719.1796   -52734.923   0.31301516 
   34900    274.39429   -490.58075    141827.68   -49004.017    3768.1449   -52772.162   0.32215514 
   35000    280.50944   -462.70823    141831.01   -48977.862    3852.1216   -52829.984   0.31735001 
   35100    272.68009   -531.91558     141854.6   -48999.595    3744.6043     -52744.2   0.31519952 
   35200    274.88763   -499.78221    141834.03   -48943.367    3774.9196   -52718.286   0.32588793 
   35300    274.21298   -518.37479    141866.34   -49026.298    3765.6549   -52791.953   0.31736761 
   35400    275.54639   -486.83141    141826.04   -49027.037    3783.9661   -52811.003    0.3089141 
   35500    274.65951   -467.47137    141825.25   -49010.127     3771.787   -52781.914   0.32134809 
   35600    275.04593   -498.26881    141860.98   -48988.228    3777.0935   -52765.322   0.32099828 
   35700    274.73195    -501.6832    141884.89   -49001.133    3772.7818   -52773.915   0.30989093 
   35800    277.20312   -515.34706    141936.49   -48847.919    3806.7174   -52654.637   0.31668168 
   35900    280.58336   -499.31959    141934.45   -48959.968    3853.1368   -52813.105   0.32259057 
   36000    275.94793   -493.57762    141889.49   -49013.981    3789.4803   -52803.461   0.30336057 
   36100    273.40119   -496.20443    141851.18   -49053.188     3754.507   -52807.695   0.31477517 
   36200     272.2352   -527.49839    141869.01   -49084.471    3738.4949   -52822.966   0.32676651 
   36300    275.97908   -481.08537    141843.84   -49020.607    3789.9081   -52810.515   0.30546064 
   36400    277.82507    -486.3193    141858.11   -49075.787    3815.2583   -52891.046   0.31021368 
   36500    274.61164    -474.3627    141836.25    -49051.62    3771.1296   -52822.749   0.32808382 
   36600    275.74499   -508.18305     141839.4   -49048.551    3786.6934   -52835.244   0.30686786 
   36700    272.54612   -494.93136    141835.73   -49081.919    3742.7647   -52824.684    0.3064775 
   36800     267.8383   -539.25327    141817.47   -49154.132    3678.1141   -52832.246   0.32284259 
   36900    272.76384   -488.07624    141793.64   -49077.341    3745.7545   -52823.095   0.31204188 
   37000    269.29655   -499.98936    141814.06   -49061.529    3698.1396   -52759.668   0.30830999 
   37100    269.83781   -482.98253    141827.21    -49104.65    3705.5725   -52810.222   0.32041461 
   37200    270.38726   -499.28623    141816.97   -49108.093    3713.1179   -52821.211   0.32388869 
   37300    269.43505   -526.27323    141796.75   -49100.261    3700.0416   -52800.303   0.31622503 
   37400    268.80087   -507.38647    141785.63   -49110.454    3691.3326   -52801.787   0.32581851 
   37500    272.61804   -472.60024    141798.61   -49080.808    3743.7523   -52824.561   0.31489999 
   37600    269.12247   -535.68932     141779.2    -49129.73    3695.7491   -52825.479    0.3240165 
   37700     269.7793    -467.7178    141778.38   -49209.561     3704.769    -52914.33   0.31875031 
   37800    265.27684     -499.919    141768.65   -49227.039    3642.9385   -52869.978   0.31141764 
   37900    272.65634   -506.56492    141788.65   -49140.286    3744.2782   -52884.564   0.32130484 
   38000    272.34929   -511.25124    141790.86   -49073.752    3740.0617   -52813.814   0.32471867 
   38100    274.15067   -514.33162    141839.57   -49019.334    3764.7992   -52784.133   0.30891658 
   38200    277.29346   -507.79343    141862.53   -48987.257    3807.9579   -52795.215    0.3193313 
   38300    274.73163   -541.96014     141881.6   -49031.373    3772.7773   -52804.151   0.32634444 
   38400    280.45839   -485.25589     141888.7   -48977.327    3851.4206   -52828.748   0.30364172 
   38500    278.50933   -515.40771    141841.18   -49026.611     3824.655   -52851.266   0.31614278 
   38600    279.51615   -479.48137    141828.06   -48988.627    3838.4813   -52827.108   0.33233815 
   38700    278.03431    -496.8028    141842.16   -48954.826    3818.1316   -52772.958    0.3099714 
   38800    277.05246   -514.86858     141832.4   -48986.987    3804.6484   -52791.635   0.31353231 
   38900     273.8138   -527.62831    141844.94   -48931.442    3760.1732   -52691.616   0.35105281 
   39000    272.78419   -507.99497    141861.69   -48983.494    3746.0339   -52729.528   0.30745362 
   39100    272.98088   -475.34231    141848.33    -49006.89     3748.735   -52755.625   0.30972138 
   39200    272.26138    -513.3759    141848.28   -49132.759    3738.8544   -52871.614   0.32898669 
   39300     268.3583   -492.16863    141797.62   -49140.227    3685.2551   -52825.482   0.31093298 
   39400    276.98684   -477.05222    141839.77   -49027.689    3803.7472   -52831.436   0.30269532 
   39500    273.56047   -484.95837     141832.3   -49004.289    3756.6943   -52760.983   0.33693355 
   39600    272.34971   -527.85765    141853.09   -49005.054    3740.0674   -52745.121   0.31703936 
   39700    279.29145   -464.56282    141883.81   -48990.384    3835.3955   -52825.779   0.30346199 
   39800    275.26559   -497.16276    141866.31   -49009.279      3780.11   -52789.389   0.32473625 
   39900    276.96626   -497.73839    141854.27   -48978.733    3803.4646   -52782.198   0.31969319 
   40000    275.32808   -519.06833    141801.33   -49041.755    3780.9682   -52822.724   0.32149929 
   40100    269.99487     -513.828    141809.08   -49053.996    3707.7294   -52761.726   0.32559919 
   40200    274.50345   -478.17349    141818.86    -49027.04    3769.6438   -52796.684   0.32298275 
   40300       275.29   -475.88848    141829.05   -49039.317    3780.4452   -52819.762   0.31978854 
   40400    273.20971   -508.82038    141820.44   -49120.878    3751.8775   -52872.756   0.31735946 
   40500    276.08135   -472.46339    141829.66   -48984.948    3791.3125    -52776.26   0.31847029 
   40600    278.07218   -528.04549    141829.96   -49053.436    3818.6518   -52872.087   0.32381964 
   40700    273.91555   -475.94649     141815.7    -49059.94    3761.5705   -52821.511   0.31456795 
   40800    275.00745   -524.53812    141825.34   -49034.432    3776.5651   -52810.997   0.31151676 
   40900    275.63537   -474.76729    141822.35   -49019.276     3785.188   -52804.464   0.32550239 
   41000    274.60327   -499.83931     141824.8   -49080.795    3771.0146    -52851.81   0.32692944 
   41100    275.10941    -498.7827    141847.46   -49050.884    3777.9652   -52828.849   0.30393974 
   41200    276.03268   -478.64468    141876.12   -48947.362    3790.6442   -52738.006   0.32998369 
   41300    277.94547   -509.07561    141863.33   -49027.751    3816.9117   -52844.663   0.32797535 
   41400    280.43979   -493.74706    141870.79   -48977.557    3851.1652   -52828.723   0.29089701 
   41500    277.88132   -491.41996    141870.23   -48995.686    3816.0307   -52811.717   0.31709277 
   41600    273.94994   -512.25806    141856.15   -48997.787    3762.0428   -52759.829   0.33229818 
   41700    269.25705   -495.97763    141827.09   -49103.464    3697.5973   -52801.061   0.30209819 
   41800    277.04426   -463.75473    141843.16   -49018.217    3804.5358   -52822.753   0.31656436 
   41900    276.99987   -492.81166    141819.73   -49096.483    3803.9262   -52900.409   0.33127707 
   42000    273.42138   -494.21579    141795.61   -49065.233    3754.7842   -52820.017   0.31139997 
   42100    269.28868   -524.61529    141767.04   -49134.773    3698.0316   -52832.804   0.31402753 
   42200    273.15902   -522.23017    141772.45   -49099.091    3751.1813   -52850.272   0.33267854 
   42300    272.29424     -477.206    141781.13   -49059.916    3739.3057   -52799.221   0.33025646 
   42400    275.57095   -487.05181    141819.15    -49090.39    3784.3034   -52874.694   0.29588691 
   42500    273.16813   -517.39208    141823.78   -49050.621    3751.3064   -52801.927   0.33446404 
   42600    272.12054   -527.98058    141806.69   -49087.821    3736.9204   -52824.741   0.32453615 
   42700    273.05828   -540.96115       141792   -49153.686    3749.7979   -52903.484   0.31037432 
   42800     274.3387   -489.67967    141806.95   -49061.464    3767.3815   -52828.846   0.32993298 
   42900    274.57439     -490.421    141809.94   -49082.938    3770.6181   -52853.556   0.31777872 
   43000    267.90417   -537.29808     141794.5   -49103.321    3679.0186    -52782.34   0.32897253 
   43100     275.3591   -507.19755    141802.58   -49030.781    3781.3941   -52812.175   0.31728243 
   43200    271.94976   -533.92976    141816.38   -49042.852    3734.5751   -52777.427   0.32803376 
   43300    276.25448   -484.98877    141800.16   -49033.026      3793.69   -52826.716    0.3279406 
   43400    279.24344   -494.83579    141838.95   -48973.949    3834.7362   -52808.686   0.31330438 
   43500    277.43574     -471.687    141863.81   -49025.752    3809.9118   -52835.664   0.31539919 
   43600      274.132   -473.11159    141819.17   -49068.116    3764.5428   -52832.659    0.3273582 
   43700    272.64212   -498.20756    141788.41   -49108.468     3744.083   -52852.551   0.31656422 
   43800    274.01474   -498.05567    141777.18    -49142.88    3762.9326   -52905.813   0.30790409 
   43900    276.26533    -451.3961    141779.39   -49060.734     3793.839   -52854.573    0.3340158 
   44000    274.48157   -485.67653    141764.74   -49141.137    3769.3434   -52910.481   0.33020698 
   44100    271.52849   -493.38892    141754.32   -49095.056      3728.79   -52823.846   0.30500111 
   44200     273.1589   -509.28249    141779.32   -49057.314    3751.1798   -52808.494   0.33182829 
   44300    270.87197   -495.45149    141774.62   -49061.994    3719.7742   -52781.769   0.34074973 
   44400    274.91249   -500.27239    141775.09   -49070.961    3775.2611   -52846.222   0.30353276 
   44500    275.57274   -511.71762    141796.83   -49076.837    3784.3279   -52861.165   0.32415813 
   44600    271.46442   -512.44989    141782.55   -49078.064      3727.91   -52805.974   0.34091869 
   44700    270.97366   -515.04304    141788.93   -49067.562    3721.1707   -52788.733   0.30499117 
   44800    271.55365   -491.22368    141806.32     -49028.3    3729.1355   -52757.435   0.31736036 
   44900    277.03385   -520.73207    141846.48   -49023.031    3804.3929   -52827.424   0.33802506 
   45000    274.04136   -476.28651    141831.33    -49058.81    3763.2981   -52822.108   0.30336911 
   45100    275.38065    -487.3902    141853.53   -48948.529    3781.6901   -52730.219   0.31495741 
   45200    273.92692   -469.40629    141866.94   -48983.256    3761.7267   -52744.983   0.33125566 
   45300    276.52491   -472.17473    141866.18   -49003.553    3797.4037   -52800.957    0.3207354 
   45400    272.23038   -541.97462    141856.24   -49072.902    3738.4288   -52811.331   0.31008087 
   45500    276.47879   -527.96252    141866.62   -49015.966    3796.7704   -52812.736   0.32485981 
   45600    273.27575   -507.20317    141859.47   -49003.614    3752.7843   -52756.398   0.32776988 
   45700    276.02289   -469.01477    141880.76   -48962.915    3790.5097   -52753.425   0.31259269 
   45800    272.75203   -523.03038    141842.63   -49037.499    3745.5923   -52783.092   0.32317567 
   45900    279.15506   -482.22506    141866.89    -48900.31    3833.5225   -52733.832   0.32375825 
   46000    280.40805   -476.39769    141901.67   -48966.858    3850.7293   -52817.587   0.32465326 
   46100    281.99858   -491.99516    141903.23   -48877.285    3872.5714   -52749.856   0.31487125 
   46200    276.60001   -540.50903    141914.79   -48930.699    3798.4351   -52729.134   0.31445287 
   46300    274.81189   -471.52905     141900.2   -48921.613    3773.8795   -52695.492   0.33138948 
   46400    277.89135   -512.54228    141864.66   -48964.148    3816.1685   -52780.317   0.31688438 
   46500     275.3762   -517.66942    141883.88   -48930.645    3781.6289   -52712.274   0.30792416 
   46600    274.59678   -511.23401    141850.78   -48985.943    3770.9255   -52756.868   0.34102624 
   46700    279.30134    -479.2203    141862.26   -48919.987    3835.5314   -52755.519   0.31928287 
   46800    276.03294   -474.36816    141884.39   -48930.485    3790.6477   -52721.132   0.30365642 
   46900    275.20777   -486.54711    141850.76   -48986.332    3779.3161   -52765.648   0.33281407 
   47000     269.5245   -503.41149    141865.04   -49023.581      3701.27   -52724.851    0.3350828 
   47100    272.30398   -503.92365    141816.34   -49029.448    3739.4395   -52768.888   0.30389573 
   47200    272.37311   -476.62283    141783.15   -48992.556    3740.3887   -52732.945   0.33040454 
   47300    273.08726   -516.25434    141800.77   -49111.859    3750.1959   -52862.055   0.33807354 
   47400    273.55225   -472.85723    141801.38   -49048.136    3756.5814   -52804.717   0.30466705 
   47500    277.36192   -472.45338    141797.98   -49051.593    3808.8981   -52860.491   0.31920664 
   47600     276.8777   -465.29242    141810.53   -49053.526    3802.2485   -52855.774   0.33241156 
   47700    273.05815   -494.24466    141816.68   -48977.853    3749.7961   -52727.649   0.31985808 
   47800    277.43844   -482.23899    141817.38   -49034.661    3809.9488    -52844.61   0.31206287 
   47900    272.03298    -495.1041    141790.44   -49083.207    3735.7179   -52818.925    0.3364947 
   48000    274.48105   -490.77121    141806.04   -49042.305    3769.3363   -52811.641   0.32498485 
   48100    275.68061   -518.16999    141801.03   -49089.628    3785.8093   -52875.437   0.31244228 
   48200     278.3601   -505.77238    141803.66   -49076.588    3822.6057   -52899.194   0.32323486 
   48300    275.05957   -530.74644    141797.38   -49028.055    3777.2808   -52805.336   0.33112577 
   48400    272.17995   -520.68558    141826.87   -49067.987    3737.7361   -52805.723   0.32210776 
   48500    271.10732   -506.55608    141765.32   -49140.908    3723.0062   -52863.914   0.31856397 
   48600    272.86107   -509.34859    141757.76   -49142.238    3747.0897   -52889.328   0.32442708 
   48700    276.54052    -504.3044    141757.49   -49033.856    3797.6181   -52831.474   0.33620558 
   48800    277.60161   -509.37091    141753.68   -49025.899    3812.1897   -52838.089   0.31425838 
   48900    276.20799   -505.49319    141778.36   -49048.785    3793.0516   -52841.837   0.32737871 
   49000    273.88337   -503.90153    141765.03   -49077.538    3761.1285   -52838.666   0.33641382 
   49100    279.68076   -475.20933    141798.94   -48994.686    3840.7418   -52835.428   0.30910109 
   49200    276.19886   -517.71174    141817.24   -49028.582    3792.9263   -52821.509   0.32474717 
   49300     272.0646   -484.53831    141784.14   -49093.902    3736.1521   -52830.054   0.33536899 
   49400    272.36514   -512.24406    141754.03   -49112.581    3740.2793    -52852.86   0.32659867 
   49500    270.88143    -503.5516    141795.15   -49050.387    3719.9041   -52770.291   0.30830959 
   49600    271.37323   -506.66939    141763.76   -49042.421    3726.6579   -52769.079   0.34770561 
   49700    274.25703   -505.44948    141773.94     -49041.8    3766.2599    -52808.06   0.32626854 
   49800    270.90912    -505.7159     141808.8   -49054.557    3720.2844   -52774.841   0.30890879 
   49900    273.21661   -496.67211    141778.72   -49029.981    3751.9723   -52781.953   0.34672554 
   50000    274.32636   -493.26873    141791.28   -49040.985    3767.2119   -52808.197    0.3330059 
   50100    277.27613   -508.91527    141819.93   -48907.443      3807.72   -52715.163   0.32318399 
   50200     280.2793   -510.53518    141806.87   -48981.503    3848.9612   -52830.465   0.33269534 
   50300    280.13614   -488.68024    141805.57   -48998.772    3846.9953   -52845.767   0.33156032 
   50400    279.31209   -525.85488    141786.22   -49010.636    3835.6789   -52846.315   0.32012988 
   50500    275.06397   -509.60646    141790.15   -48933.253    3777.3412   -52710.594   0.33102491 
   50600    278.74293   -500.57266    141792.84   -48858.945    3827.8629   -52686.808   0.34060425 
   50700    275.16343   -535.10505    141780.71   -49090.565    3778.7071   -52869.272   0.31940981 
   50800    273.37377   -536.25107    141732.29   -49068.423    3754.1304   -52822.554   0.32079411 
   50900    272.37427   -485.64172    141743.55   -49092.736    3740.4048   -52833.141   0.32783603 
   51000    275.47102   -513.80105     141767.4   -49052.755     3782.931   -52835.686   0.33418365 
   51100    276.81548   -516.99322     141773.7   -49071.827     3801.394   -52873.221   0.32813568 
   51200    272.25472   -552.27184     141773.1   -49125.313    3738.7629   -52864.076   0.31218306 
   51300    276.28035   -481.78841    141727.08    -49133.07    3794.0453   -52927.115   0.33792994 
   51400    270.73372   -513.02061    141756.59   -49075.586    3717.8757   -52793.461   0.32973412 
   51500    269.58017   -531.91896    141774.45   -49127.616    3702.0345    -52829.65   0.30661391 
   51600    273.49115   -472.42679    141767.78     -49045.6    3755.7424   -52801.343   0.32811494 
   51700    280.15814   -467.20763    141823.23   -48947.776    3847.2974   -52795.074   0.33654943 
   51800    279.84204   -531.28016    141838.78   -49001.981    3842.9566   -52844.938   0.29545937 
   51900    271.56547   -510.98342    141824.52   -49058.846    3729.2977   -52788.143      0.32455 
   52000    275.47228   -505.45492    141787.55   -49039.876    3782.9484   -52822.824   0.34573592 
   52100    273.05491   -489.13561    141796.24   -49119.048    3749.7516   -52868.799   0.29698958 
   52200    272.74162   -535.53945    141744.44   -49168.995    3745.4494   -52914.444   0.32520125 
   52300    272.55212   -513.86358    141735.07   -49150.724     3742.847   -52893.571   0.34724478 
   52400    270.72088   -503.96501     141732.3   -49234.387    3717.6994   -52952.087   0.31677695 
   52500     270.4421   -434.74577    141759.52   -49083.446     3713.871   -52797.317   0.31233146 
   52600      269.688   -526.79536    141812.04   -49055.352    3703.5153   -52758.868   0.34525067 
   52700    277.30217   -521.59506     141821.1   -48993.287    3808.0775   -52801.365   0.32546478 
   52800    277.69453   -506.61094    141853.41   -48966.513    3813.4656   -52779.979    0.3075381 
   52900    277.33342   -515.84999       141828   -48986.951    3808.5067   -52795.458   0.33729887 
   53000    273.98992    -502.0017    141803.88   -48936.524    3762.5918   -52699.116   0.33796164 
   53100    269.43433   -517.75634     141779.7   -49070.658    3700.0316   -52770.689   0.32010595 
   53200    273.11513   -517.36957    141734.05   -49112.703    3750.5787   -52863.282   0.33149163 
   53300    271.94411   -498.28754     141737.8   -49071.236    3734.4975   -52805.734   0.33215096 
   53400    279.43661   -492.96575    141776.34   -49005.544    3837.3889   -52842.933   0.33097285 
   53500    271.19179   -516.76291    141779.65   -48987.383    3724.1662   -52711.549    0.3252449 
   53600    274.84306   -500.34776    141765.63   -49056.148    3774.3076   -52830.456   0.33108997 
   53700    274.73331   -519.51293    141788.91   -49036.295    3772.8004   -52809.095   0.33828749 
   53800    271.53825   -546.34878    141770.42   -49070.715     3728.924   -52799.639   0.31776261 
   53900    271.62957    -508.9742    141771.58   -49081.015     3730.178   -52811.193   0.32750583 
   54000     270.1763   -533.22235    141770.06   -49087.305    3710.2209   -52797.526   0.34008089 
   54100    271.32724   -534.49022    141791.29   -49067.791    3726.0262   -52793.817   0.31851087 
   54200    272.63032   -458.64121    141815.18   -49015.647    3743.9209   -52759.568   0.31398889 
   54300    277.15338   -488.78303    141851.62    -48947.31    3806.0342   -52753.345   0.34135555 
   54400    279.62603   -479.83857    141873.76   -48869.896    3839.9901   -52709.886   0.32082667 
   54500    274.67337    -495.5784    141875.73   -48939.979    3771.9774   -52711.956    0.3060147 
   54600    275.83973   -534.00085    141849.23   -48954.315    3787.9945   -52742.309   0.33584188 
   54700    272.83637   -540.95404    141880.98   -49020.847    3746.7506   -52767.598   0.33155635 
   54800    277.40807   -523.49269     141893.8   -48950.493    3809.5319   -52760.025   0.29675836 
   54900    275.18704   -504.67286    141883.07   -48968.076    3779.0313   -52747.107   0.32477644 
   55000     277.0813   -524.28668    141872.64   -48998.742    3805.0445   -52803.786   0.33460215 
   55100    273.63967   -515.43712    141847.98   -49013.692     3757.782   -52771.474   0.30828451 
   55200    270.14666   -499.21159    141814.38   -49116.067    3709.8138   -52825.881   0.31434686 
   55300    267.16725   -476.41847    141774.38   -49157.272    3668.8988   -52826.171   0.33906846 
   55400     270.2921   -507.27869    141780.16   -49125.332    3711.8111   -52837.143    0.3227316 
   55500    271.10271    -479.5487    141784.32   -49087.276    3722.9429   -52810.219   0.31291186 
   55600    276.86755   -449.42503    141811.28   -48986.952    3802.1091   -52789.061     0.330066 
   55700     280.5537   -491.80608    141852.32   -48947.289    3852.7295   -52800.019   0.32333895 
   55800    271.87875   -498.95519    141880.46   -48936.051    3733.5999   -52669.651   0.32095185 
   55900    273.61329   -495.04672    141869.88   -48952.607    3757.4196   -52710.026   0.31651768 
   56000    277.89016   -504.86361    141867.38   -48964.964    3816.1522   -52781.117   0.33431197 
   56100    278.59558    -483.1504    141879.95    -48948.66    3825.8394   -52774.499   0.31567375 
   56200    276.50747   -524.98926    141880.85   -48985.108    3797.1643   -52782.272   0.31050931 
   56300    275.75164   -499.79766    141817.15   -49053.246    3786.7847   -52840.031    0.3294582 
   56400    275.32812    -513.3958    141808.62   -49101.163    3780.9688   -52882.132   0.32709601 
   56500    267.01805   -513.94331     141775.5   -49140.953      3666.85   -52807.803   0.31695498 
   56600    272.97455   -479.84237    141753.85   -49194.269    3748.6482   -52942.917   0.31426298 
   56700    270.82062   -528.16414    141747.75   -49173.598    3719.0691   -52892.667   0.35025185 
   56800    272.19049   -475.22443    141759.53   -49064.224    3737.8809   -52802.105   0.31423024 
   56900    271.61102   -505.73042    141782.94   -49154.417    3729.9234   -52884.341   0.30842128 
   57000    275.03079   -507.63771    141777.64   -49147.191    3776.8857   -52924.077   0.34958685 
   57100     274.6297   -513.84432     141801.1   -49071.995    3771.3776   -52843.373   0.31662113 
   57200    274.75876   -553.73381    141794.49   -49019.234    3773.1499   -52792.384   0.31265285 
   57300    267.63554   -474.03571    141766.78   -49143.517    3675.3296   -52818.847   0.34463408 
   57400     273.6845   -491.82282    141783.85   -49032.645    3758.3975   -52791.043   0.32719766 
   57500    276.56804    -491.3243     141815.9   -49003.491     3797.996   -52801.487   0.30656598 
   57600    275.07585   -485.30397    141804.59   -49110.658    3777.5045   -52888.163    0.3365584 
   57700    277.78429   -458.96841     141806.7   -49024.595    3814.6983   -52839.293   0.33352463 
   57800    277.14011   -467.44284    141835.23   -48978.494     3805.852   -52784.346   0.30065819 
   57900    278.29147    -474.5969    141878.44   -49015.477    3821.6632    -52837.14    0.3228841 
   58000    277.85135   -500.35414    141900.76   -48975.802    3815.6192   -52791.421   0.33392146 
   58100    272.65517    -503.9984    141878.83    -49024.91    3744.2621   -52769.172   0.30528796 
   58200    280.94592   -508.00741    141902.59   -48928.331    3858.1156   -52786.446    0.3200241 
   58300    272.93697   -526.16475    141900.14   -48987.261     3748.132   -52735.393    0.3314842 
   58400    275.29574   -498.80283    141874.29   -49033.489     3780.524   -52814.013   0.31627626 
   58500    276.80619   -526.13978    141841.47   -49037.653    3801.2665   -52838.919   0.31860722 
   58600    273.94635   -499.44585    141827.05   -49072.377    3761.9935    -52834.37   0.32343972 
   58700    270.68014   -509.06801    141844.21   -49023.985    3717.1399   -52741.125   0.32531718 
   58800    274.44529   -525.89315    141821.87   -49066.008    3768.8452   -52834.853   0.32816791 
   58900    278.18316   -503.34828    141865.42    -48989.41    3820.1758   -52809.586   0.30908349 
   59000    278.14318   -474.36347    141880.95   -48950.804    3819.6268   -52770.431    0.3281873 
   59100    278.25623   -507.66205     141905.4   -48920.043    3821.1793   -52741.223   0.33725223 
   59200    276.82228   -543.63562    141879.82   -49038.165    3801.4875   -52839.652     0.302825 
   59300    279.09917   -508.40438    141864.98    -49021.29     3832.755   -52854.045   0.32722909 
   59400    271.94499   -471.37469    141854.65   -48999.436    3734.5096   -52733.945   0.34081702 
   59500    271.95836     -517.275    141845.12   -49109.833    3734.6931   -52844.526   0.30090852 
   59600    272.95863    -472.1826    141815.08   -49078.142    3748.4295   -52826.571   0.31790983 
   59700    276.84696    -474.5559    141853.85   -49014.657    3801.8263   -52816.484    0.3460669 
   59800    272.58125   -490.15641    141819.06   -49124.241    3743.2471   -52867.488   0.30644356 
   59900    270.10846   -502.24933    141795.64    -49117.48    3709.2892   -52826.769   0.30446861 
   60000    271.66725   -540.31841    141792.01   -49081.919    3730.6955   -52812.614    0.3603037 
   60100    275.75787   -496.63333    141780.16   -49043.353    3786.8703   -52830.223   0.32483088 
   60200    276.26835   -491.09042    141808.56   -49014.492    3793.8805   -52808.372   0.30000227 
   60300     275.0585   -491.19694    141859.13   -48981.563    3777.2661   -52758.829    0.3529019 
   60400    281.40097   -484.15808     141865.3   -48925.642    3864.3647   -52790.006   0.32324926 
   60500    278.32135   -514.90366    141871.61   -48952.116    3822.0735    -52774.19   0.30477342 
   60600    276.01775    -509.3474    141872.75   -49015.092    3790.4391   -52805.531   0.33322991 
   60700    278.93214   -497.70533    141917.18   -48845.341    3830.4613   -52675.803   0.33064999 
   60800    282.37441   -488.39858    141928.09   -48871.872    3877.7326   -52749.605   0.30848547 
   60900    272.21845    -525.8219    141921.37   -48959.818    3738.2649   -52698.083   0.32259985 
   61000    275.82882   -515.46862    141895.05   -49001.702    3787.8446   -52789.546   0.33250955 
   61100    278.51923   -515.29112     141888.7   -48984.348    3824.7909   -52809.139   0.31527266 
   61200    277.39648   -501.32341    141866.28   -48928.383    3809.3726   -52737.755   0.32081255 
   61300    272.51036    -501.9274    141844.89   -49019.889    3742.2736   -52762.162   0.32562143 
   61400    272.23092   -535.30134    141840.25   -49069.213    3738.4362   -52807.649    0.3282302 
   61500     277.8579   -495.58957    141842.91   -49012.028    3815.7091   -52827.737   0.32175056 
   61600    277.29649    -471.1897    141812.92   -49050.843    3807.9996   -52858.843   0.31324745 
   61700    274.81579    -500.6733    141810.98   -49111.978    3773.9331   -52885.911   0.33326363 
   61800    275.05105   -484.96358    141780.52   -49103.779    3777.1638   -52880.943   0.32909075 
   61900    275.37922   -511.31185    141787.53    -48994.72    3781.6704   -52776.391    0.3108627 
   62000    272.94475   -514.97223    141828.15    -49008.45    3748.2388   -52756.689   0.33471311 
   62100    272.15496    -531.6884    141818.86   -49077.127     3737.393    -52814.52   0.34054387 
   62200    274.75704   -485.02447    141830.64   -48970.164    3773.1263    -52743.29   0.30840302 
   62300     277.7613   -505.65707     141831.6   -49019.777    3814.3826   -52834.159   0.31946584 
   62400    274.66857   -476.48262    141819.79   -49063.214    3771.9114   -52835.125    0.3497576 
   62500    272.78984    -492.3266    141812.44   -49052.133    3746.1115   -52798.245   0.30142657 
   62600     271.9473   -540.30421    141794.44   -49080.024    3734.5413   -52814.565   0.31782694 
   62700    271.19576   -480.89948    141789.33   -49113.819    3724.2207    -52838.04   0.34877553 
   62800     270.9152   -497.91528    141772.71   -49088.608    3720.3678   -52808.975   0.31029092 
   62900    275.61944   -478.60846    141839.27   -49002.162    3784.9693   -52787.132   0.30843707 
   63000    276.15889   -481.40203    141843.59   -49031.173    3792.3774    -52823.55   0.33727844 
   63100    276.75496   -490.17573    141810.51    -49103.63    3800.5629   -52904.193   0.31865007 
   63200    279.03092    -483.7273    141853.71   -48983.079    3831.8177   -52814.897   0.30496182 
   63300    272.98179   -528.61869     141844.6    -49081.57    3748.7475   -52830.317   0.32969276 
   63400    268.67591   -493.47155    141798.89   -49162.367    3689.6166   -52851.983    0.3305941 
   63500    270.77683    -518.9519    141802.05   -49141.303    3718.4677   -52859.771   0.30060183 
   63600    268.16594   -509.43331    141757.36   -49183.614    3682.6135   -52866.227   0.32100701 
   63700    269.96621   -503.86283    141764.27     -49153.2    3707.3357   -52860.536   0.32629562 
   63800    271.59027   -511.09838    141777.48   -49221.245    3729.6384   -52950.883   0.31188285 
   63900    272.86526   -482.00867    141783.85   -49118.532    3747.1472    -52865.68   0.31693309 
   64000    275.90486   -470.01524    141798.79   -49035.766    3788.8889   -52824.655   0.31831825 
   64100    275.81246   -506.13242    141834.91   -48994.324    3787.6199   -52781.944   0.33733219 
   64200    277.40253   -525.62404    141837.28    -48983.53    3809.4557   -52792.986   0.31453705 
   64300    267.82575   -539.87612    141853.04   -49014.779    3677.9418   -52692.721   0.31348594 
   64400    269.15675   -532.40329    141827.96   -49071.145    3696.2198   -52767.365    0.3431539 
   64500    272.75907   -508.05883    141802.15   -49057.432     3745.689   -52803.121   0.31757119 
   64600    268.26781   -514.14045     141807.5   -49096.794    3684.0124   -52780.806   0.30006009 
   64700    270.00073    -525.2453    141788.34   -49102.027    3707.8099   -52809.837   0.33895961 
   64800    269.44649   -484.11237    141826.16   -49048.537    3700.1986   -52748.736   0.32579977 
   64900    279.00618    -490.1947    141849.65   -48961.751     3831.478   -52793.229   0.29193432 
   65000    279.20446   -510.20315    141887.17   -48955.137    3834.2008   -52789.338   0.32651509 
   65100    272.72369   -516.26379    141880.52   -49019.886    3745.2031   -52765.089   0.33001531 
   65200    269.60401   -542.08028    141853.28   -49036.875    3702.3619   -52739.237   0.29889527 
   65300    276.47755   -473.82245    141864.56   -48974.862    3796.7533   -52771.615   0.31763608 
   65400    279.08655   -504.63095    141869.58   -49017.377    3832.5817   -52849.959   0.33543888 
   65500    273.99168   -524.30967    141871.34   -48949.732    3762.6159   -52712.348   0.30226202 
   65600    278.47144   -504.96901    141903.29   -48968.833    3824.1347   -52792.968   0.30497277 
   65700    279.07665   -508.12698    141868.73   -48927.486    3832.4457   -52759.931   0.33922581 
   65800    273.52034   -516.72255     141852.1   -48990.796    3756.1431   -52746.939   0.30735636 
   65900    271.92544   -517.45867     141837.1   -49002.718    3734.2411   -52736.959   0.30821492 
   66000    276.29693   -502.64034    141815.18   -49009.079    3794.2729   -52803.352   0.32878543 
   66100    276.30319   -479.46444    141810.83   -48983.798    3794.3589   -52778.157   0.32362237 
   66200    267.56995   -517.90471    141804.28    -49110.62     3674.429   -52785.049    0.3141009 
   66300     273.0508   -479.66133    141804.87   -49036.676    3749.6952   -52786.372    0.3195496 
   66400    276.62406   -525.91474    141767.76   -49041.441    3798.7653   -52840.206   0.32932566 
   66500    273.37485    -499.8557    141811.01   -49072.121    3754.1453   -52826.266   0.31354786 
   66600    274.84787   -527.72799    141807.54   -49078.162    3774.3737   -52852.536   0.30762438 
   66700    276.97472    -502.7055    141819.26   -49070.888    3803.5808   -52874.469   0.32022824 
   66800    267.71256   -492.45896    141796.48   -49086.269    3676.3873   -52762.656   0.32868591 
   66900    269.93446   -499.14635    141809.94   -49103.617    3706.8997   -52810.517   0.30744598 
   67000    272.48136   -491.11329    141770.56   -49198.351    3741.8753   -52940.226   0.31179284 
   67100    275.72752   -522.45419     141809.2   -49042.146    3786.4535   -52828.599   0.33804146 
   67200    271.71412   -515.81862    141790.99   -49141.146    3731.3391   -52872.486   0.31290505 
   67300    267.72665   -494.00916    141798.36   -49059.207    3676.5808   -52735.787   0.30641521 
   67400     275.5239   -529.38816     141806.7    -49045.25    3783.6573   -52828.908   0.34343608 
   67500     272.5862    -488.3867    141825.93   -49029.868     3743.315   -52773.183    0.3193921 
   67600    278.42255   -456.18926    141879.95   -48895.459    3823.4633   -52718.922   0.29484313 
   67700    276.45238    -524.1465    141871.93   -48961.246    3796.4078   -52757.653   0.33526893 
   67800    278.78512   -539.34715     141894.9   -49003.952    3828.4423   -52832.394   0.32119952 
   67900     272.1898   -475.64478    141855.65   -49034.279    3737.8715    -52772.15   0.29425065 
   68000    277.23749   -471.32319    141803.76   -49067.435    3807.1893   -52874.624   0.32229448 
   68100    270.57072   -497.98853    141825.84   -49076.696    3715.6373   -52792.333   0.32945315 
   68200    277.09548    -486.0202    141817.07   -49043.715    3805.2392   -52848.954   0.29965291 
   68300    277.38404   -481.10642    141847.39   -48998.859    3809.2018   -52808.061   0.31460764 
   68400    275.52564   -500.56983    141878.77   -48962.275    3783.6812   -52745.956     0.337276 
   68500    276.22178   -496.90459     141885.5   -48963.316     3793.241   -52756.557   0.30387316 
   68600    269.96014   -553.70537    141865.01    -49050.53    3707.2524   -52757.783   0.31178587 
   68700    274.50706   -531.10186     141853.7   -49030.109    3769.6934   -52799.803   0.33079907 
   68800    277.57627   -496.48363    141856.13    -49027.29    3811.8417   -52839.131   0.31113116 
   68900    275.84828   -517.74329    141831.31   -49027.264    3788.1118   -52815.376   0.30585416 
   69000    276.35955   -497.08047    141849.58   -49027.308    3795.1329   -52822.441   0.32106403 
   69100    272.63367    -526.0211    141839.69   -49088.891    3743.9669   -52832.858   0.32144086 
   69200    272.37434   -510.08373    141811.21   -49100.258    3740.4057   -52840.664   0.30592418 
   69300    273.02556   -467.40614     141786.8   -49123.718    3749.3486   -52873.067    0.3198769 
   69400    272.73078   -491.37603    141768.28   -49173.329    3745.3005    -52918.63   0.31766039 
   69500    273.38741   -458.24166    141762.83   -49035.308    3754.3177   -52789.626   0.31875511 
   69600    280.31008   -505.09933     141858.6   -48936.887     3849.384   -52786.271   0.31291647 
   69700    273.50426   -499.95066     141831.5    -49027.09    3755.9223   -52783.013   0.31794644 
   69800    274.93675    -475.3395    141818.26   -49024.278    3775.5941   -52799.872   0.33354582 
   69900     270.7117   -496.69778    141790.65   -49114.172    3717.5733   -52831.745   0.30643401 
   70000    276.46406   -524.85078    141838.38   -49052.155    3796.5681   -52848.724   0.31336177 
   70100    276.13425   -514.53637     141798.3   -49163.638    3792.0389   -52955.677   0.32762521 
   70200    271.91575   -506.06901    141830.55    -49009.27     3734.108   -52743.378   0.31172906 
   70300    274.68186    -514.8685     141827.5   -49016.437    3772.0939   -52788.531    0.3127231 
   70400    279.89437   -511.75866    141858.23   -48910.006    3843.6752   -52753.681   0.33388026 
   70500     278.0541   -511.52895    141824.93   -48981.158    3818.4035   -52799.561   0.32392833 
   70600    277.82728   -515.66362    141832.51   -49036.931    3815.2887   -52852.219   0.29386414 
   70700    276.36237   -477.03184    141814.28   -49007.319    3795.1716   -52802.491   0.32880875 
   70800    271.44194   -480.43273    141813.88   -49040.243    3727.6015   -52767.845   0.33583733 
   70900    271.61038   -498.48658    141810.75   -49034.859    3729.9146   -52764.774   0.29017922 
   71000    273.13753   -526.60877    141814.46    -49058.41    3750.8863   -52809.296   0.32457579 
   71100    273.86123   -482.05912    141815.28   -49044.953    3760.8245   -52805.777   0.33151227 
   71200    270.73149   -523.38746    141872.37   -49089.214    3717.8451   -52807.059   0.29481026 
   71300    276.33136   -511.17903    141833.88   -49138.778    3794.7458   -52933.524   0.30946881 
   71400    272.59465   -473.05715    141798.05   -49073.166    3743.4311   -52816.597   0.33523051 
   71500    270.10195   -522.94089    141858.63   -49031.689    3709.1998   -52740.889   0.31584862 
   71600    273.65588   -494.13552    141847.47   -49043.664    3758.0045   -52801.669   0.30709934 
   71700    270.96015    -477.2018    141844.21   -49031.563    3720.9851   -52752.548    0.3238945 
   71800    267.23048   -515.92856    141825.13   -49199.252    3669.7671   -52869.019   0.31757838 
   71900    269.14737   -457.94613    141792.41   -49141.343    3696.0909   -52837.434   0.30722503 
   72000    274.14092   -508.79586    141793.82   -49106.852    3764.6654   -52871.517   0.32018485 
   72100    274.67127   -481.90698     141856.7   -48980.593    3771.9484   -52752.542    0.3307572 
   72200    282.33423   -465.97235    141902.05   -48876.317    3877.1807   -52753.498    0.3078663 
   72300    276.78024   -510.89116    141910.22   -48850.563    3800.9101   -52651.473   0.31114871 
   72400    276.24915   -514.63081    141899.83   -48969.936    3793.6169   -52763.552   0.32469822 
   72500    285.83905   -486.20088     141893.1   -48966.609    3925.3111    -52891.92   0.31125393 
   72600    272.05473   -536.52409    141881.96   -48898.711    3736.0166   -52634.727   0.30696359 
   72700    271.15886   -528.87393    141871.87   -49058.441    3723.7139   -52782.155   0.31422784 
   72800    275.53688    -494.3838     141845.5   -48993.612    3783.8356   -52777.448   0.33687259 
   72900    271.91335   -491.03942     141840.3   -49002.926    3734.0751   -52737.001   0.30812211 
   73000    272.35513   -530.23835    141844.78   -49018.988    3740.1418    -52759.13   0.30953937 
   73100    274.01042   -480.76277    141857.01   -48973.339    3762.8733   -52736.212   0.33851715 
   73200    273.77115   -513.44771    141893.78   -48962.956    3759.5874   -52722.544   0.31310431 
   73300    280.86354   -514.47794    141900.95   -48942.448    3856.9844   -52799.432   0.30202624 
   73400    276.43331   -493.11921    141905.85   -48925.521    3796.1458   -52721.667   0.33134293 
   73500    278.45655   -492.42138    141917.06   -48928.464    3823.9302   -52752.394   0.31621224 
   73600    278.38931      -511.66    141866.56   -48967.726    3823.0067   -52790.733   0.30077828 
   73700    275.96533   -495.66266    141871.37   -49027.027    3789.7192   -52816.746   0.31842942 
   73800    271.25768   -506.80238    141846.81   -49114.099     3725.071    -52839.17   0.32335468 
   73900    274.16198   -470.90152    141857.92     -49093.6    3764.9546   -52858.554   0.29207055 
   74000    272.27316   -468.61667    141849.74   -49022.053    3739.0162   -52761.069   0.31905245 
   74100    281.10799   -512.10558    141922.25   -48867.492    3860.3413   -52727.833   0.33007691 
   74200    273.91964   -523.20205     141934.1   -49025.502    3761.6266   -52787.129   0.29921059 
   74300    278.18817   -490.47257       141908   -49024.466    3820.2446   -52844.711   0.30303877 
   74400    278.19009   -509.24557    141867.18   -49056.748     3820.271   -52877.019   0.32449293 
   74500    273.50995    -499.7702     141830.5   -49070.987    3756.0006   -52826.988   0.31863492 
   74600    273.32455   -494.55722    141846.76   -49070.311    3753.4546   -52823.765   0.30374634 
   74700     274.9633   -494.66566    141838.37   -48990.385    3775.9589   -52766.344   0.32039494 
   74800    270.20209   -549.77749    141806.52   -49041.726     3710.575   -52752.301    0.3355253 
   74900    269.26669   -518.34757    141820.81   -49045.146    3697.7295   -52742.875   0.31423538 
   75000    273.91016    -466.3668    141834.08   -49027.139    3761.4965   -52788.635   0.30911855 
   75100    276.16502   -458.36213    141869.76   -48958.751    3792.4615   -52751.212   0.32942186 
   75200    275.25454   -476.97237    141872.62   -49006.325    3779.9583   -52786.283   0.31507674 
   75300    274.46427   -520.59492    141839.74   -49055.773    3769.1058   -52824.879   0.30429885 
   75400    271.40005   -509.43167    141833.07   -49069.775    3727.0262   -52796.802    0.3256973 
   75500    277.60346   -515.69502    141797.98   -49057.996     3812.215   -52870.211   0.32784431 
   75600    271.37033   -494.16122    141846.63   -48991.573     3726.618   -52718.191   0.29978714 
   75700    276.88521   -497.39136    141840.75   -48949.906    3802.3516   -52752.258   0.32334822 
   75800    279.03305   -518.30697    141882.78   -48975.077     3831.847   -52806.924   0.33542539 
   75900    272.55094   -502.80833    141870.12   -48993.915    3742.8309   -52736.746   0.30359634 
   76000    271.63868   -488.79859    141862.46    -48993.77    3730.3031   -52724.073   0.31154507 
   76100     273.2016   -512.85108    141830.54   -49081.038    3751.7661   -52832.804   0.33771777 
   76200    270.75056   -489.95165    141818.56   -49125.208     3718.107   -52843.315   0.30967069 
   76300    272.45911   -483.99315    141824.07   -49071.561    3741.5698   -52813.131   0.29158209 
   76400    272.08374   -515.03236     141793.4   -49068.567     3736.415   -52804.982   0.33988032 
   76500    276.01185   -500.51695    141832.09   -49057.322    3790.3581   -52847.681   0.31907953 
   76600    271.46129   -505.26331    141812.01   -49091.393    3727.8671    -52819.26   0.29773819 
[...]
   81900    274.02451   -481.87436    141851.72   -49097.797    3763.0668   -52860.864   0.30073981 
   82000    276.14921   -481.23046    141882.01   -49011.152    3792.2444   -52803.397   0.30223316 
   82100    277.27189   -491.66837    141935.28   -48963.734    3807.6617   -52771.396   0.33026612 
   82200    277.00427   -527.49905    141910.85   -48977.402    3803.9867   -52781.388   0.31075439 
   82300    270.96352   -505.81046    141895.41   -49047.115    3721.0314   -52768.146   0.29765508 
   82400    276.46267   -500.58517    141904.33   -48928.368     3796.549   -52724.917   0.32219752 
   82500    282.48431   -487.04995    141963.56   -48832.953    3879.2417   -52712.195   0.31102482 
   82600    275.36953   -533.34568    141962.64   -48932.178    3781.5374   -52713.716   0.30152482 
   82700    275.50249   -499.82192    141900.62   -49008.584    3783.3633   -52791.947   0.31549824 
   82800    276.77677   -471.51882    141881.32   -49019.326    3800.8624   -52820.189   0.31914708 
   82900    274.32186   -468.13565    141883.03   -48976.634    3767.1501   -52743.784   0.30644385 
   83000    276.72455   -519.40346    141939.93   -48919.919    3800.1453   -52720.064   0.30780545 
   83100    276.72744    -473.7753    141922.09   -48957.245    3800.1849    -52757.43   0.31732271 
   83200    274.46819   -525.21436    141872.18   -48983.118    3769.1596   -52752.278   0.31840888 
   83300    274.39669   -481.44494    141873.42   -48972.745    3768.1778   -52740.922   0.30853324 
   83400    275.93305   -497.82156    141844.27   -49045.205     3789.276   -52834.481   0.31778832 
   83500    270.89157   -517.96194    141805.66   -49147.082    3720.0434   -52867.126   0.32221286 
   83600    270.92928   -485.93499    141832.73   -49097.127    3720.5612   -52817.688   0.30839342 
   83700    273.07774   -492.19458    141855.97   -49124.296    3750.0651   -52874.362   0.30609006 
   83800    269.53894   -484.95081    141826.31   -49089.803    3701.4682   -52791.271   0.32658925 
   83900    273.17769   -524.06456    141840.35   -49093.714    3751.4378   -52845.152   0.31477073 
   84000    270.45395   -497.98975    141831.52   -49105.675    3714.0338   -52819.709   0.30300209 
   84100    272.31858   -479.28755    141833.53   -49039.154    3739.6399   -52778.793   0.32618353 
   84200    275.80863   -500.04152    141849.62   -48996.648    3787.5674   -52784.215   0.32276038 
   84300    273.34136   -497.10262    141859.01   -49047.308    3753.6854   -52800.993    0.2980545 
   84400    276.13192   -483.37516    141859.12   -49043.015    3792.0069   -52835.022   0.31325181 
   84500    270.60567   -514.07175    141808.45   -49094.557    3716.1172   -52810.674   0.32674637 
   84600    273.80561   -510.47214    141840.33   -49010.665    3760.0607   -52770.726   0.30349732 
   84700    276.55488    -509.0173    141853.15    -49021.55    3797.8153   -52819.365   0.31232891 
   84800    273.12354   -501.09166     141855.5   -49014.183    3750.6941   -52764.877   0.33047789 
   84900    275.75243   -486.28367    141865.42   -48939.402    3786.7957   -52726.198   0.30674315 
   85000    278.27387   -485.76108    141842.06   -49004.383    3821.4215   -52825.805   0.30512965 
   85100    274.00955   -501.80193    141844.46    -49022.82    3762.8613   -52785.681   0.32832124 
   85200    273.24547   -484.49036    141824.86   -49060.534    3752.3685   -52812.903    0.3119012 
   85300    273.33247   -491.92504    141842.02   -49073.369    3753.5633   -52826.933   0.30590164 
   85400    270.07439   -521.05647    141817.36    -49098.69    3708.8214   -52807.511   0.32138409 
   85500    273.43989   -521.51206    141822.74   -49045.651    3755.0385    -52800.69   0.31694067 
   85600    273.28653   -483.60994     141817.3   -49078.806    3752.9324   -52831.739   0.31433531 
   85700    273.03579   -472.43316    141847.37   -49023.928    3749.4891   -52773.417   0.31692157 
   85800    275.48293   -497.44971    141858.37   -49015.645    3783.0947   -52798.739   0.31927735 
   85900    271.36784   -536.14501    141859.84   -48987.418    3726.5838   -52714.002   0.32537305 
   86000     272.7487   -474.09285    141842.91   -49036.167    3745.5466   -52781.714   0.30680752 
   86100    274.60213   -479.57912    141834.47   -49012.485     3770.999   -52783.484   0.32206768 
   86200    277.92951   -504.05513    141826.88   -48971.992    3816.6926   -52788.685   0.32814822 
   86300     275.0796   -487.67954    141851.86    -49017.24    3777.5558   -52794.796   0.31335916 
   86400    272.96082   -511.88632    141849.67   -49074.188    3748.4596   -52822.647   0.31544797 
   86500    273.13838   -513.29487    141854.61   -49107.149    3750.8979   -52858.047   0.32733167 
   86600    277.56141   -477.24945    141886.48   -48954.383    3811.6376   -52766.021   0.30727954 
   86700    278.56863    -483.0366    141887.64   -48950.869    3825.4693   -52776.339   0.30486987 
   86800    273.66216   -540.19352    141880.21   -49071.064    3758.0908   -52829.155   0.33693052 
   86900    268.99891   -586.08402    141856.32   -49058.537    3694.0523    -52752.59   0.31522792 
   87000    275.86629   -504.21397     141859.1   -49037.359    3788.3592   -52825.718   0.29904088 
   87100    275.33391   -482.43862    141855.56   -49008.065    3781.0482   -52789.114   0.33135736 
   87200    278.35975   -528.75041    141873.61   -48944.074    3822.6008   -52766.675   0.32100673 
   87300    277.47643    -518.6612    141886.76   -48960.099    3810.4706    -52770.57   0.29997377 
   87400    275.74266   -496.59671    141854.85   -49010.301    3786.6614   -52796.962    0.3290186 
   87500    274.52719   -494.67448    141877.54   -48980.011    3769.9699   -52749.981   0.33080562 
   87600    270.36918   -508.96492    141857.24   -48999.834    3712.8697   -52712.704   0.30891933 
   87700    274.45668   -515.10495    141892.05   -48976.287    3769.0016   -52745.288   0.31514328 
   87800    277.76157   -491.97746    141885.93   -49059.162    3814.3863   -52873.548    0.3234321 
   87900    270.36519   -503.57946    141871.92   -49081.362    3712.8148   -52794.177   0.30470242 
   88000    273.51542   -517.28209    141897.44   -49056.466    3756.0756   -52812.542   0.31174506 
   88100    274.95191   -526.16414    141863.96   -49024.033    3775.8024   -52799.835   0.33030867 
   88200    271.93645   -512.90509    141845.07   -49116.016    3734.3924   -52850.408   0.31353847 
   88300    275.49612   -504.68105    141830.69   -49061.048    3783.2757   -52844.324   0.31519441 
   88400    274.32144   -486.35455    141883.16   -48997.309    3767.1444   -52764.454   0.31663999 
   88500    271.53963   -516.91053    141879.32   -49064.165    3728.9429   -52793.108   0.32550595 
   88600    272.24699    -511.2244    141854.68   -49049.955    3738.6569   -52788.612   0.31709156 
   88700    274.30375    -475.8999    141883.11   -49028.515    3766.9015   -52795.416   0.30475099 
   88800    272.07382   -482.39765    141836.81   -49085.349    3736.2787   -52821.628   0.32536621 
   88900    272.56835   -498.11607    141839.64   -49026.957    3743.0699   -52770.027   0.32221069 
   89000    275.59491   -508.10121     141847.8   -48994.427    3784.6324    -52779.06   0.31363901 
   89100    277.42971   -487.69976    141810.91    -49039.84    3809.8289   -52849.669   0.31646945 
   89200    275.51161   -502.18843    141849.74   -48997.158    3783.4885   -52780.647   0.32837381 
   89300    269.60668    -481.1072    141818.18   -49112.135    3702.3985   -52814.533    0.3087666 
   89400     275.4675     -477.047    141845.44   -49018.574    3782.8828   -52801.457   0.31101198 
   89500     270.5184   -522.48612    141845.44     -49113.8    3714.9187   -52828.719   0.33436198 
   89600    272.48308   -501.54172     141836.1   -49139.984    3741.8989   -52881.883   0.30512687 
   89700    274.84738    -472.1789     141812.7   -49054.209    3774.3669   -52828.576   0.30932273 
   89800    269.13769   -508.81941    141826.84   -48997.344    3695.9581   -52693.302   0.34199152 
   89900    272.38406   -502.25356    141844.69    -48979.32    3740.5391   -52719.859   0.31881704 
   90000    277.82449   -485.88151    141862.78   -48998.157    3815.2504   -52813.408   0.30150223 
   90100    276.65792   -498.90623    141869.31   -48987.096    3799.2304   -52786.326   0.32686785 
   90200    275.26898   -530.12463    141868.69   -49061.629    3780.1566   -52841.786   0.32138066 
   90300    274.78155    -518.9679    141821.13   -49030.696    3773.4629   -52804.159   0.30182553 
   90400    270.42502   -519.52612       141846   -49018.923    3713.6364   -52732.559   0.32938248 
   90500    270.52183   -562.76277    141821.23   -49023.978    3714.9659   -52738.944   0.33110372 
   90600    272.53263    -510.9909    141824.62   -49048.658    3742.5794   -52791.238    0.3096879 
   90700    270.39798   -534.76483    141817.69   -49074.722    3713.2651   -52787.987   0.32202454 
   90800    275.20268   -502.29302    141827.98   -49092.191    3779.2461   -52871.437   0.32439872 
   90900    273.08871   -520.24766    141854.28    -49063.17    3750.2159   -52813.385   0.31134509 
   91000    274.62464   -469.33185     141832.7     -49075.5    3771.3081   -52846.808   0.30925646 
   91100    266.84873    -554.6937    141811.35   -49190.045    3664.5247    -52854.57   0.32912476 
   91200    273.10528    -451.4391    141782.62   -49132.037    3750.4433    -52882.48   0.31701616 
   91300    272.62286   -491.13975    141807.56   -49068.829    3743.8184   -52812.648   0.31606578 
   91400    274.12905   -501.66441    141843.55    -49045.85    3764.5024   -52810.352   0.31417474 
   91500    277.77053   -496.96484    141867.23   -48890.328    3814.5094   -52704.838   0.32951412 
   91600    275.89765   -508.70101    141869.26   -48956.371    3788.7898    -52745.16   0.31824381 
   91700    274.98172   -501.73479    141845.95   -49025.221    3776.2117   -52801.433   0.30859305 
   91800    276.03916   -507.43216    141846.29   -48999.849    3790.7331   -52790.582   0.31815555 
   91900    274.95309   -493.09332    141847.78    -48993.72    3775.8186   -52769.539   0.32530122 
   92000    273.09526   -530.05103    141855.07   -49035.386    3750.3057   -52785.691   0.30937178 
   92100    274.73751   -497.83611    141865.68   -49022.069     3772.858   -52794.927   0.31547512 
   92200    274.54042   -509.83495    141854.35   -49053.422    3770.1515   -52823.574   0.33425956 
   92300    276.91787   -529.04399    141885.71   -48936.184    3802.8002   -52738.984    0.3098217 
   92400    275.16563   -512.30631    141907.02    -48977.36    3778.7373   -52756.097    0.3066007 
   92500    273.54882    -499.1649    141905.82   -48973.505    3756.5343   -52730.039   0.33065629 
   92600    275.76476   -500.09656    141921.92   -48889.054    3786.9649   -52676.019   0.30911678 
   92700    274.79023   -521.42978    141906.83   -49004.928    3773.5821    -52778.51   0.30278587 
   92800    273.01933   -514.55246    141877.36   -49017.145     3749.263   -52766.408   0.32742765 
   92900    269.11781   -529.55617    141866.19   -49052.823     3695.685   -52748.508   0.31763105 
   93000    274.44962   -516.95489    141863.94   -49066.296    3768.9047   -52835.201   0.30222338 
   93100     272.7444   -489.39903    141851.66   -48978.789    3745.4875   -52724.276   0.33138569 
   93200     268.6593   -527.56933    141870.64   -49043.689    3689.3886   -52733.078   0.32368203 
   93300    273.57571   -510.46422    141844.28   -49088.152    3756.9035   -52845.056   0.29705692 
   93400    274.48399   -510.42867    141796.09   -49139.868    3769.3766   -52909.244   0.32217354 
   93500    270.63682   -504.54504    141789.31   -49142.905     3716.545    -52859.45   0.32501936 
   93600    276.02972   -489.67482    141800.12   -49091.722    3790.6035   -52882.326   0.30562423 
   93700    270.63612   -513.04317    141811.55   -49068.179    3716.5354   -52784.714    0.3287557 
   93800    271.54691    -483.0039    141800.61    -49067.05     3729.043   -52796.093   0.31896685 
   93900    269.07886   -518.39744    141787.08   -49141.596    3695.1502   -52836.746   0.32142128 
   94000     270.8535   -507.46046    141764.43   -49115.687    3719.5206   -52835.208     0.326603 
   94100    275.73825   -472.40299    141823.95   -48997.806    3786.6008   -52784.407   0.31088658 
   94200    279.79556   -479.55268    141849.32   -48987.043    3842.3182   -52829.362   0.31766611 
   94300    277.45925   -505.08103    141859.91   -48999.469    3810.2346   -52809.704   0.32285333 
   94400    275.59452    -501.1617    141846.82   -48996.443    3784.6271    -52781.07   0.30540118 
   94500    273.95212   -534.95345    141833.67   -48997.857    3762.0727    -52759.93   0.32925867 
   94600    279.24488   -474.00518    141836.62   -49006.443     3834.756   -52841.199   0.32312591 
   94700     275.6579    -533.6872    141802.82   -49040.874    3785.4974   -52826.371   0.30640733 
   94800    269.55748   -509.23157    141821.71   -49080.054    3701.7229   -52781.777   0.31868265 
   94900    272.30673   -518.05502    141818.33   -49105.299    3739.4772   -52844.776   0.33591826 
   95000    272.30826   -481.56854    141789.92    -49063.03    3739.4982   -52802.528   0.30397479 
   95100    273.41984   -478.26416    141801.21   -49025.928    3754.7631   -52780.691   0.31405764 
   95200    268.73351   -501.93562    141827.77   -49052.639    3690.4076   -52743.047   0.34514956 
   95300    275.19894   -464.84953    141854.61   -49012.439    3779.1947   -52791.634   0.29642482 
   95400    279.94379   -479.39527    141875.72   -48984.623    3844.3538   -52828.977   0.29894611 
   95500    274.90334   -520.08014    141882.72   -49002.626    3775.1354   -52777.761   0.34898135 
   95600    273.09339    -489.7462     141890.4   -48991.146      3750.28   -52741.426   0.30411656 
   95700     272.5556   -478.87119    141849.05   -49032.808    3742.8949   -52775.702    0.3073497 
   95800     279.3047   -470.81858    141831.66   -48970.924    3835.5774   -52806.501   0.34041373 
   95900    275.79277   -474.05561    141827.75   -48992.774    3787.3496   -52780.124   0.31147283 
   96000    274.73252   -519.27736    141823.01   -48958.149    3772.7896   -52730.938   0.31819679 
   96100    272.16757    -548.5816    141856.87   -48904.331    3737.5662   -52641.898   0.33752703 
   96200     272.5618   -519.50145    141880.13    -48931.38    3742.9799    -52674.36   0.32800298 
   96300    278.32295   -486.56068    141858.75   -48945.277    3822.0955   -52767.373   0.30796904 
   96400    276.47226   -473.37085    141851.94    -48994.45    3796.6807   -52791.131   0.31582245 
   96500    274.67515   -530.49505    141864.53   -48995.948    3772.0018    -52767.95   0.32374975 
   96600    276.57622   -507.57126    141839.18   -49041.955    3798.1084   -52840.063   0.31348659 
   96700     274.9107   -467.67248    141833.35     -49014.8    3775.2364   -52790.036    0.3199789 
   96800    279.52831   -506.17928    141824.73    -49031.28    3838.6482   -52869.929   0.31404103 
   96900    277.25312   -507.40019    141826.75   -49040.469     3807.404   -52847.873   0.31858027 
   97000    267.16746   -517.44004    141815.74    -49108.98    3668.9017   -52777.881    0.3281029 
   97100    268.76656   -497.51545     141795.9   -49077.086    3690.8615   -52767.947   0.30410689 
   97200    277.38759   -497.92611    141821.75   -49024.891    3809.2506   -52834.141   0.32823944 
   97300    279.35307    -480.4763    141853.84   -48916.415    3836.2416   -52752.657   0.32057098 
   97400    271.21902   -563.05705    141872.76   -49009.587    3724.5402   -52734.127   0.30110667 
   97500    274.66657   -540.92508    141870.69   -48982.101     3771.884   -52753.985   0.32625175 
   97600     280.7991    -457.5107    141900.23   -48918.126    3856.0995   -52774.226   0.32793745 
   97700    272.56134   -480.04152    141891.36   -48878.472    3742.9736   -52621.445    0.3107295 
   97800    277.18638   -505.49811    141880.96   -48981.669    3806.4874   -52788.157   0.31438797 
   97900    275.94787   -476.51322     141891.4   -48944.839    3789.4795   -52734.319   0.33297142 
   98000    271.17342   -536.42023    141855.92   -49030.706     3723.914    -52754.62   0.30418824 
   98100    275.62402   -502.81807    141873.85    -49020.29    3785.0321   -52805.322    0.3036672 
   98200    275.65351   -474.91604    141860.15   -49017.272    3785.4372   -52802.709   0.33584538 
   98300    275.96609   -490.73855    141862.09   -48955.118    3789.7297   -52744.847   0.30748997 
   98400    275.29743   -529.64997    141869.46   -48997.922    3780.5473    -52778.47    0.3072061 
   98500    276.56976   -486.83989    141868.67   -48978.244    3798.0196   -52776.264   0.33459035 
   98600    275.20121   -554.15286    141860.87   -48983.281    3779.2259   -52762.507    0.3222284 
   98700    277.14993   -525.49275    141844.75    -48947.53    3805.9869   -52753.517    0.3083111 
   98800    275.00747   -516.18387    141843.86   -48957.236    3776.5653   -52733.801    0.3272578 
   98900    273.14415   -496.16579    141824.89   -49019.743    3750.9771    -52770.72    0.3251535 
   99000    273.31766   -518.57281    141812.19   -49015.297    3753.3598   -52768.657   0.31318191 
   99100    271.47436   -527.42646    141813.03   -49074.888    3728.0466   -52802.934   0.31795989 
   99200    274.84073   -512.21976    141793.42   -49073.972    3774.2755   -52848.247   0.32631301 
   99300    271.96294   -529.84803    141798.81   -49002.184    3734.7561   -52736.941    0.3318172 
   99400    275.87927   -506.39434    141811.71   -49040.751    3788.5374   -52829.288   0.31527526 
   99500    281.38366   -453.66882    141844.46   -48996.873     3864.127       -52861   0.31586563 
   99600    274.38117   -499.02589    141844.76   -48993.272    3767.9646   -52761.236   0.33260435 
   99700     270.7687   -524.69835    141824.33   -49037.999     3718.356   -52756.355   0.31134493 
   99800    273.01055   -484.85449    141827.37   -49050.692    3749.1424   -52799.834   0.31408164 
   99900     273.1551   -531.34455    141798.66   -49103.902    3751.1275   -52855.029   0.33586102 
  100000     273.1283    -484.8824    141809.52   -49023.586    3750.7595   -52774.346   0.32323052 
Loop time of 115.666 on 6 procs for 100000 steps with 4608 atoms

Performance: 373.490 ns/day, 0.064 hours/ns, 864.561 timesteps/s
98.9% CPU use with 6 MPI tasks x no OpenMP threads

MPI task timing breakdown:
Section |  min time  |  avg time  |  max time  |%varavg| %total
---------------------------------------------------------------
Pair    | 97.171     | 97.961     | 99.265     |   6.7 | 84.69
Neigh   | 6.3708     | 6.5344     | 6.7913     |   6.7 |  5.65
Comm    | 7.3442     | 8.4489     | 9.4195     |  22.0 |  7.30
Output  | 0.16851    | 0.16918    | 0.17217    |   0.3 |  0.15
Modify  | 1.8527     | 1.9113     | 1.9506     |   2.6 |  1.65
Other   |            | 0.6414     |            |       |  0.55

Nlocal:        768.000 ave         780 max         754 min
Histogram: 1 0 0 1 1 1 0 0 0 2
Nghost:        1653.83 ave        1668 max        1637 min
Histogram: 1 0 1 0 0 2 0 0 0 2
Neighs:        0.00000 ave           0 max           0 min
Histogram: 6 0 0 0 0 0 0 0 0 0
FullNghs:      24196.7 ave       24646 max       23773 min
Histogram: 1 0 1 2 0 0 0 0 0 2

Total # of neighbors = 145180
Ave neighs/atom = 31.506076
Neighbor list builds = 6603
Dangerous builds = 0

undump              1
unfix               2
unfix               3
unfix               4




################################################
#######         Run Simulation         #########
################################################

reset_timestep      0
log                 log.run_${NAME}
log                 log.run_ice_275K_-500atm_mW
