
# Import phase coexistance setup
#
read_data           data.coexist_${TEMP}K_${PRES}atm_mW
read_data           data.coexist_275K_${PRES}atm_mW
read_data           data.coexist_275K_-500atm_mW
Reading data file ...
  orthogonal box = (0.36531538 -0.35761077 -0.35761077) to (104.27609 50.542857 50.542857)
  3 by 1 by 2 MPI processor grid
  reading atoms ...
  8507 atoms
  reading velocities ...
  8507 velocities
  read_data CPU = 0.040 seconds

# Define potential
#
pair_style 	    sw
pair_coeff	    * * /data/emrosky-sim/Freezing_Simulations/Melting/mW_fancy/mW.sw mW
Reading sw potential file /data/emrosky-sim/Freezing_Simulations/Melting/mW_fancy/mW.sw with DATE: 2019-02-27

# Reset velocity/set timestep
#
velocity	    all create ${TEMP} 120598 rot yes dist gaussian
velocity	    all create 275 120598 rot yes dist gaussian
timestep	    10.0

# Define output
#
compute	            1 all msd
compute             2 all orientorder/atom nnn NULL degrees 2 4 12
thermo              1000
thermo_style        custom step temp press vol etotal ke pe c_1[4]

# Neighbor lists
#
neigh_modify        delay 0 every 1 check yes

# Set fixes
#
fix                 1 all momentum 10 linear 1 1 1 rescale
fix                 2 all nph iso ${PRES} ${PRES} ${PCOUPL}
fix                 2 all nph iso -500 ${PRES} ${PCOUPL}
fix                 2 all nph iso -500 -500 ${PCOUPL}
fix                 2 all nph iso -500 -500 10000.0
fix                 3 all temp/csvr ${TEMP} ${TEMP} ${TCOUPL} 837492
fix                 3 all temp/csvr 275 ${TEMP} ${TCOUPL} 837492
fix                 3 all temp/csvr 275 275 ${TCOUPL} 837492
fix                 3 all temp/csvr 275 275 5000.0 837492

# Run very short equilibration
#
dump		    1 all atom 50 eq.${NAME}.dump
dump		    1 all atom 50 eq.melt_275K_-500atm_mW.dump
run	            500
Neighbor list info ...
  update every 1 steps, delay 0 steps, check yes
  max neighbors/atom: 2000, page size: 100000
  master list distance cutoff = 6.3065
  ghost atom cutoff = 6.3065
  binsize = 3.15325, bins = 33 17 17
  2 neighbor lists, perpetual/occasional/extra = 1 1 0
  (1) pair sw, perpetual
      attributes: full, newton on
      pair build: full/bin/atomonly
      stencil: full/bin/3d
      bin: standard
  (2) compute orientorder/atom, occasional, copy from (1)
      attributes: full, newton on
      pair build: copy
      stencil: none
      bin: none
Per MPI rank memory allocation (min/avg/max) = 4.599 | 4.602 | 4.605 Mbytes
Step Temp Press Volume TotEng KinEng PotEng c_1[4] 
       0          275   -678.53229    269218.03   -79512.147    6972.5618   -86484.709            0 
     500    324.47649   -355.02244    262383.48   -81328.133    8227.0268    -89555.16    17.465298 
Loop time of 1.71041 on 6 procs for 500 steps with 8507 atoms

Performance: 252.571 ns/day, 0.095 hours/ns, 292.328 timesteps/s
99.8% CPU use with 6 MPI tasks x no OpenMP threads

MPI task timing breakdown:
Section |  min time  |  avg time  |  max time  |%varavg| %total
---------------------------------------------------------------
Pair    | 0.94277    | 1.1861     | 1.4673     |  19.1 | 69.35
Neigh   | 0.12792    | 0.15073    | 0.16643    |   4.2 |  8.81
Comm    | 0.039437   | 0.33622    | 0.60234    |  38.4 | 19.66
Output  | 0.007796   | 0.0083394  | 0.0088561  |   0.4 |  0.49
Modify  | 0.023146   | 0.023747   | 0.02422    |   0.3 |  1.39
Other   |            | 0.005281   |            |       |  0.31

Nlocal:        1417.83 ave        1433 max        1388 min
Histogram: 1 0 0 0 0 2 0 0 1 2
Nghost:        2226.67 ave        2259 max        2199 min
Histogram: 1 1 0 1 1 0 0 1 0 1
Neighs:        0.00000 ave           0 max           0 min
Histogram: 6 0 0 0 0 0 0 0 0 0
FullNghs:      45574.0 ave       46174 max       44183 min
Histogram: 1 0 0 0 0 1 1 0 0 3

Total # of neighbors = 273444
Ave neighs/atom = 32.143411
Neighbor list builds = 84
Dangerous builds = 0

reset_timestep      0
undump              1
unfix               2
unfix               3


################################################
#######         Run Simulation         #########
################################################

log                 log.run_${NAME}
log                 log.run_melt_275K_-500atm_mW
