LAMMPS data file via write_data, version 29 Oct 2020, timestep = 200000

4608 atoms
1 atom types

-0.08788456978093961 57.35839456978292 xlo xhi
-0.07811961758156727 50.9852396175786 ylo yhi
-0.07811961758156727 50.9852396175786 zlo zhi

Masses

1 18.015

Atoms # atomic

29 1 4.681232575467397 1.6287586637428348 1.1972519834936926 0 0 0
285 1 10.73402606862103 1.3353207621101226 1.436223160845535 0 0 0
18 1 0.06686278980210184 3.3180917394957588 9.334658750833876 0 0 0
541 1 17.744654461715143 1.6068087876881336 1.8090985431607611 0 0 0
537 1 16.075014248621347 50.904362822909164 3.0984329411297513 0 -1 0
30 1 1.4918947844877317 4.8175301369114285 1.557966878002585 0 0 0
207 1 0.1555346204527899 38.13270938258748 13.16293804429887 0 0 0
286 1 7.722474420585887 4.713589357984899 1.6292161775687002 0 0 0
542 1 14.13644723222778 4.523839247370548 1.2215745056981984 0 0 0
61 1 4.516710951643897 7.622670049393107 1.4078259546854721 0 0 0
313 1 9.224513903595732 6.428264236506912 2.9851203774927533 0 0 0
607 1 12.55431489770712 12.582064752692862 -0.06731724220702637 0 0 0
317 1 10.946099255078677 7.998251118708966 1.625571009514068 0 0 0
210 1 0.0708433535563259 41.64761770809838 9.420905488464882 0 0 0
569 1 15.956513799518703 6.495826837967507 2.5988763843037654 0 0 0
573 1 17.54039919103704 8.09308659839065 1.154201624291498 0 0 0
62 1 1.346420275643867 11.320045781316992 1.6616251566479638 0 0 0
1151 1 6.27880874599491 18.68097771479575 25.355510053510567 0 0 0
314 1 6.057101322862506 9.682349883878944 2.87106808282752 0 0 0
318 1 7.717084852930647 10.933746701566237 1.1781203698291445 0 0 0
170 1 0.2269453608220947 34.750344106111584 16.00188986139197 0 0 0
574 1 14.251943921015066 11.284399117719442 1.6342176914819766 0 0 0
215 1 0.35494736830852947 38.46175711027804 6.2697333362282865 0 0 0
89 1 2.838138223441416 12.551949390364905 3.3793786982983303 0 0 0
740 1 17.42171114290361 49.25446151568045 23.747272946495002 0 0 0
93 1 4.5138186337734805 14.411246772786948 1.8001303279798873 0 0 0
250 1 -0.005800368656692076 47.726940072281195 3.014057600085676 0 0 0
349 1 10.954623225239315 14.277390610802343 1.6484461108995743 0 0 0
601 1 15.659331140274384 12.93999291867352 3.3640182397897216 0 0 0
2463 1 18.94388600446776 25.018504889722877 25.349621034723825 0 0 0
605 1 17.65971221890085 14.05344160122901 1.5974048755419255 0 0 0
94 1 1.0671414790054943 17.525260746708522 1.428880758191613 0 0 0
416 1 9.458125331746153 28.802292883543668 0.025263888425643782 0 0 0
350 1 7.747899473819774 17.554388430160756 1.524723483635176 0 0 0
640 1 15.61640043857741 21.99426175993574 -0.037740556064311946 0 0 0
602 1 12.463208309576876 15.510324252105221 3.433111798755335 0 0 0
606 1 14.340670285989681 16.91324647819255 1.9429317619115274 0 0 0
130 1 0.47384081452140225 28.488722826188543 22.324896360117705 0 0 0
125 1 4.465752698188684 20.702015709160648 1.6322728366380237 0 0 0
1472 1 15.782531036372426 35.101461178308725 25.065765974799167 0 0 0
381 1 10.477057035556008 20.303898998561866 1.5770044478325977 0 0 0
637 1 17.5654276600968 20.399733438885892 1.5889421781614785 0 0 0
126 1 1.6080192499009884 23.56562620592727 1.620669610427642 0 0 0
382 1 7.762463050288129 23.839208073354207 1.6215944808619418 0 0 0
2 1 -0.029000191603024916 2.956046048268614 22.52325073545592 0 0 0
71 1 0.38448346557087826 12.407924105186463 18.98474961910583 0 0 0
153 1 3.127916350467939 25.078464178761678 3.446188617902142 0 0 0
1666 1 18.990403079781302 28.754028337423488 21.97144089152833 0 0 0
409 1 9.668519881885189 25.38811467474851 3.0882041879757764 0 0 0
413 1 11.101584594321569 27.17162148638867 1.3973866947412352 0 0 0
638 1 14.215674644992667 23.96571422762444 1.5999509305901756 0 0 0
669 1 17.974123308104613 27.16999530029286 1.7621905027738622 0 0 0
484 1 10.957316872256921 49.1998188623168 23.933619159305568 0 0 0
157 1 4.535597385994385 26.732476370103573 1.715123347400311 0 0 0
414 1 7.831942704732806 30.459451904328567 1.8332035105686502 0 0 0
1439 1 12.546155630053597 26.096752077578472 25.437936573367793 0 0 0
158 1 1.481804625840181 30.112658553612846 1.3787813092705121 0 0 0
185 1 3.338037701663725 31.635664476614533 2.93746392676686 0 0 0
441 1 9.627071211675066 32.03436975108909 2.980565688623072 0 0 0
639 1 12.316570779262335 18.693118305347507 0.5588453231912969 0 0 0
512 1 9.568530613233996 47.85331314956326 -0.07310952230436742 0 0 0
670 1 14.070234868076723 30.020571778364005 1.7250815955094563 0 0 0
701 1 17.08502674117007 33.54242264023125 1.7841162771366814 0 0 0
1703 1 18.97907384751629 31.774838458560335 18.7629052358264 0 0 0
189 1 4.91375130366195 33.58260628153198 1.7112947968818952 0 0 0
442 1 6.598244413299108 35.0647138541072 3.1306144175173305 0 0 0
445 1 11.250413773956994 33.63983696302924 1.5815021804353426 0 0 0
58 1 0.15154036372666596 9.356248065049613 3.2520683789689704 0 0 0
190 1 1.5694199393471184 36.50006285315651 1.6316362198966678 0 0 0
217 1 3.1823123997313303 38.24997481423269 3.170705334669743 0 0 0
446 1 7.961435613512901 36.890024493145305 1.3376390223350347 0 0 0
159 1 0.4710635720887688 25.595178594489333 0.13138058386611573 0 0 0
702 1 14.522213144833634 36.66467804469234 1.5347716034482564 0 0 0
729 1 16.22253351275888 38.25248499879048 2.9871985067062075 0 0 0
1343 1 12.71090065907712 6.176134545065731 25.231028905825898 0 0 0
221 1 4.642401622833097 39.97851026825785 1.5155409594593152 0 0 0
474 1 6.236525457596157 41.26131137502024 3.124451067182764 0 0 0
42 1 0.16952931634431212 9.206041913220947 15.729326140235619 0 0 0
477 1 11.154530185414332 40.00174449182643 1.5688488159654586 0 0 0
730 1 12.714540027678328 41.23010392245955 3.1586490769913858 0 0 0
733 1 17.728110830574 39.79756323701433 1.1986883211992947 0 0 0
218 1 0.15628222672648953 41.39682344474282 3.056511069433709 0 0 0
222 1 1.6007538243106565 42.912238376201 1.3385257613042405 0 0 0
249 1 2.635293929430321 44.751838536579854 3.344112141945196 0 0 0
183 1 0.39103344395913575 31.82063859621569 6.196236428293517 0 0 0
478 1 7.91064614044154 42.941218016141875 1.8406824848421834 0 0 0
505 1 9.502552938328746 44.43088978079187 3.3859471849473697 0 0 0
734 1 14.141429778340706 42.87497737835251 1.390814749425935 0 0 0
761 1 15.942626233007772 44.5167858003619 2.7857376344243088 0 0 0
1087 1 6.186788778503018 6.047280963570047 25.332922955296254 0 0 0
253 1 4.448003987999767 46.13966883428117 1.6476255979075305 0 0 0
15 1 0.1710256511659694 0.029905313279869006 12.491687329947235 0 0 0
506 1 6.301315343592905 47.58485070049916 3.3973461183034694 0 0 0
509 1 11.438089408686823 46.011187144529416 1.5009012882140664 0 0 0
762 1 13.238091673091942 47.767986025742985 2.8324172194041446 0 0 0
765 1 17.44589685533007 46.12024704349662 1.3548615864830011 0 0 0
1407 1 12.891794047229782 19.022344762645368 25.299900876340224 0 0 0
254 1 1.6583969806645813 49.515571778098334 1.3146941320692551 0 0 0
510 1 7.563495091226428 49.14311984097914 1.4772130280895677 0 0 0
766 1 14.4724038186858 49.73222023982741 1.223432093928843 0 0 0
25 1 3.1275268467386033 50.84982685972304 3.0276998148388317 0 -1 0
27 1 1.416660721289411 1.3254886082302433 4.763674385471271 0 0 0
279 1 6.839382983385004 -0.015522197045904587 6.132393495574127 0 0 0
283 1 8.099010288334847 1.4697200222520033 4.510399506064503 0 0 0
281 1 9.363915490190433 50.46503526706891 3.016942606231254 0 -1 0
539 1 14.374349468912479 1.263184097953453 4.689347475228303 0 0 0
535 1 12.736168442263956 0.0008191177914795844 6.416278257132801 0 0 0
1727 1 18.746184176092253 32.128764920382636 0.1989349943878737 0 0 0
57 1 3.0747982817954242 6.32775624408297 3.44277470626904 0 0 0
282 1 6.196990387833943 3.049820226390624 3.1726878745375955 0 0 0
28 1 4.342041580197306 4.161777602598767 4.677689993904494 0 0 0
280 1 9.338305613996539 3.182806679277044 5.735697875841296 0 0 0
284 1 11.14800170884145 4.822466417612749 4.017304832015157 0 0 0
538 1 12.832266976020271 2.825568269688668 3.132729034261009 0 0 0
540 1 17.661112817002035 5.009810320615003 4.29062106190253 0 0 0
59 1 1.6675031870835602 7.815587976317892 5.088686689349667 0 0 0
315 1 7.289738686890067 7.832046870495192 4.342162708901644 0 0 0
571 1 14.381852574021156 7.657171761679943 4.482997143879397 0 0 0
60 1 4.3548907352752115 11.050721421810117 4.6558467227795495 0 0 0
316 1 10.841544932246297 10.910159958751178 4.752336769460113 0 0 0
570 1 12.683727043017877 9.467059481833944 3.245888452002801 0 0 0
572 1 17.626939297421195 11.351881505870837 4.91012248824422 0 0 0
26 1 0.07987731208475699 3.0442233522978452 2.970713479250649 0 0 0
91 1 1.2188295338084187 14.263000681450565 4.82855736126946 0 0 0
343 1 5.909319842815928 12.811426258288188 6.163712980257938 0 0 0
345 1 9.396403853950886 12.318628123930786 3.031287240083898 0 0 0
347 1 7.924224763191548 14.08142333958402 4.662762275941711 0 0 0
599 1 12.170052376998349 12.382157274663438 6.443312151824047 0 0 0
603 1 13.855603837301686 13.98937133214342 5.2267878053243955 0 0 0
88 1 2.7589303005008077 16.0578792995133 6.350089893560155 0 0 0
92 1 4.615197547173294 17.433628499489902 4.818299712202245 0 0 0
346 1 6.273052814555578 15.842811216487647 3.0474436898020874 0 0 0
348 1 10.725568684224642 17.19833275131421 4.837400646939739 0 0 0
600 1 15.784573328977235 15.478656526770015 6.527687863161316 0 0 0
604 1 17.29027631069999 17.412851510044934 5.134526805214387 0 0 0
146 1 0.2444407084361946 28.86504409974966 9.63689484681711 0 0 0
228 1 4.63840258808777 49.629208863562795 23.9849418684834 0 0 0
121 1 2.8722868783045605 18.91256170418335 3.1116150222410783 0 0 0
123 1 1.231351481836451 20.560361323977016 4.452840426866463 0 0 0
379 1 7.503239790465957 20.47624325233396 4.705561829691202 0 0 0
377 1 9.12104671408093 18.802075265763204 3.488304405529036 0 0 0
633 1 15.573664872889356 18.865070890695787 3.1184714903127344 0 0 0
635 1 13.9826001785606 20.602509178821204 4.698585761878041 0 0 0
124 1 4.7553684716088265 23.648241647184502 5.026454595318299 0 0 0
120 1 2.9102024399766266 22.136998372924683 6.217411131474978 0 0 0
378 1 6.248757310090731 22.213409075342327 3.0862820954786394 0 0 0
376 1 9.339397600676893 21.724562065939462 6.19349957047565 0 0 0
634 1 12.252819067547644 22.26433376033646 2.9914944601291467 0 0 0
636 1 17.529924682130652 23.388390790572508 4.478768288720344 0 0 0
155 1 1.2397633568581787 26.647994725394888 4.836597064583147 0 0 0
411 1 7.711023641442721 26.657145759040286 4.80426262791866 0 0 0
380 1 10.766541179513915 23.68739581814988 4.980787234229501 0 0 0
665 1 16.2475930456565 25.29457669735856 3.0349727446488983 0 0 0
410 1 6.244086697059925 28.374608759013874 3.284004676741187 0 0 0
667 1 14.282179295702337 26.55490274657829 4.701444165743517 0 0 0
666 1 12.415850897620055 28.39075990651464 3.4570286704957836 0 0 0
352 1 9.276116997577512 15.893148768856777 0.293698148628434 0 0 0
156 1 4.731574647738078 29.938381167359374 4.988943711132872 0 0 0
412 1 10.907214342984805 30.268773535817967 5.060884471157762 0 0 0
697 1 15.581821039911523 31.682558421503295 2.9884468414841994 0 0 0
668 1 17.69141613326131 30.351599658111326 4.608055307527211 0 0 0
187 1 1.8143781670719161 33.3968501829431 4.582257244807788 0 0 0
443 1 7.749679440904163 33.33088044975024 4.582895305792478 0 0 0
698 1 12.79191026715888 35.13986112570136 3.1800915932061518 0 0 0
440 1 9.45796069250775 34.853643394931325 6.153243245352396 0 0 0
699 1 14.21857141042788 33.33743896111591 4.450559677172123 0 0 0
696 1 15.841422265030724 35.06076465442652 5.994190079171129 0 0 0
672 1 16.060107743778026 28.752626428942232 0.18593642436809715 0 0 0
188 1 4.944090413194928 36.68761619779539 4.736763028180974 0 0 0
471 1 6.5096850034115565 38.326568012420196 6.4450822136628165 0 0 0
473 1 9.586632932891632 38.4936722901045 2.889483946472595 0 0 0
444 1 11.20775506760255 36.67684384054377 4.440095590148104 0 0 0
727 1 12.903144792405213 37.93991766999207 6.298902369928633 0 0 0
700 1 17.600383501676856 36.611661515714985 4.530279586389369 0 0 0
219 1 2.0061239209658313 40.0472337686801 4.582515661836544 0 0 0
216 1 3.237289176841548 41.64188781562338 5.955118750021197 0 0 0
475 1 7.996771660487493 39.66358132320647 4.694934046564327 0 0 0
472 1 9.681305413543592 41.22053793655327 6.2855511969644775 0 0 0
731 1 14.15040854218129 39.58512732850767 4.579084632884575 0 0 0
220 1 4.879658095852137 43.44657515745912 4.480088427965921 0 0 0
503 1 6.443290867644648 44.65158719668423 6.323287917034311 0 0 0
476 1 11.17497567735666 42.87768908493578 4.723834363921857 0 0 0
732 1 17.59391471651332 43.04159636862309 4.429085682938841 0 0 0
1056 1 9.290486485502838 3.015997356065025 25.355885682304145 0 0 0
251 1 1.7257879609138744 46.45643604240908 5.122360675707609 0 0 0
248 1 3.2774001174801612 48.11694663016392 6.398279801704395 0 0 0
507 1 8.123867857303992 46.318440493218475 4.857083538295724 0 0 0
763 1 14.335050781845707 46.03536738009741 4.774847520898152 0 0 0
760 1 15.65988281357444 47.56822213166238 6.485926815395258 0 0 0
199 1 0.02990683826739164 38.41419492284841 19.38345567314719 0 0 0
252 1 4.861329468603831 49.65011360596354 4.874321120382394 0 0 0
508 1 11.544100514313373 49.095000278790266 4.788264398842357 0 0 0
764 1 17.29630169901951 49.207207163990304 4.621956263147127 0 0 0
1751 1 18.98337762478626 38.29954331654943 6.107659232285424 0 0 0
21 1 4.828299661225842 1.2357002209820345 8.140217506545534 0 0 0
277 1 11.370153632274242 1.639618598049631 7.781372969703564 0 0 0
529 1 16.44713862283717 0.24725811530973146 9.469040247097988 0 0 0
533 1 17.82433932501007 1.7445195859220821 7.5214913951347535 0 0 0
22 1 1.5616291739245782 4.598484108444735 7.504993847401788 0 0 0
24 1 3.1739630644165326 2.5445814839366276 6.514471207472223 0 0 0
278 1 7.874293614666091 4.644086169750621 7.616017204481342 0 0 0
534 1 14.648345669218045 4.532715349685155 7.782324196332946 0 0 0
530 1 13.016891407140104 3.1516185892638626 9.458872851958226 0 0 0
536 1 16.186056166809795 3.3344152876306414 5.871444282539357 0 0 0
53 1 4.6417821180429035 7.668595043824063 7.741240581611949 0 0 0
311 1 5.988150937234306 5.989550856964549 5.881927700398524 0 0 0
309 1 11.43518039668539 7.892009322162719 7.304485552349592 0 0 0
305 1 9.770303870580054 6.460826793788905 9.301711322160145 0 0 0
567 1 12.938348924784515 6.004743793388925 5.9561789626416735 0 0 0
565 1 17.628067965479953 7.90651811368737 8.227714617025047 0 0 0
7 1 0.10748603660279235 0.12028033534598137 19.43385529109365 0 0 0
54 1 1.0481655662960259 10.895767827320752 7.908556365055621 0 0 0
56 1 2.924354235176718 9.354237033553758 6.506399434112582 0 0 0
306 1 6.038640147459484 9.427585755250819 9.25115767036882 0 0 0
310 1 7.719529562567835 11.07410528088937 7.810131915196405 0 0 0
312 1 9.128200586399904 9.087394065413228 6.16323778668329 0 0 0
562 1 12.64337480199522 9.27011326829617 9.482634291317677 0 0 0
566 1 14.29502904639978 10.9369392756737 7.856703334408705 0 0 0
568 1 15.912796751261862 9.194213581241359 6.320675973563909 0 0 0
81 1 3.0728410171223657 12.068879007223165 9.442575705554598 0 0 0
85 1 4.351854711738686 14.168312103615301 8.066795838279223 0 0 0
337 1 9.247895959833864 12.120179682977373 9.922488578569546 0 0 0
341 1 10.847851912004057 13.663082022262124 8.327868347307133 0 0 0
597 1 17.540400271994017 14.369452569337742 8.34745629842116 0 0 0
86 1 1.2905761102180002 17.600817743316945 7.907688943110501 0 0 0
338 1 5.9967767664719895 15.835749540152522 9.732847881090102 0 0 0
342 1 7.750114365856627 17.198632080530018 7.857458245541967 0 0 0
344 1 9.500953826878131 15.357511009113196 6.401945061868133 0 0 0
594 1 12.77543715785145 15.725388789429385 9.614891422511263 0 0 0
598 1 14.109493022264441 17.275098740087586 7.833947971304658 0 0 0
113 1 3.034361279404549 19.041289427836844 9.543626169263439 0 0 0
375 1 6.05339564130588 18.863677307593573 6.437184871848396 0 0 0
117 1 4.415791730527141 20.646945776729222 7.962567638162065 0 0 0
631 1 12.413755661182764 18.671840026497303 6.199199819765295 0 0 0
369 1 9.485591478574165 18.538103730102506 9.496725370990973 0 0 0
629 1 17.53878807366049 20.701069500281267 7.998780378288011 0 0 0
167 1 0.06794157999474632 32.107111551037036 19.43869298709591 0 0 0
118 1 1.3686641795492618 23.663094957526884 7.830464397609436 0 0 0
374 1 8.289790612268735 23.713146710009685 7.9419924428905 0 0 0
373 1 10.972743338666673 20.150013779973918 7.813826831723678 0 0 0
626 1 12.68536471109325 21.86445938531122 9.135268727904519 0 0 0
630 1 14.22648315816129 23.58905977271238 7.611878420108345 0 0 0
632 1 15.891388838463508 21.786528819256162 6.395258242046401 0 0 0
10 1 0.1684836164891904 3.15301723522259 15.80982056242373 0 0 0
149 1 4.545666517483415 26.83469839076366 8.43030202569581 0 0 0
407 1 6.115455281491047 25.327396593049073 6.837710471334388 0 0 0
663 1 12.58413214472323 25.1240559021284 6.213019344651713 0 0 0
657 1 15.712296191676955 25.362567842843784 9.145570573653039 0 0 0
152 1 3.0451000060583757 28.178019410468586 6.442528431018716 0 0 0
408 1 8.964438082024577 28.655197124269186 6.523350497843151 0 0 0
405 1 11.02889243615556 27.116058482703796 7.570403177464729 0 0 0
661 1 17.642449158641558 26.759856875320512 7.4521224483898285 0 0 0
664 1 16.001022336437707 28.53042394240675 5.953010090916937 0 0 0
150 1 1.660727253694112 30.081191598898197 7.757626766735149 0 0 0
439 1 6.113268208284781 31.863734066223987 6.30016170883347 0 0 0
177 1 3.049914666029384 31.736013599641232 9.584285948737692 0 0 0
406 1 7.53298739880396 30.27113401224618 8.096569843789103 0 0 0
695 1 12.475055478901973 31.971180506093912 6.285011025012542 0 0 0
662 1 14.362538598018968 30.468971656162534 7.610139171436579 0 0 0
1 1 3.0681478974436756 -0.04867208947182178 22.348719251341347 0 0 0
184 1 3.4564056162497305 35.01442085587591 6.202588045341974 0 0 0
181 1 4.967179310560732 33.34359184262908 8.07389189666888 0 0 0
437 1 10.796741917534272 33.29012989653516 7.754095481627157 0 0 0
693 1 17.32481639831917 33.45460292739715 7.443576546151238 0 0 0
383 1 6.007903947695199 19.06880066442446 0.13935514645748506 0 0 0
182 1 1.9327555004968895 36.63466068329217 7.745305130943159 0 0 0
438 1 7.94588103822446 36.34893519571955 7.747646579405814 0 0 0
694 1 14.594146291775122 36.714601452476614 7.968453316639216 0 0 0
721 1 15.857642349689016 38.30218226597184 9.522327595452222 0 0 0
213 1 4.828334841064193 40.16250733656615 7.754035886079743 0 0 0
466 1 6.490981979752039 41.5783705662499 9.57685083194502 0 0 0
469 1 11.131925622486674 39.37437763970851 7.7957805250463235 0 0 0
722 1 12.608299527115095 41.323672641377186 9.174532171908808 0 0 0
728 1 16.028314113363823 41.29192691970668 6.027659053425656 0 0 0
725 1 17.315904340090885 39.95004838675666 7.938483851774327 0 0 0
739 1 14.20606030632967 45.84129227305749 23.668074836498658 0 0 0
214 1 2.0912473626496917 43.363242230172006 7.5514944982190055 0 0 0
241 1 3.6941407686088916 44.158543674542614 9.772302187801175 0 0 0
470 1 7.926352177485139 43.111394708479736 7.859809261551022 0 0 0
759 1 12.551301264611919 44.613152287045054 6.123693494365793 0 0 0
497 1 9.586435175204066 44.6849052626152 9.48423889643415 0 0 0
726 1 14.25365517312333 42.85986701801973 7.414367179426849 0 0 0
247 1 -0.04355096626326861 44.78285486426242 6.4098152530342976 0 0 0
245 1 4.777525897896126 46.145836019012066 8.021362355817649 0 0 0
504 1 9.67094131247576 47.86195646628005 6.3058442982159475 0 0 0
501 1 11.269038115130774 46.115704328991484 8.06212545874073 0 0 0
757 1 17.4159020279413 46.06403724572661 7.932580643994839 0 0 0
246 1 1.3571614907634666 49.34217837432878 7.8926811942676585 0 0 0
502 1 8.294653321406166 49.75252844929315 7.95091414043611 0 0 0
273 1 9.498321017086292 0.3309702115317446 9.485400373058926 0 0 0
758 1 14.317501400853143 49.83119238865888 7.892678977001904 0 0 0
19 1 1.6738914504854139 1.5204219043423246 11.158986525155548 0 0 0
275 1 8.081304171550135 2.0159705245763244 11.207775006379645 0 0 0
531 1 14.51478794773324 1.9956480605441929 11.129985210319088 0 0 0
527 1 12.945799833807285 0.21264928151450463 12.4841867254729 0 0 0
738 1 12.577398602899802 47.714337197015325 22.273501196694546 0 0 0
20 1 4.726439138716385 4.4994801879507715 10.856495819200182 0 0 0
16 1 3.491874516715988 2.834134605784337 12.568727897226104 0 0 0
274 1 6.232873598430343 3.0146008732166583 9.441360245381702 0 0 0
276 1 11.44128631665416 5.1396122396014166 10.952717856988489 0 0 0
532 1 17.69117664471128 4.740275352418721 11.087526020031737 0 0 0
49 1 3.1330132256909202 5.948514206119446 9.249834051685996 0 0 0
51 1 1.5202994228227749 7.570530847750685 11.104219680969535 0 0 0
303 1 6.684424751206399 6.261123928122447 12.316673909705212 0 0 0
307 1 8.164654628805717 8.236270516328506 10.782382613404156 0 0 0
563 1 14.34636279547258 7.8247897809942915 11.01920896118135 0 0 0
559 1 12.798396112817242 6.119815986720406 13.241393827988423 0 0 0
561 1 16.026089875959098 6.189580327157196 9.418690523084479 0 0 0
52 1 4.736309357388806 10.870399609138369 11.134837145677261 0 0 0
304 1 9.361339915692628 8.899359843817942 13.134172580474855 0 0 0
308 1 11.03205361244478 10.855523134675057 11.612883000210104 0 0 0
564 1 17.129870498951615 11.133639927932771 11.1551994569784 0 0 0
106 1 0.2967965372316761 22.175860529664543 16.04542806585893 0 0 0
83 1 1.559205116467894 14.445346101370125 10.996397839212628 0 0 0
335 1 6.44936861966761 12.549638707925334 12.823444088379102 0 0 0
339 1 8.084892001492529 14.480272535245781 11.420539094858 0 0 0
593 1 15.59330818801289 12.635246833891053 9.700152137184798 0 0 0
595 1 14.506538155177054 14.204654065142488 11.301993741681352 0 0 0
591 1 12.653159481990727 12.587114574212427 12.74829298558522 0 0 0
84 1 4.61117121577256 17.362770202278757 11.43628741374565 0 0 0
80 1 2.92710290487404 16.03047945982948 12.40246759049748 0 0 0
336 1 9.61094590822292 15.979187526822518 12.87747987440793 0 0 0
340 1 11.133862535647769 17.460307230438477 11.368403783446011 0 0 0
596 1 17.402016505180356 17.439020719393493 11.281545625369214 0 0 0
115 1 1.5165213365505323 20.681853051110696 11.238611503380914 0 0 0
625 1 15.612206487805185 18.822163896104996 9.481578260161825 0 0 0
370 1 6.1824488889849 22.12479161521428 9.548523787872524 0 0 0
371 1 8.215283298499966 20.542061363965402 11.072928479244093 0 0 0
627 1 14.064523518067286 20.663609923934334 11.154836099439072 0 0 0
1055 1 6.6072913266747975 50.94315805142381 25.433218229669748 0 -1 0
147 1 1.5890463447770133 26.895667149573235 11.164986165213843 0 0 0
145 1 2.847949544966319 25.02996049961893 9.681106728407157 0 0 0
1375 1 12.324730160766382 12.808372338502359 25.264484594578075 0 0 0
116 1 4.672786885338433 23.753541528992525 11.153099484979824 0 0 0
401 1 9.905066852308515 25.531993335850174 9.272664143786404 0 0 0
403 1 8.085001703604371 26.94909143085679 10.932269923414383 0 0 0
372 1 11.160822837282172 23.58941266009814 10.857529739281174 0 0 0
659 1 14.126795158879604 27.394948977864697 10.503612297406896 0 0 0
628 1 17.322869437670054 24.005152998145135 10.881883639241975 0 0 0
111 1 0.18279630861924379 18.764795333135137 12.75641260676432 0 0 0
402 1 6.421886226169639 28.66236771518518 9.651126477102014 0 0 0
400 1 10.080940542187053 28.417632454425167 12.509377910563078 0 0 0
658 1 12.560646786569754 28.94786948244138 9.070258910582107 0 0 0
148 1 4.697572366944519 30.339869603196842 11.324176268681244 0 0 0
433 1 9.371472048777337 32.05695781104389 9.743332208429518 0 0 0
404 1 11.468332798125243 30.478618700662462 10.9451488314994 0 0 0
689 1 15.651405826626524 32.14555376594025 9.415639580483544 0 0 0
660 1 17.098071002959664 30.475309057803937 11.064571724670566 0 0 0
179 1 1.350758902075058 33.36909765241475 10.987983507745374 0 0 0
176 1 3.0314744962343547 34.977750833894845 12.449282855660831 0 0 0
434 1 6.2319237580098275 35.38133648596637 9.684962676954681 0 0 0
435 1 7.840881098218154 33.78175026109942 11.281593733402064 0 0 0
432 1 9.6169138573625 35.17187965530313 12.893597714572204 0 0 0
690 1 12.463112737405467 35.136315364002854 8.993357879002113 0 0 0
691 1 13.954953721296642 33.6054659602474 10.709073969794987 0 0 0
209 1 3.1615315108167 38.38193151601877 9.271482897720302 0 0 0
180 1 4.338721616624635 36.60116234115836 10.96187361213484 0 0 0
463 1 6.321632583273525 38.262900986963814 12.346422759440891 0 0 0
465 1 9.46013168260211 38.099298280395374 9.45414684250627 0 0 0
436 1 11.011990730364177 36.50339846986314 10.922168027861526 0 0 0
719 1 12.681867895839254 38.47860613127362 12.497423559070958 0 0 0
692 1 17.361564600803458 36.70420589164179 11.232576620276514 0 0 0
211 1 1.5823360197150602 39.80768179186266 11.162501558900688 0 0 0
208 1 2.907282279418471 41.554340810620346 12.933096433868174 0 0 0
467 1 7.913083823790167 39.936975136016684 11.0611994617091 0 0 0
464 1 9.649568833956977 41.052990365221646 12.825806960630896 0 0 0
723 1 14.297719951027828 39.94876161387697 11.04881565464806 0 0 0
720 1 16.1232810210081 41.40800018966519 12.872038542216542 0 0 0
66 1 0.28231213231498725 15.39257770963057 22.34024783449084 0 0 0
212 1 5.137693623425359 42.736295785297685 11.605515199688462 0 0 0
495 1 6.80922397566723 44.717969979637374 12.703859073436673 0 0 0
468 1 11.161482109757273 42.87362263327334 11.141173660947647 0 0 0
753 1 15.695553298103357 44.69971088591366 9.397758590751538 0 0 0
724 1 17.32088342149889 43.10172280564832 10.996018844991982 0 0 0
243 1 1.8814217397136785 46.124182584668986 10.908761520885713 0 0 0
498 1 6.470870298795533 47.7751368061075 9.382083191264869 0 0 0
240 1 3.2596189353088496 47.95840223111769 12.640407690948903 0 0 0
499 1 8.14657288854406 46.25503999304891 10.915421457264426 0 0 0
496 1 9.793733960142792 47.917360518774544 12.751908134481672 0 0 0
754 1 12.949299058649503 48.070915500387656 9.540384181000208 0 0 0
755 1 14.369339267348245 46.236724587442865 11.325775775111657 0 0 0
752 1 15.793151394429275 48.02341123928974 12.82350319357516 0 0 0
162 1 0.010906311860509624 35.23186125102899 22.39358965515797 0 0 0
17 1 3.2021005460787926 50.88902007442233 9.612865231674718 0 -1 0
244 1 5.056443875798416 49.465326466863914 11.164473796311682 0 0 0
500 1 11.19417978613441 49.606561995152404 10.968255725579565 0 0 0
756 1 17.560300273699273 49.60188979564737 11.543408954171067 0 0 0
13 1 5.004812666330673 1.219782620376588 14.383505838439783 0 0 0
269 1 11.025946237823659 1.6848534813045013 14.02698097820843 0 0 0
525 1 17.623816793126775 1.2860000714872433 13.925888827094349 0 0 0
14 1 1.6088507604791338 4.5067024258838355 13.867895333955241 0 0 0
266 1 6.194955155637061 3.097561459156662 15.880780801248234 0 0 0
270 1 7.860367232450702 4.644439533616086 14.437483549575411 0 0 0
272 1 9.839470058544439 3.7145175805662816 12.635907600785211 0 0 0
526 1 14.520592760804826 4.830060093395706 14.62525270046269 0 0 0
528 1 16.001681247760143 3.3899406473436433 12.847310897158685 0 0 0
45 1 4.873837117259968 7.662021052251007 14.351350892471137 0 0 0
297 1 9.44641146426245 5.798865556048689 16.178683333704214 0 0 0
301 1 11.056561566178738 7.584432652280579 14.691652847085793 0 0 0
553 1 16.17396639764121 6.651621526261044 16.033619265134753 0 0 0
557 1 17.76483667608165 8.381166648389438 14.574823465024542 0 0 0
46 1 1.6747581528325122 10.964157684237502 14.040614846584688 0 0 0
48 1 3.2296473948914066 9.134424879847113 12.657749768279174 0 0 0
302 1 7.87637182173547 11.100039292441714 14.39735086472296 0 0 0
298 1 6.377750762889362 9.44171931454223 15.81289927511314 0 0 0
560 1 15.738537390243065 9.474588346893814 12.773699123973493 0 0 0
558 1 14.08443157643416 10.996635040720045 14.36962167905543 0 0 0
77 1 4.663612292375805 14.368810166892844 14.222466080333845 0 0 0
73 1 3.050999936498139 12.561904893116852 15.469943343536983 0 0 0
329 1 9.794513427313548 12.785259167953631 16.133780224471224 0 0 0
333 1 11.225664659942373 14.467228781482783 14.454070079623762 0 0 0
589 1 17.511130307079135 13.932724871819138 14.398223564273332 0 0 0
78 1 1.8527979654978837 17.134690298124614 14.4805881564507 0 0 0
483 1 8.223677054627732 46.09896928765794 24.16385709190258 0 0 0
334 1 7.8606339667096465 17.36608388321024 14.49873049391558 0 0 0
586 1 12.590500831650017 16.20571331168383 15.770280097288108 0 0 0
590 1 14.481870134028208 17.561298385099246 14.332090095179199 0 0 0
592 1 16.135525348616223 15.791959722034116 12.950118141623387 0 0 0
186 1 -0.08009918125147238 35.225846468357034 3.559909718482745 0 0 0
105 1 3.4237727455976903 18.95863597443181 16.04252098589469 0 0 0
109 1 4.762152399438078 20.74033150246634 14.17181487035772 0 0 0
367 1 6.344008234663348 18.953394768229767 12.717896175989916 0 0 0
623 1 12.675618323666303 18.93072134161496 12.765625598883648 0 0 0
365 1 11.220723539411306 20.62627982481899 14.518320124303454 0 0 0
621 1 17.37458807828632 20.86290308516366 14.346261582025647 0 0 0
239 1 0.0220794716837089 45.25925077629746 12.852923660114493 0 0 0
110 1 1.5918489063823964 23.78859004565507 14.447299011246635 0 0 0
112 1 3.04014237641199 22.32807337528863 12.709902492522518 0 0 0
366 1 8.09489382711537 23.558174612550676 14.291338427013144 0 0 0
368 1 9.689006523452056 22.097476842472282 12.765687598726977 0 0 0
624 1 15.603943527851014 22.28478420956747 12.673002122688752 0 0 0
622 1 13.983599686485276 23.85593372705258 14.131803091632774 0 0 0
399 1 6.56421160702152 25.09864691176692 12.532212867117448 0 0 0
655 1 12.785424022475123 25.381896447929638 12.09275714557425 0 0 0
142 1 1.4029669663438609 30.028240320543137 14.344126230783175 0 0 0
144 1 3.31490985279058 28.2737246326694 12.7599883231547 0 0 0
141 1 5.259288783632973 26.84059483943487 14.021773751689077 0 0 0
397 1 11.422197716750029 26.830510664811975 13.994373736522705 0 0 0
650 1 12.663672832949763 28.36543726343105 15.843764468334882 0 0 0
656 1 15.336607292348004 28.599062981228148 12.872892380487515 0 0 0
653 1 17.10495838345766 27.101800302578674 14.278393812265273 0 0 0