LAMMPS data file via write_data, version 29 Oct 2020, timestep = 200000

4608 atoms
1 atom types

-0.28146761647447605 53.681467616471785 xlo xhi
-0.26528749364420534 51.17240749363919 ylo yhi
-0.26528749364420534 51.17240749363919 zlo zhi

Masses

1 18.015

Atoms # atomic

2883 1 2.3749985789530785 28.51616591062249 25.393721865623736 1 1 0
2085 1 10.031032648483258 4.594082186488752 2.4730209446637583 0 2 0
3473 1 6.44427415180576 1.8788927473585346 0.8003450134718593 0 1 0
2428 1 8.743952820461114 3.653771791453667 0.38313448394038807 -1 1 0
4351 1 14.137178284864662 1.9939520272480875 4.318429569707792 0 2 0
2740 1 2.839125519249561 36.84013667690007 23.743231606641782 -1 -2 0
517 1 1.9252316886376741 4.4224104708514105 1.0892948045255066 0 -1 1
2393 1 15.87566801743754 1.7354828281291996 1.2296936433785828 -1 1 1
3263 1 3.159751520620782 15.4858844308472 9.364668575707434 0 0 -1
1472 1 -0.07363851357866658 2.1924619302172514 10.630788866226249 0 0 -1
2669 1 8.937043268083523 41.19656125885416 0.8470010988301047 0 0 1
1475 1 3.8736484560799838 8.16551166893984 3.4423586460603777 0 1 0
916 1 0.28596459235116134 25.617324945096406 5.7221729138344335 0 0 0
3309 1 -0.2588847854116949 45.72322336122333 1.028383671352833 0 0 0
168 1 17.637919213066468 10.32963330086279 25.345268652910914 0 1 0
470 1 0.8234631909402339 21.660736956749258 6.28931484514766 0 0 1
3958 1 13.429138006019471 6.321501828943089 2.139950589592489 0 1 0
1314 1 0.08505786324252951 48.21518701711034 21.9190683032152 0 0 1
4534 1 15.821219327633436 19.50579570262854 14.246486738262599 1 -1 0
346 1 4.042011443099245 10.667045458203154 0.15946457398787695 0 0 0
4361 1 6.941345169630458 11.60771329333919 2.3644612920209784 0 0 1
2795 1 9.785586142065824 12.734855468666115 2.235427532559284 0 0 1
444 1 1.348528722660016 30.737126457365864 10.546317839265097 0 0 0
664 1 1.1228601315496287 14.337147941528299 1.2914469062339602 0 0 0
1987 1 4.923490235727563 14.234319588678286 0.9699013892056516 1 1 -1
4479 1 9.341621223044484 17.680551893568616 0.6316567043387303 0 1 0
1948 1 12.492671462165129 14.799174180899783 4.149188699103272 0 0 0
3455 1 12.108088040632662 38.82127191414449 1.637956277190331 2 -1 0
2545 1 0.6129675063994452 21.67677212822601 3.5944570254556947 0 0 0
2224 1 13.9826077625733 3.5940241320775677 0.3995000372818732 0 1 0
1947 1 11.641235091757897 17.20420058744355 2.3937322328138984 0 -1 0
716 1 15.6100476359168 17.911104311763545 1.9973483763028694 0 0 0
2589 1 0.2756396788600406 27.94548554760779 23.45919155220866 1 0 0
1129 1 3.6395120111999417 18.474670389006523 0.6093785636493042 0 0 1
1922 1 14.301860317471508 40.319935362985106 24.446940638116317 0 0 0
969 1 7.377472380782555 20.00314763516574 23.430444979791712 0 0 0
4602 1 11.065118961545593 32.38308684494912 24.753038936174782 -1 1 0
1072 1 14.776836773395877 34.43226986680743 0.07633927835585735 -2 0 1
3051 1 3.571602193890809 23.27791472784085 5.396510705944209 0 0 1
4503 1 14.437919128881035 46.374869599067026 24.662790835300463 1 -1 1
2042 1 9.776071292564929 47.42726076457919 0.934126878986455 1 -1 0
1596 1 15.02346653605867 24.995923668400383 0.5587972989277782 0 -1 0
3940 1 -0.022055933223251056 48.51620817031551 18.521365275889096 1 -1 1
728 1 15.194572442699119 50.37793634802209 23.34481933827605 0 -1 0
1574 1 8.235557851697495 17.203304492210457 24.969364621088303 1 0 1
563 1 6.858077290089734 25.52017766109486 1.8140863990809675 0 0 -1
2844 1 2.6082576360205523 22.25749563550936 12.624666243462462 0 1 0
1190 1 0.009071751939941086 31.36722952614109 2.960413066813968 1 1 1
3756 1 0.026387650243351324 28.167893524227896 17.03033988696902 0 0 0
2349 1 2.5261041249474117 25.99908349309013 1.215318010384959 0 -1 0
4552 1 11.500501577754559 41.719615536729606 1.3611765347866005 0 -1 0
2829 1 0.29738160100794586 19.060707467233698 7.19310703500977 0 1 1
2796 1 3.8393245484618355 44.89998643364481 24.941791967784784 0 -2 0
3903 1 1.401843328938928 49.99217874047707 22.903547858987846 1 -1 0
1803 1 6.797148887487264 30.75299339806616 1.1661058128018258 1 0 0
4401 1 15.272640499768661 48.95407819140402 11.208088682235728 -1 0 2
3642 1 13.881472590423733 29.096233009525957 2.2834010140217695 -2 1 0
2750 1 14.351815209696406 22.880683242110376 17.24718646125303 0 0 0
432 1 11.356783883932161 12.8520987127974 -0.07384666100272694 0 1 0
3508 1 15.429600181047755 10.043955524967183 0.3014999907609589 0 1 -1
2608 1 7.476754199094369 32.77547641439702 2.9755126026534797 0 0 1
1931 1 17.05770467933868 40.79985167951983 23.61331918055287 0 -1 1
50 1 6.434795687798466 41.91159839869452 22.69747175384283 0 -1 0
1794 1 16.032377469777536 30.79144395692117 1.8081346128268798 1 -1 0
399 1 3.920901618990978 39.466679317572016 2.4004688110743935 0 0 0
2254 1 0.7732656470915669 24.72993233142256 14.777521353555795 1 -1 0
558 1 6.877783051378246 35.39337477861385 2.955257904883992 0 0 2
4556 1 11.774885822543933 34.867157223670404 3.1637630472802987 0 0 2
2793 1 16.93370361458521 13.71590194600553 22.555466027371605 0 1 0
1951 1 16.10704277232955 33.48824004344472 2.3425941146125218 -1 0 0
3077 1 0.6365473572669399 13.04671659373726 16.568407085355574 1 1 0
2303 1 10.072116721793153 45.12683903782178 2.6036922408327845 1 0 2
2934 1 7.45773926107132 42.99436194914196 2.286920103108749 -1 0 1
2397 1 4.714222669864585 42.46577114528861 1.2547860209053707 0 -1 0
1791 1 9.141671464744368 38.578968388144915 2.582317970641689 0 0 1
1716 1 10.998345888384963 39.68275308696312 4.584005694236428 0 0 0
2035 1 17.627930016794398 21.32552850357798 12.14839270174118 1 0 0
1357 1 0.5441503553539118 17.888285390000988 0.7819584870896974 0 1 0
601 1 11.827485078934549 1.4526948280016305 25.164696982745927 0 0 -1
2205 1 16.750155759425102 43.08840079710885 3.5275057820813487 0 -2 1
4593 1 0.9800103842445813 48.25176613284535 0.7345785033848403 1 0 1
1943 1 2.6461197126755525 48.22514179301662 3.270608721247266 0 -1 0
933 1 4.9682272527856055 47.26450932420552 1.9738743341592242 0 0 0
75 1 4.229460689287703 10.7715928036273 22.435220828754595 0 0 1
2346 1 16.799692602135778 7.361906522846836 4.038129442802477 0 0 0
734 1 0.36396358248563454 12.018237218107213 -0.19908259183098032 0 2 1
2640 1 14.01266421160136 43.35350397845848 3.338556594101932 -1 0 0
1830 1 9.896118975988625 7.140744573200723 1.2948209416704906 0 0 1
3730 1 16.644070934020768 49.70939714714726 3.705176198196777 0 0 -1
3318 1 2.325793055211893 51.074072956784235 1.9698432218500135 0 0 1
516 1 10.62756726955669 0.09313396588865319 2.6618414927074676 0 0 -1
2031 1 14.43546638615726 50.67254988585398 5.165304687165019 0 0 0
4202 1 16.42451694845276 46.81704739627732 5.095743938111164 2 0 0
2786 1 0.2644125425735202 2.3065101536118116 7.886436800686322 1 0 -1
2923 1 1.4800510366068862 4.651505138382984 3.9288888335210252 1 1 0
1660 1 8.18749520218879 50.36284368451042 3.951727986679443 0 -1 -1
760 1 11.979372226858416 49.64490789330975 4.154678800903615 0 -1 0
2595 1 10.810319851464254 50.155701366653034 0.2481282996085994 0 0 1
1164 1 13.943251606344278 4.097789467000188 6.214452646481794 0 0 1
3893 1 0.12835804907089687 35.41572957677478 0.11512259949786907 1 -1 1
373 1 12.210709239441428 34.84312783003763 0.3713490612609025 0 -1 0
634 1 -0.0180942553706252 7.472328309071256 5.113916395899298 1 0 1
1456 1 3.5039035776695604 6.068685518502317 5.550886203890934 0 1 0
3500 1 5.67504856418934 4.440391289946633 5.154941291821478 1 1 0
735 1 11.893971456835875 5.4773244795364775 4.894242778733337 1 0 0
3474 1 12.138502481107075 2.8498037889770256 2.442254849722433 1 0 0
375 1 13.84634921734653 7.785426491711014 4.855279725049525 0 0 0
4068 1 17.427573931539275 47.169509096322514 18.399351964519457 0 -1 1
3929 1 7.1352626968619095 7.270535013976339 6.033064489509179 1 0 1
1742 1 7.643845916814804 9.010928905271307 2.093957963116551 1 0 0
2297 1 9.437262965609213 8.943766778576764 4.754702023598961 0 0 0
2522 1 16.074015907831523 5.295587014624856 2.190264618043201 -1 0 0
2430 1 -0.25043353739876295 23.558651601954914 12.712532766937041 0 0 1
552 1 16.784927611946607 39.978685742511814 18.72998178021894 0 -2 -1
3196 1 1.9917318546239895 9.534636069521552 5.110515705856678 1 -1 0
713 1 4.786769258450823 10.70104203995894 4.4199034451698385 1 1 0
3206 1 7.383257020289952 10.781513676686236 6.110016846407583 1 0 0
3754 1 10.789530795528364 9.675467329723876 2.1791539196787144 0 0 0
3832 1 1.153786705635813 14.160545693497456 5.467211158658917 0 1 0
1246 1 1.104833197099845 11.695053564192863 3.894683172141997 -1 1 0
1521 1 3.6044273445352903 12.311803364222257 2.468130365408193 1 1 0
1577 1 14.359217599119823 11.732548220651791 3.4193523399268466 1 -1 0
3564 1 13.544053955126028 13.812119121279038 1.6971991693886979 0 1 0
977 1 17.010411456493202 12.823726363686662 3.485277716402769 0 1 1
2445 1 5.8958971026209595 18.494785444679163 2.442183511965998 1 0 1
4398 1 8.814510638969573 18.19671838322534 3.873007666812881 1 0 0
2941 1 16.129294434952023 15.023740983040593 5.203446344337913 0 1 1
636 1 2.382323824030342 19.475317157464556 3.471007137916378 1 -1 -1
903 1 9.400876470635398 24.510637387125914 2.5353068088845228 0 1 2
582 1 9.79077624950108 22.03148023596541 1.4195429768451915 0 0 1
3068 1 13.694540102344824 15.085882999714016 6.623701409301924 0 1 0
1369 1 10.473360403145172 20.294055314820625 3.586090861981273 0 0 1
1617 1 13.054255137470264 19.614965017737493 3.0335073219489135 0 0 1
1990 1 3.650684259958491 21.04649761112519 6.837625474479049 0 1 0
1645 1 5.84697715608281 22.28455288429432 3.7509045079367036 0 -1 -1
4474 1 14.506530213027654 23.708582752680805 4.525070117175111 1 0 1
2458 1 1.3412982917548566 28.4804690420415 20.7164604652486 0 1 0
946 1 1.8103807396549572 24.379442415305498 3.522395478617833 1 1 1
1580 1 3.991135744873427 25.45021991783115 6.992017883522607 1 0 0
222 1 4.972269685142493 28.00213851494372 5.844690280776394 1 0 0
4354 1 11.276188368511061 26.698794145981058 2.6100954892033084 1 -1 1
3212 1 17.529549364174674 27.672333340394665 16.16383963446635 1 -1 0
3689 1 15.762585290820343 27.69227823529876 5.62135456303716 0 0 0
3372 1 7.5272739282055685 15.632664864630744 1.2104910567491582 0 1 1
3498 1 5.700172315229774 39.18817875373921 21.331534485831373 1 0 0
1425 1 4.965481085169845 26.888106884866513 3.0072985729348547 1 0 1
4569 1 -0.1236625617478685 21.402047926290393 20.069117329597596 1 0 0
2084 1 12.987719512220751 27.179700323067717 4.905475168376739 1 0 0
2580 1 16.826817573091063 29.950597230719158 4.533768946393582 0 0 2
3760 1 0.49122853803841915 27.999892713475784 1.8149212070449843 0 1 0
4327 1 2.228748723314256 30.309455537795724 0.9004150021998814 2 1 2
2968 1 9.100830577596795 28.601230059570444 3.1568414674444405 0 0 0
2915 1 11.415363416691013 29.880852717810335 3.590573845654987 0 0 0
1893 1 12.34074647288187 32.56456911364599 4.921218504860951 0 0 0
3356 1 10.112355487120857 32.45342530247406 2.273566673572793 1 0 1
3295 1 16.568321072943764 27.753133890548078 8.473882944917769 0 0 0
315 1 9.462886234226868 46.60255729597391 5.152788309458165 0 0 1
4207 1 6.568166908878311 31.695862259490397 5.102696864068663 0 0 1
4435 1 9.332872359207443 36.226131634772756 4.069282904697382 1 0 -1
3243 1 9.110543150987537 35.62111028217923 6.8765200089140635 0 0 0
4411 1 15.273511477219257 32.37445759739548 5.159572096193773 0 0 1
3883 1 16.99369227863558 35.88049342871686 5.942344786919594 1 -2 1
1864 1 5.436006972556817 37.318378922032664 4.212373461641201 0 0 0
2001 1 14.545921383086437 35.39235350873142 3.7373915301297504 0 0 1
185 1 15.159855377146144 7.667667089033285 14.703004069813739 0 1 1
3161 1 0.4074451572877007 0.0813036566421853 19.212045979643822 1 0 0
4440 1 0.5136014139237247 42.90587459326149 1.9511693537951733 1 0 1
3412 1 5.341831066435861 40.511861765135166 4.951470299665881 1 0 0
3948 1 7.988190697012916 41.91260988796334 5.176225546598163 0 -1 0
4544 1 14.954389464452566 37.94212302212988 2.518003386834806 -1 -1 1
2045 1 3.339191471787655 39.58739023480811 25.41730654430489 0 0 0
2736 1 7.8011900047491824 35.67580916856488 0.41648861344522337 0 0 0
310 1 2.0071962710500824 46.56240397299878 8.359229323296702 1 0 1
4305 1 1.3278459198898358 46.327450879081056 5.4612646122692325 1 0 0
4110 1 4.17366724549623 47.4003930230089 6.62555256662078 1 -1 0
1524 1 1.1097794649111208 43.474472563491304 4.5106095449803405 0 -1 1
4040 1 4.01162878332162 43.009652052941746 4.1392143423437995 1 -1 0
2531 1 10.473972424752517 42.609123356043966 4.368799335101448 -1 -2 1
1426 1 16.005807146257965 41.34295329289935 6.072818543680471 -1 0 2
3019 1 1.7576888524359493 49.6990457038321 5.950007118479056 1 -1 0
3329 1 7.288898675173619 48.66612949968592 1.979363878121406 1 -1 1
2897 1 12.516508649144367 43.03330944629222 6.285892496493625 -1 1 1
3583 1 2.569107401932591 1.9751824577240118 3.7921796627149735 2 2 1
2761 1 5.04058047354221 2.62195758128173 3.451976978429183 1 1 1
754 1 4.855932541820145 45.79438706797198 4.309004728604016 0 -2 0
3932 1 12.49355146738682 47.63583931369703 2.1455471069316707 0 -2 1
1681 1 -0.1661744051610441 16.315042699866947 3.258568205341479 2 1 2
820 1 3.8029692286411665 30.98400322104141 24.654599759961716 0 0 0
3527 1 17.60021558293669 44.25448340416824 25.21549992239124 0 -1 0
2569 1 5.628405512148216 36.24953626723327 24.73344528593679 0 0 0
4494 1 6.208201109746902 0.74847678016068 5.15970326692929 1 1 1
4217 1 9.27101286771801 1.4407425618122338 5.23897312448109 0 0 -1
2616 1 8.726065897335916 0.6007838743060402 7.6996317817103925 0 1 0
902 1 10.010457703227107 39.43445396491913 23.900183055313526 0 0 -1
3735 1 2.440625235837611 1.193676065961789 6.489138362465472 1 1 0
2743 1 2.963991820340541 7.5249398400603695 9.379694343647241 1 0 1
4277 1 9.473489382472156 4.831664023950853 10.475546662512357 0 -1 1
531 1 8.440197062158184 4.12120004155538 4.806570082911982 -1 0 0
2864 1 9.757444636914922 6.099061034259 6.201508723648846 0 1 1
343 1 15.190168143864405 43.81179361967689 13.584982319437959 0 0 -1
4309 1 1.5273498176576497 5.665072826075986 7.330760584562296 0 0 0
317 1 2.095552813233803 9.737760702988183 7.98615013669327 1 1 -1
3229 1 5.112350790987688 6.560763393816141 8.131051041843971 1 0 1
641 1 8.928255234280538 10.661766596625142 9.135712292759848 0 1 -1
1362 1 12.853884074650153 8.932550966462646 7.284486183390039 0 0 1
2969 1 4.399537894177048 11.400424681967579 8.308856880948452 1 0 1
3591 1 6.128613792515296 9.23369983402746 8.380731558761351 2 0 0
3334 1 11.503112127461145 11.928355194077895 4.5466953944435735 2 1 0
3039 1 14.413777513994383 10.7487443440253 6.226538439000721 0 0 1
625 1 10.453989247718804 9.844620747278379 7.086666224741165 -1 0 1
4463 1 13.401509384271366 9.29843964477214 2.5588776476158506 1 1 0
3907 1 4.757265484110414 47.479287496405036 24.851862464271047 0 0 -1
478 1 4.990197250107652 13.242500006877385 6.419392452134251 0 0 1
3187 1 3.445755609009027 15.545837214615768 6.548915628269513 1 0 0
4379 1 7.376875373850374 13.37657974359684 4.834135090618253 1 0 0
2076 1 16.2900008873264 17.941436023221154 4.653704720034774 -1 0 0
183 1 15.542615650623324 14.980293497567283 14.619830466482064 0 0 0
2573 1 1.5106590011347387 17.5308150413499 5.1875584633392355 0 0 1
1023 1 6.753939774589561 15.76073751825773 3.923013637324426 0 1 1
4289 1 9.901586100012775 14.317474044017404 6.136188039239385 0 0 1
3424 1 15.08156356361145 14.789119966156955 9.463779810894147 0 0 1
4006 1 14.451385506694079 18.896400900407375 11.79396137742138 0 0 0
4514 1 12.158408390747377 35.742399128402624 23.577128581724555 1 -1 1
2147 1 5.44628223523173 17.2753885450533 5.851031437858132 0 0 0
2755 1 7.743131746433566 19.976243824181108 0.768164041302611 1 0 -1
3009 1 8.726199509852918 20.741867715996914 8.146947963258086 1 1 1
510 1 10.142292127449574 21.680670432702865 5.898557585754222 0 0 0
640 1 13.709640952211938 19.361630396641633 5.641746171360843 1 0 1
1813 1 13.288776142959405 22.053529144362415 6.397559904523989 0 -1 1
2408 1 4.977060156558975 19.868486661220533 4.645712421436821 0 -1 0
4587 1 8.13348854964306 23.41543106618007 4.9867134456818025 1 1 1
462 1 11.498602445706542 24.720162431243665 5.38661379265931 0 0 0
4129 1 12.383952171574553 23.20011487554766 8.696476236317631 1 0 0
752 1 15.053426376141003 21.772103733828686 2.3790948595636134 1 0 1
4417 1 7.199576009528322 47.94101602337783 23.033319233893447 1 0 1
1111 1 0.336713936349588 36.3125633234163 6.6695685711982895 1 -1 0
1650 1 7.660492801263605 29.083432293003426 5.380339604622976 -1 0 0
710 1 6.77734374458042 24.348396635245006 7.7442163013129335 0 0 1
2964 1 8.802126419069241 26.082474974959023 6.769280631636674 0 0 1
4121 1 10.252909331983775 21.93292652241443 9.928105888384579 1 0 1
3018 1 15.184346622574555 23.613621460054365 9.367465424388428 -1 1 0
4585 1 11.323201269383148 26.048058052457648 8.211044156439337 1 1 0
3685 1 16.253766852405754 22.585813939346394 7.310237147465828 0 1 1
4293 1 0.8367869410851345 29.917291141134257 7.366459331533895 2 1 0
461 1 11.535909881093962 29.149524596927797 6.763739823014353 1 -1 0
4515 1 11.073551919218824 30.858780689237815 10.275745757824415 0 0 1
3449 1 13.472299726584009 28.017437419978364 8.264243190993295 1 -1 0
4454 1 17.24367739455395 2.1140330513023238 15.89915828779343 0 -1 1
330 1 7.200143783925668 50.797417732115974 -0.007073277146421086 0 0 1
2392 1 0.7698996743690139 45.209147430833895 15.52772291648575 2 0 1
1493 1 4.792624429014798 28.819691854490454 1.10975677696741 0 -1 1
1068 1 8.863800993192996 28.97258006565547 7.786845249068769 1 0 1
2520 1 8.18639332286791 31.442043022456794 9.559735365376621 2 -1 0
3216 1 13.25768453019321 31.232235878653054 7.842792922255251 1 0 0
2259 1 3.9829928837313124 33.13114849478664 5.231268385333685 1 -1 0
1531 1 7.307845912003215 33.47233747867004 7.4469771872066595 0 -1 1
4148 1 0.4566153954401114 35.0814705210513 9.389531052933686 1 0 0
875 1 7.222446580099506 39.241215049118864 24.192574642614417 0 -1 -1
1303 1 2.738824275133201 37.27927078410603 8.011275937673302 -1 0 0
2260 1 5.172141472904928 35.86796473836952 6.72339992162867 0 0 1
3195 1 6.894909491649201 37.9754413601832 7.762285328256155 1 -1 0
2091 1 9.551995461173926 38.42623279652358 6.782517477849292 1 0 0
2176 1 14.694888383938453 37.60036787516441 5.997307022210953 1 0 -1
3831 1 1.2298749624776715 40.57879950813516 2.449415674990039 0 -1 0
2945 1 0.20499984112662512 40.2619626989933 4.789086406153662 1 -1 0
2123 1 4.333554916873633 43.00421638801765 8.19344693821334 1 -1 -1
392 1 8.305704216491483 41.00799365900177 8.179897310021124 0 -1 -1
3156 1 7.070369526092143 43.73755652274295 7.522766558791064 1 -1 1
1587 1 11.46852127838903 38.71809285702578 8.757890661350407 0 -1 0
2329 1 13.76193118241582 40.234681741473906 4.271613770297193 -1 0 1
4453 1 15.658707384962494 38.91298521027778 11.073397885201535 1 -1 1
97 1 14.194974507410347 9.74276516589274 13.166055832804854 2 1 -1
1693 1 3.783336507312625 46.90650782075103 10.325928569080451 0 -1 -1
3814 1 5.930185131356371 47.62363637574141 12.670086685075214 1 0 0
1178 1 7.206025520731665 44.95470130663162 4.5900047611403085 0 0 0
1060 1 16.33161393393152 38.86257881988712 7.600969409648356 0 0 1
4507 1 17.19596565087892 19.17080793155144 0.16641123899178917 0 0 1
1923 1 3.67287560667335 50.52121473000989 8.423782201432179 0 -1 0
2694 1 11.959592986303011 45.73637960654629 6.095047869755762 1 0 0
4049 1 13.890882174010907 46.000114796330635 4.254171889037138 2 0 1
2982 1 0.49989141730293074 51.04887379855967 9.922553339808903 0 -1 0
2767 1 9.949081284807805 49.268115834416776 6.153581055188215 1 0 0
840 1 15.581977613471766 46.416836173177245 10.095274273525579 0 1 1
4213 1 13.798413589322031 43.99701733302204 10.336566135572516 1 -1 1
3245 1 10.213576222662523 19.829164665276988 22.41874774171805 1 0 0
3918 1 17.366629078983927 17.32848106139285 15.237226278878076 0 0 -1
1459 1 2.6035078056069954 3.0891682237683975 11.229417409787981 0 1 0
2249 1 0.17330508942884937 2.600077486047313 13.649544538645726 0 1 0
4296 1 6.844453211793564 5.650309062961295 10.032729249510696 0 1 0
1300 1 13.156157085122423 3.1981522404604648 8.84827919555622 1 2 1
1891 1 1.9447303225990575 41.92960833854302 20.210600355753154 0 -1 0
380 1 3.231274568224257 3.576716618227298 8.63089069066855 0 0 0
3472 1 5.84612695116233 6.663349488063681 12.415717610733749 1 1 -1
1083 1 11.24754972071055 5.179242611421074 8.531810876232335 -1 0 1
458 1 16.551469569741503 18.51863797785834 18.72578665300264 -1 1 1
71 1 3.0776566221969572 7.852480353360798 12.164866774370052 -1 0 0
3270 1 2.7767007048551213 10.668847279068927 14.360365024115628 2 1 0
2919 1 8.635746295193453 5.191972019025077 15.172562923577082 1 0 1
146 1 11.724474234015537 7.57282336807119 11.722500418502946 0 0 0
2538 1 10.396220224843763 5.157717730796122 12.952980283701296 0 0 0
2981 1 13.484364619176011 6.7498358862165055 8.85056137742081 1 0 1
900 1 15.273473411391423 7.178337542757029 24.550433894474523 0 0 0
2878 1 5.146154896842106 10.190375238122593 12.823121227868928 1 0 1
4099 1 9.60964283371233 9.476052468096777 11.722026084323549 0 1 1
2137 1 13.687123408501549 9.396768941576743 10.274141101807718 1 0 -1
2854 1 13.950259048137532 4.536685734459956 23.831267374332295 1 1 -1
2212 1 1.7746553624743098 33.22765401964061 3.6485057448285385 1 0 0
2509 1 1.742741235176804 13.469274860739018 10.383737450683752 0 0 0
4389 1 4.116995459210431 11.880611297171566 10.826867197380103 1 -1 0
3902 1 6.329107163506128 14.402680314843744 8.836708222515636 1 0 1
1558 1 12.224293576717514 12.56127552732501 7.347304170400966 1 0 0
2482 1 9.373380755300968 12.404789012356023 12.70348935484325 0 1 1
1013 1 13.349370683082006 12.179696065864833 10.220993820761096 0 0 0
2038 1 14.951606378745971 47.23453704937977 20.194075543225196 0 -1 0
1688 1 1.379264781346526 17.695344344172184 9.515799128662465 0 0 0
995 1 5.548025446153688 14.146807080245427 11.613677053115193 0 1 0
1100 1 8.836676839993563 13.474164970200016 8.686263475046609 0 0 1
1398 1 10.75503655923059 13.38866599409637 10.708892435979905 0 0 1
269 1 8.943235841876815 18.013166795022826 8.532085195144298 2 0 1
383 1 13.402706820136506 16.811794499140547 9.775409321933905 0 0 -1
2790 1 14.407559803877183 43.354246163784865 25.359048699011005 1 -1 -1
2833 1 3.9728443333412082 24.709792996830366 9.783679795773846 0 0 1
2415 1 6.349030759155886 17.08433719502203 8.612530144077628 1 -1 0
4178 1 8.490802905175164 24.42919024865577 10.30958273565307 2 0 0
2645 1 10.223862091261825 17.121327947513777 6.28556803602834 0 0 0
2460 1 12.537761809974167 17.582925943635196 7.457295212315708 0 0 1
631 1 11.37838561811074 20.834975639232198 25.133802266315595 -1 1 -1
3989 1 1.5243937199874866 23.804099618961683 9.87568368182725 1 0 1
2788 1 8.95917364055683 29.209354323793463 0.5592197711357536 1 0 1
2939 1 5.971851135530265 21.475124446825305 8.322670714073748 0 -1 0
438 1 6.88244406257596 23.7474374980694 12.238657120330236 0 -1 -1
369 1 16.450432051124732 17.833724275554648 9.772893494633323 0 0 0
2199 1 16.35362353896273 19.693704589924753 7.395236186304003 0 -1 1
1054 1 1.6558577101572407 27.084754356287142 7.468206285286358 0 0 0
3807 1 0.7803736672246984 26.279917016348 10.565668099063002 0 0 0
1829 1 14.094478348510851 26.364755065701047 11.757004678562605 1 1 -1
127 1 14.902310487248286 21.99764011491886 11.71083081875341 0 0 1
529 1 3.8254344083709384 11.142106218808722 25.186615078116493 1 0 -2
3348 1 2.9909802647621544 28.02711975764308 10.228193686921157 1 0 0
2714 1 10.73833643195553 29.114167582951104 12.360591504428024 0 0 0
2160 1 16.33046644125545 25.881609325887005 10.394247633867781 1 -1 1
2165 1 -0.0893683290967997 12.511968847316243 23.59797447690127 1 1 0
2701 1 1.3117641475159334 32.82589865547958 6.910672414508355 0 0 0
4589 1 3.9190459131855784 30.419562422232016 6.774458597844883 0 -1 1
2994 1 6.591865712684511 28.970523308674785 10.801229739425164 1 0 1
158 1 11.88777658510671 33.54170338029702 8.946914322748528 0 0 1
2984 1 13.336239206911056 32.13122477161893 11.534891989127956 0 -1 0
4087 1 0.5757356520091649 26.839573768771256 13.175173723204416 1 0 1
2477 1 16.112936986200094 25.98851025807944 3.698520472663839 1 0 0
3946 1 3.7141159134148825 33.55960165462494 8.560353343820017 0 0 0
786 1 6.249128085702389 34.951226407501935 9.54122957543576 0 0 0
2111 1 4.144561308323234 30.780215554129224 9.373230281950674 1 0 0
1695 1 9.86042631358614 34.84236556636645 11.321879642787348 0 0 1
2913 1 11.620631809920582 34.71578670595147 6.562087761018159 0 0 1
2594 1 15.99685205821794 33.094608611939165 7.712841116991627 0 0 0
3429 1 14.383241398000568 34.832572362627175 9.562888733345014 1 1 0
4464 1 1.1707892243226052 39.46361635234511 9.418387977845223 0 1 0
2623 1 2.7464961171570748 39.54839391213652 6.1444433723259735 0 0 0
2739 1 5.0203148641885615 40.24205972295832 7.984444732289134 1 -1 0
2211 1 12.15064569101282 38.82500795206039 11.41629246481297 2 0 0
1185 1 9.818071006217691 37.42969377705279 11.53595335989668 -1 -1 0
2922 1 13.202744548813905 36.75948908407024 7.95845194477663 0 0 0
302 1 4.834268350945451 42.50256447902467 11.11759160065404 -1 0 0
443 1 6.705467834633385 44.820047612574655 11.194679694579953 1 -1 -1
4199 1 13.838869521971503 37.2948195678111 13.010507870792187 1 0 1
3816 1 1.8730679533862333 31.527679259471896 13.358282375106596 0 1 0
2638 1 14.738117946251611 6.742479027174833 17.691758312662028 1 0 0
45 1 3.214256175856441 46.81551487257157 14.265360656153488 0 0 0
3637 1 6.121248225393531 46.547219174179716 8.525990988777652 1 0 -1
1665 1 10.839650169593652 41.89957035999659 8.350829075531573 -1 0 0
673 1 10.82405605333101 43.14156920749814 10.755921040708555 1 0 -1
814 1 5.906109645977254 45.67456919571494 19.89169696223745 1 0 0
1811 1 2.7418751645187696 49.43533883663531 11.120704768125902 1 -1 1
2889 1 7.878036306614989 49.532909915688464 8.675151500397055 1 0 0
3043 1 14.982417086439446 43.92789641058404 7.553124825806271 2 -1 0
540 1 1.24209460183933 48.610275731772944 13.53739080432208 0 1 0
3554 1 5.7400866646047355 49.74423075330925 6.877001885814918 1 -1 1
381 1 4.836581945877319 50.69167175567256 12.62711375183694 0 -1 0
4220 1 6.107872391407387 -0.13216784689178693 10.055108204855774 1 3 0
1316 1 10.670486312799428 47.99178411249014 8.78470383359555 0 -1 1
3353 1 16.950419305552423 46.16357430504847 7.541737400689718 1 0 0
4339 1 11.549614513081393 0.7640583276358228 8.720930732989144 0 0 1
4533 1 0.580692687191691 19.259411011492222 18.091717880372183 1 0 1
2678 1 1.1685853927312082 4.372191635599973 20.125158612527567 1 1 1
874 1 5.631153258028144 2.4963348257191633 7.245877983941295 1 1 0
2629 1 7.933789106512158 1.0297896009836847 12.203114259179797 0 0 1
1785 1 7.560843653976591 2.411690486481864 9.452703435323517 1 -1 1
2861 1 16.26444417553762 5.886011276133713 9.564946776764563 1 1 1
4383 1 14.547751846498938 49.15897725810859 16.38679914797234 0 -1 0
3823 1 2.1482420484989415 5.313325827180638 12.808323375855636 2 -1 1
2797 1 3.21822530410774 5.274811639092984 15.381585419879226 1 0 -1
1975 1 11.283003104158336 1.5904478437226954 15.453157451982458 0 0 0
224 1 11.832176910741783 2.5273713928719266 13.25291271040946 0 1 0
4124 1 17.551693288313555 3.523210873605898 21.364169300464344 1 0 1
2004 1 1.6694305962679394 7.327176773819605 17.088572836674196 1 1 -1
573 1 4.836869206426866 8.08558650661274 16.982644291789818 1 0 0
2002 1 9.185455106327048 9.066896634919159 14.92737738348341 0 0 1
3222 1 11.776464470171073 10.072626851624264 14.174206095625816 1 0 0
1443 1 12.370192009526983 44.637207448249555 1.1778597963405066 0 0 1
1727 1 16.098959896768708 3.5063706405887523 18.406356136927226 -1 0 -1
3154 1 16.68236012891662 9.641363498744338 10.772393187604274 1 1 -1
459 1 6.905281566289384 8.87181921121067 11.138922998907033 0 1 1
3425 1 7.314755997929012 11.363336683275115 14.379898946420901 1 1 -1
442 1 11.999312263923372 12.899264266336946 14.238431439382616 0 1 0
191 1 2.9610997728378687 39.74558808075243 22.019093627791033 0 -1 0
2240 1 0.8228632223312886 16.713962194228998 13.76333214231702 1 -1 -1
2963 1 3.294419343279145 15.210543932543915 13.112162338096018 0 0 -1
2114 1 6.95885693656303 13.68485621130958 15.863998273066866 1 0 -1
1490 1 10.116912179180481 18.10550461931559 11.113914370729807 -1 0 1
1985 1 14.084158789485846 13.440791232036329 12.681856087278108 0 1 0
2953 1 11.261569356869698 2.770288555616191 23.024327544134287 0 0 0
3364 1 7.867548731286986 16.754679053263438 12.731046652819616 1 0 0
672 1 4.188280255043223 19.731402791308355 12.380644777520502 0 1 0
1582 1 1.3065110680329568 18.884124723937532 12.092322674551205 1 1 0
88 1 2.125010949743314 18.482972807646988 15.558313193215326 0 0 1
81 1 5.0049836694754175 17.273935262229585 11.13228306367675 1 -1 0
1702 1 7.330302227008896 18.494019648613452 15.090116942509956 0 0 -1
175 1 13.507549810563534 16.775160409678666 13.277999263642108 -1 0 -1
2184 1 13.623052201347818 20.5382970543502 15.841865278173504 1 -1 0
3799 1 5.163844593278664 22.146564326005326 10.763742782976093 1 0 0
1651 1 4.527186703925672 19.485352645134675 15.239447621405924 0 -1 0
3747 1 10.35431156396596 23.788673384065895 14.953236308204751 1 1 1
730 1 7.942769660641398 22.690807249352282 14.713076369684208 0 0 -1
2888 1 11.566210489142502 20.362677999640198 11.999086183633572 1 0 0
1906 1 2.071726345917338 41.75524566681895 24.46147171052705 0 0 1
3394 1 3.5724738885301774 23.730258058850044 14.906174309757048 1 -1 0
1301 1 5.52355108422611 25.554286531602507 13.688468493858046 0 1 1
3112 1 11.008341111053795 26.547254095994678 11.120227303847859 0 0 0
2543 1 12.252882452548828 22.189360722824663 13.832780811108515 0 1 0
632 1 13.615106644122845 28.088915394203106 14.133745034918384 0 -1 1
642 1 0.7314239540894751 20.7536575997243 0.7301170435045125 0 0 0
4420 1 14.22597622261154 24.19980704459267 13.335586862157559 1 1 0
1547 1 4.517617220457482 25.80677272229193 16.985559755643735 -1 1 0