LAMMPS data file via write_data, version 29 Oct 2020, timestep = 100000

8519 atoms
1 atom types

-0.23725613225557396 104.81607879652495 xlo xhi
-0.2605138625063468 51.32387309766463 ylo yhi
-0.2605138625063468 51.32387309766463 zlo zhi

Masses

1 18.015

Atoms # atomic

1984 1 1.5952532677223101 2.1521525379707818 2.4501777003233163 0 0 1
1985 1 3.0254679190589564 0.3972376431650064 0.7880192994173998 0 0 1
1897 1 9.318484359473013 0.5145122862733466 1.3994888885968635 0 0 1
1986 1 7.797770122769466 2.2179539024843242 2.994659592833706 0 0 1
1900 1 15.457540055812931 0.48158392878594025 1.3133654148569034 0 0 1
1987 1 14.183803536081793 2.45396194239744 2.9781494164311213 0 0 1
2667 1 20.571223299021472 1.7675664503216306 2.5390916499692495 0 0 1
2668 1 22.424383362715787 0.35337703967305933 1.089699247324034 0 0 1
2670 1 26.71695931462227 1.92722363827719 2.5946731143494826 0 0 1
2590 1 28.98751427571145 0.7449921498198024 1.3464989633222342 0 0 1
2671 1 33.30141526314196 2.128310800524223 3.2271175645422185 0 0 1
1461 1 -0.026178804695855012 3.6135665520809943 0.9673531124459609 0 0 1
1988 1 6.123779103313094 3.4788667077936184 1.3300279597931015 0 0 1
1991 1 11.034908554395608 5.2713838441795815 2.5454798961961 0 0 1
1992 1 12.753579717666296 3.9726293422144323 1.1345681714010507 0 0 1
2107 1 18.857842315854246 3.377583091570899 1.1677096926610544 0 0 1
1993 1 17.174996622809513 5.195464427961266 2.801668719256776 0 0 1
2674 1 23.567136287834423 4.903123742840279 2.8141005094176896 0 0 1
2593 1 25.227092043831732 3.542044370844537 1.2371289204456164 0 0 1
2677 1 30.000530691687185 4.910465871616613 2.844836476847986 0 0 1
2676 1 32.011789691602395 3.457998948614309 1.2855689450716616 0 0 1
1994 1 1.1245685176186706 8.0910207915058 2.6502846902343116 0 0 1
1995 1 2.968835780997985 6.8930321946525135 0.9642194841152512 0 0 1
1989 1 4.318357413893985 5.774805623692028 3.0067816487266925 0 0 1
1997 1 7.905293040816577 8.149293673592172 2.6166453386808497 0 0 1
1998 1 9.416767163620303 6.4547659695105795 0.8709691915398157 0 0 1
1913 1 15.531941254356521 7.046625806711665 1.3805213359905417 0 0 1
2678 1 20.423216733062894 8.158572025618495 2.810685099916548 0 0 1
2599 1 22.34843754735266 6.789188004213626 1.2447870013259459 0 0 1
2600 1 28.539032914703395 7.063463359125885 1.790287457591167 0 0 1
2601 1 30.081586369007653 8.324306101023907 0.08648433517268589 0 0 1
2682 1 33.30857327685007 8.466319223451135 2.520317283118952 0 0 1
2001 1 5.959182924052467 9.878024202697453 1.2997875122207845 0 0 1
2000 1 4.334873557743301 11.427294743394643 2.7207021956623048 0 0 1
2002 1 12.329208218868333 9.927455051081697 0.9651474961680491 0 0 1
1999 1 13.90279035267498 8.780991910881887 3.109273282950349 0 0 1
2353 1 18.97220233231669 10.248265610778411 1.001445620614777 0 0 1
2605 1 25.516364445640516 9.727964189853902 1.5117089778228088 0 0 1
2606 1 31.385203261474334 10.41911817783596 1.1617073668131555 0 0 1
2007 1 2.6907455490294296 13.19999300350996 1.1633010936870962 0 0 1
2009 1 9.273305145501698 12.82858341517589 1.3891582503749706 0 0 1
2003 1 10.875418837249413 11.58458036066018 3.0714248254866905 0 0 1
2011 1 15.493308407186746 12.851171279196143 1.0813753414903342 0 0 1
2004 1 17.343484995874956 11.66005902333352 2.643015871771319 0 0 1
2687 1 23.84587852565371 11.683771037396287 2.6266389711323237 0 0 1
2608 1 22.285654311506747 13.5334562949985 1.2535392843050859 0 0 1
2609 1 28.05909926767144 13.163923633031656 1.5805341078155195 0 0 1
2685 1 30.064361436323924 12.163445447427403 2.862940287000348 0 0 1
2006 1 1.291071896537305 14.619340544985747 2.834868010247663 0 0 1
1477 1 0.14967441349785604 16.860268037019807 1.206413052801288 0 0 1
2013 1 6.2805390073075404 16.239112992466765 1.5538683776256563 0 0 1
2010 1 14.153397783547799 14.771547448667317 3.002356880649172 0 0 1
2015 1 12.583586705565997 16.304012610905257 1.403981805613967 0 0 1
2691 1 20.59264919359403 14.986430515048124 3.0376751858737556 0 0 1
2439 1 19.062042681954903 16.408422556268103 1.5970316399446423 0 0 1
2688 1 26.780541672896323 15.026188303423117 3.14178326371912 0 0 1
2692 1 25.438465170632288 16.9874886753409 1.2949383242317083 0 0 1
2690 1 33.39705519110337 14.881078048853178 3.219491797935467 0 0 1
2616 1 31.701529973254974 16.307787568576117 1.3463058003642063 0 0 1
2020 1 2.900891989183249 19.714973307391382 1.409680212831199 0 0 1
2014 1 4.662305188696029 18.058510875589956 3.1116681525496537 0 0 1
1930 1 9.46774209893832 19.490983755995572 1.7279453954865702 0 0 1
1932 1 15.671260155687929 19.75808447256345 1.3845122303623443 0 0 1
1931 1 14.378761859378448 17.89374090921506 0.1359490078552117 0 0 1
2695 1 23.820937429060926 18.272437572462685 2.978586402862342 0 0 1
2694 1 22.0944050492406 20.033610374367285 1.716599738683785 0 0 1
2696 1 30.403119514446754 17.84743927861082 3.1792661857249804 0 0 1
2620 1 28.77366523650949 19.25378345852949 1.410503597323475 0 0 1
2023 1 1.3170539432449855 21.436060778618696 3.1097090202172444 0 0 1
2024 1 7.620320082422188 21.116893368634337 3.281918786334616 0 0 1
1934 1 6.334576041293424 22.73395970877002 1.550814925541548 0 0 1
1936 1 12.362308761051874 22.70258778044804 1.2799150456814807 0 0 1
2026 1 13.773223692588552 21.145198049504877 3.0010001094927437 0 0 1
2145 1 18.747910223970976 22.559150120283554 1.080933754613562 0 0 1
2697 1 20.124992243744046 21.52696576062822 3.273652062959825 0 0 1
2699 1 27.37105311689279 21.32570770204902 3.0098654663331113 0 0 1
2698 1 25.74565917024393 22.8800309646611 1.3255565046085434 0 0 1
2701 1 33.48083396602733 21.2751032636757 2.6098471143062634 0 0 1
2700 1 32.11504373454352 22.85782975138299 0.9398343631330326 0 0 1
2028 1 2.9737292415154637 25.65744208321944 1.1409218726857826 0 0 1
2029 1 4.649721254259961 24.48815655277034 3.045518789227615 0 0 1
1942 1 9.249000194383866 26.01572850373739 1.1855658807731453 0 0 1
2030 1 10.767430352972506 24.437116462875192 2.900353385712116 0 0 1
1944 1 15.701714037738643 25.983696737792833 1.4280218215872826 0 0 1
2031 1 17.306427079624612 24.26140845027915 2.9302545459298095 0 0 1
2702 1 21.918178224156346 25.809047905006818 1.3624706408470575 0 0 1
2703 1 23.639314853006926 24.571550055833576 2.8492449510051796 0 0 1
2704 1 30.49877565200349 24.27135086587001 2.541160535112386 0 0 1
2629 1 28.789789458011796 25.91297793930239 1.1331382413241138 0 0 1
2032 1 1.3147458639545362 27.48993739192006 2.4855005936438124 0 0 1
1947 1 5.9873976193674014 28.941033162743707 1.174314978726144 0 0 1
2033 1 7.619585730865204 27.707528739380756 2.831480725199234 0 0 1
2034 1 12.265869684536746 29.16763180903666 1.0540645567492333 0 0 1
2035 1 14.05099619663227 27.66681621424316 2.8400580539454534 0 0 1
2148 1 18.39751715266089 29.423092156424474 1.255627575556184 0 0 1
2706 1 20.330100963999374 27.719066246912362 2.918878943618453 0 0 1
2709 1 27.041471197014467 27.67047018371266 2.6557339061278613 0 0 1
2708 1 25.508209006823872 29.475378675829457 1.2148728628219794 0 0 1
2711 1 33.81179865778918 27.49610745471637 2.4144548743226553 0 0 1
2710 1 31.866219728971387 29.21233605854047 1.010063510860023 0 0 1
1204 1 33.81010573803375 50.53460461449539 25.519191097976673 0 -1 0
2038 1 4.521810758376405 30.69760602624076 2.677042624137827 0 0 1
2037 1 3.061569663119237 32.32007799284132 1.1184332481545212 0 0 1
2039 1 8.99011118048963 32.56334931415465 1.3023984570464229 0 0 1
2040 1 10.871915470159115 30.87373049507933 2.781721764581713 0 0 1
2041 1 15.677401201172948 32.51305691566219 0.9727506976198412 0 0 1
2042 1 17.024911058713975 31.226239631742956 2.8866352750716144 0 0 1
2636 1 22.019713512012434 32.745438666920336 1.1385937470343828 0 0 1
2713 1 23.84364003190295 31.054432418439887 2.646097771688271 0 0 1
2715 1 28.307102936108176 32.292363315033214 0.7635574774227352 0 0 1
2716 1 30.188766644266277 30.76329509861047 2.3075433915069423 0 0 1
1969 1 10.965886220933148 41.098891697575695 -0.19321054377953945 0 0 1
2043 1 1.3214796591520135 34.03287449971418 2.732819533531611 0 0 1
2046 1 7.2941135280388805 34.03734716232586 2.8102145811029207 0 0 1
2045 1 6.320691233974331 35.7933481448475 1.080171722995563 0 0 1
2047 1 13.986351220240522 34.30281151219462 2.3397026588418592 0 0 1
2719 1 20.486614638171048 34.17725191539316 2.6400852505966648 0 0 1
2754 1 18.975067348411006 35.83504870621044 1.0797992079070227 0 0 1
2720 1 25.119804547165113 35.75707296013924 1.378491455088202 0 0 1
2721 1 26.948669989107533 34.32788870053429 2.5130082820132174 0 0 1
2723 1 33.03259051632225 34.122546496164745 2.6494465657091224 0 0 1
2722 1 31.83707641281393 35.820657288285105 1.2268767244543488 0 0 1
2050 1 4.656225355730804 37.33907429133811 2.6224948175049163 0 0 1
2051 1 10.793671173919229 37.388414380348195 2.8556985458950552 0 0 1
1960 1 12.134037424354002 35.88188939309869 0.8036558467571029 0 0 1
2052 1 17.38002981800412 37.31637981698778 2.7017225618929666 0 0 1
2725 1 23.877964196942273 37.534687648349845 3.0676786587666527 0 0 1
2726 1 29.792853705654068 37.44293845862016 2.710624647340125 0 0 1
2054 1 1.3583648101461645 40.47762915743216 2.873630153834152 0 0 1
2049 1 2.8103873437835025 38.98504567575759 1.0309319538737987 0 0 1
1776 1 -0.17063030971267307 41.84350747683652 1.2872741389046327 0 -1 1
2057 1 7.44373198601116 40.51354050021075 2.792993150849336 0 0 1
1964 1 9.47628046592967 39.28858342259208 1.4420621931709896 0 0 1
2060 1 13.868390764555999 40.57063379299349 2.9013294452498926 0 0 1
2059 1 15.53821953094418 38.89275501886881 1.1983973669538872 0 0 1
2728 1 20.144153087019866 40.80735550744525 2.812017512451999 0 0 1
2724 1 22.25840741132156 39.297473891669824 1.403226549533191 0 0 1
2729 1 26.791416944649 40.65929509887921 2.6359552102934534 0 0 1
2727 1 28.272061441348626 39.019647505720556 1.059971808966701 0 0 1
2730 1 33.32545111484 40.84421370146036 2.7222661450755514 0 0 1
1971 1 4.463433958204408 44.45050863393212 2.698909454593266 0 -1 1
2056 1 5.798212499876296 42.596856158441454 1.267103623399822 0 -1 1
1972 1 10.701463645844653 43.907584452341595 3.184476527893534 0 -1 1
1884 1 12.590072795377925 42.774724810005154 1.3763725312527177 0 -1 1
1973 1 17.313782478921443 43.964354438431016 2.451868194481486 0 -1 1
2235 1 18.939452531281297 42.64859359667827 0.4426738191931844 0 -1 1
2653 1 23.342968074929562 43.98311973442361 2.3633729134693264 0 -1 1
2652 1 25.33963073295647 42.90862096755782 0.933146937962702 0 -1 1
2654 1 30.08354906266001 43.830076036529604 3.0068256285363066 0 -1 1
2580 1 31.92891704498801 42.63549123160243 0.9673858478727984 0 -1 1
1974 1 0.9523662268557249 47.413744738133886 2.7408144064845428 0 -1 1
1885 1 2.646287021123266 45.746165679114725 1.1863533601629574 0 -1 1
1975 1 7.366742194342153 47.4256459084997 2.95261204926515 0 -1 1
1882 1 9.077649651066821 45.688781067825275 1.485993792628212 0 -1 1
1888 1 10.972382634225356 47.31096026389635 0.1217523258170517 0 -1 1
1977 1 14.107641947457983 47.045052756228515 3.238493705373609 0 -1 1
1976 1 15.765462518145448 45.781032963761035 1.0593182030431443 0 -1 1
2657 1 20.183460841255854 47.309589112441685 2.436433732029719 0 -1 1
2656 1 22.03933341301743 46.147363101640124 0.8602521764089317 0 -1 1
2660 1 26.880934785308355 47.147241658913615 3.0320941860359536 0 -1 1
2659 1 28.944570181633217 45.75940606325136 1.4629342576942868 0 -1 1
2662 1 33.00433467149251 47.06147693432257 2.7762682106778946 0 -1 1
1979 1 4.138882034056903 50.47375818986032 2.8867106286053996 0 -1 1
1978 1 5.953328776902035 49.16599030932362 1.4144839117860142 0 -1 1
1980 1 10.683953554374376 50.601858200799555 3.0202646858952273 0 -1 1
1893 1 12.402979331821248 48.950882178190014 1.534816559809763 0 -1 1
1982 1 16.864234629786438 50.27242828922526 2.9501215240131278 0 -1 1
2153 1 18.476532071720282 48.88955029853351 0.8762463749550244 0 -1 1
2663 1 23.628747783225563 50.453106951043665 2.809911656888596 0 -1 1
2664 1 25.473353527781992 48.677633921740764 1.5773932626521319 0 -1 1
2666 1 30.277611521484395 50.43902770152775 2.8260945395552426 0 -1 1
2665 1 31.687640573645215 48.68388040282376 1.1048908498108636 0 -1 1
2080 1 5.954554850781032 0.3540619885393458 4.491739206337859 0 0 1
2079 1 4.454584426195924 1.9564022770424154 6.111083148758576 0 0 1
2082 1 10.8837589815095 2.093701222038558 5.931347575696722 0 0 1
2081 1 12.485061127460865 0.34814367049324135 4.366169821186717 0 0 1
2146 1 18.667317120578183 0.28741839110915457 4.110797969987601 0 0 1
2746 1 23.36252917010023 1.8354827293794949 5.965676044219411 0 0 1
2669 1 25.472458778828475 0.28476751048059545 4.330772308962195 0 0 1
2748 1 30.050025902718808 1.8269184992330314 5.644889738336271 0 0 1
2747 1 31.81078150279314 0.11174219830820292 4.517194170248525 0 0 1
2085 1 2.6367160661443325 3.8303580451163377 4.55305134343858 0 0 1
2086 1 1.318191419051196 5.319845605692554 6.462957516548951 0 0 1
2087 1 7.703873966501987 5.107971018287062 6.225824139443224 0 0 1
1990 1 9.570196488154412 3.6774186679033893 4.416183548404702 0 0 1
2089 1 15.545545845678145 4.082742786993869 4.591522872977423 0 0 1
2088 1 13.710743465341238 5.427068763347751 6.193996911952316 0 0 1
2084 1 17.376749068789476 2.4818234192719886 5.7533864857214585 0 0 1
2673 1 21.85028648185716 3.717638301806307 4.522223139920723 0 0 1
2750 1 20.495393490104647 5.151689528947463 6.30201487623752 0 0 1
2675 1 28.1751504783414 3.45650473612695 4.655561478052477 0 0 1
2751 1 26.566821346096624 4.948347519330331 6.397960415721668 0 0 1
2753 1 33.12631795388796 5.428362361110324 6.014874105429246 0 0 1
2090 1 4.380534865709861 8.479657788287195 6.1712850806374915 0 0 1
1996 1 6.170107940917134 7.026101333895201 4.386068876928794 0 0 1
2092 1 12.408465210148327 6.936361914039776 4.350133385902077 0 0 1
2091 1 10.965906839671117 8.347321353187006 6.1821390602449355 0 0 1
2098 1 18.535954676626673 6.420628809838044 4.703687706367804 0 0 1
2093 1 17.142158398554997 8.394904040166272 5.991112699670067 0 0 1
2679 1 25.173072623679953 6.366158474935775 4.71702273358801 0 0 1
2755 1 23.636102530225656 8.063375867368018 6.006687697958083 0 0 1
2680 1 26.940260120829333 8.342344679000451 3.3886240444074707 0 0 1
2681 1 31.48572898801263 6.963666479507087 4.2547929956123065 0 0 1
2756 1 30.054536940920002 8.487673836454164 6.04955769452745 0 0 1
2095 1 2.5896574887204675 9.527873666441472 4.492090039987156 0 0 1
2094 1 0.962283890491809 11.442741651673941 5.874206426032661 0 0 1
2097 1 7.663106039999637 11.246813331435881 6.251733903143742 0 0 1
2096 1 9.451623373932577 9.835460487671158 4.556186410516375 0 0 1
2099 1 13.975463579603511 11.30695420211896 6.208731303803656 0 0 1
2005 1 15.913173289486998 10.152113417599368 4.429892825539805 0 0 1
2757 1 20.44886348962344 11.377355959512123 5.620558533195515 0 0 1
2684 1 22.17545341179327 9.808983583838783 4.2292362361287905 0 0 1
2758 1 26.645260569991503 11.456691323960184 6.020530786674643 0 0 1
2686 1 28.577376716733863 10.29311548706351 4.594845022465953 0 0 1
1951 1 1.110309144031649 31.10924404502627 -0.12749862726604808 0 0 1
2101 1 5.786001731098167 12.667682669775726 4.772524044623714 0 0 1
2008 1 7.594802710163157 14.370539928875235 3.4268752946176275 0 0 1
2104 1 12.582955408970207 13.164542230379377 4.707527745226777 0 0 1
2230 1 19.056529891337796 13.29045923978721 4.513157177242669 0 0 1
2763 1 25.135713147795865 13.240181219300107 4.5485659073276645 0 0 1
2689 1 31.693953912624313 13.535931308671671 4.592057923305289 0 0 1
2760 1 33.28637250143985 11.700186306595981 5.7581906056851615 0 0 1
2012 1 2.5669884152930873 16.484055234130185 4.2929860727534725 0 0 1
2102 1 4.2315108763474765 15.004214771855628 5.922682161761504 0 0 1
2017 1 9.001586941628535 16.63044202330451 4.637561913949508 0 0 1
2103 1 10.623840648335428 14.846222993609185 6.130241542595115 0 0 1
2108 1 15.991582182798624 16.15166017684938 4.52775479542813 0 0 1
2765 1 22.166256910637685 16.482515721265308 4.487076316881613 0 0 1
2767 1 23.779758198480312 14.894642887179062 6.280190589387086 0 0 1
2693 1 28.44328925499593 16.7055522865027 4.7514194233724 0 0 1
2768 1 30.056988709568575 14.871570669946108 6.278191642525924 0 0 1
2111 1 1.3275809461909776 18.215730929030467 5.830989131533477 0 0 1
1892 1 7.810844763032 50.36140485617656 -0.11080989356697948 0 -1 1
2112 1 6.098887813548321 19.447510937128527 4.779029209375536 0 0 1
2016 1 11.220482385950625 17.87585518126428 3.3279736262712496 0 0 1
2021 1 12.627788895915542 19.413272250994595 4.858452843240524 0 0 1
2114 1 14.463648384614023 17.89205059194026 6.4437385456031855 0 0 1
2022 1 17.609852814933653 18.007116099554356 3.3486958914073774 0 0 1
2239 1 19.006059423773575 19.845200848510938 4.752936334911691 0 0 1
2738 1 20.8464377816442 18.143396702345434 6.236632949348081 0 0 1
2655 1 25.426110402626357 19.938853898947006 4.5638583236627355 0 0 1
2632 1 26.815074983095442 18.094576205583262 6.205392091083619 0 0 1
2517 1 32.042984214849156 19.810369613806277 4.425644162033136 0 0 1
2769 1 33.413499315941465 18.186001809013934 5.996963113178315 0 0 1
2116 1 3.102049760659917 22.996860733225972 4.636493409523961 0 0 1
2117 1 4.528449260779398 21.130573867384346 6.122417680575103 0 0 1
2025 1 9.226149631999766 22.960677405910243 4.330946396810008 0 0 1
2118 1 10.839884536526217 21.66000480028291 6.208528008902101 0 0 1
2119 1 15.466153334757722 22.80277490860221 4.421910979264021 0 0 1
2120 1 17.309091320440906 21.531719433078223 6.2928738152860335 0 0 1
2764 1 22.187210554427804 22.957400943029448 4.599534760499255 0 0 1
2762 1 23.637063682368844 21.259878957467738 6.055221754420277 0 0 1
2752 1 28.93252165565248 22.95048061937551 4.205911621816394 0 0 1
2749 1 30.20933728905705 21.267241456076157 6.151482227919604 0 0 1
1929 1 7.934817475210291 18.05625904093794 -0.04365941609104876 0 0 1
2121 1 1.266062751301115 24.3661227734708 6.041409197785886 0 0 1
2123 1 6.081642793914594 26.207106626864118 4.650314051704769 0 0 1
2124 1 7.686722216998549 24.514423951035383 6.349359717571665 0 0 1
2126 1 12.376701229446777 26.172215640445753 4.153266336998426 0 0 1
2127 1 14.039007369115135 24.573026793046594 5.859993669997933 0 0 1
2249 1 18.995651205860412 26.12252777413341 4.725820629940746 0 0 1
2739 1 20.6695624390134 24.764276919178872 6.427282601679242 0 0 1
2766 1 25.271758256232243 26.407517458715542 4.2528773240276205 0 0 1
2547 1 27.14207993087815 24.679345669459455 5.566954172685517 0 0 1
2648 1 32.063829500623825 26.006732173932757 4.315292222037198 0 0 1
2672 1 33.56714283240753 24.589825876851314 6.1285661672007405 0 0 1
2129 1 2.728602411257094 29.160251950284128 4.127302854749067 0 0 1
2122 1 4.163195993384618 27.48417478154037 6.241696871216575 0 0 1
2072 1 9.195601551027112 29.258527881280568 4.746022288813467 0 0 1
2113 1 11.127557390767272 27.55893895090069 6.407785685230561 0 0 1
2018 1 15.645788087687784 29.51578990132148 4.498167955766751 0 0 1
2128 1 17.383983453083864 27.906113865455183 6.0164163087254146 0 0 1
2612 1 23.497001674494964 27.66967956558671 5.618163035955065 0 0 1
2707 1 22.162864371792438 29.467125671835262 4.091201870541931 0 0 1
2602 1 28.719159059600354 29.368930126191263 4.130144514679407 0 0 1
2596 1 30.373396944494434 27.783470210656386 5.965173924236983 0 0 1
1509 1 -0.14894504548746762 32.261103427499535 4.453892784762957 0 0 1
2071 1 1.5494290118650342 30.783880682682142 5.969227448498611 0 0 1
1967 1 6.076934189374119 32.522363797770566 4.519126857473344 0 0 1
2027 1 7.799359745247198 30.94406118197518 6.311862744392039 0 0 1
2075 1 12.66718130413474 32.25692815705966 4.417363972265597 0 0 1
2083 1 13.965498330447122 30.8555661384825 6.233197891906983 0 0 1
2489 1 20.82601534556948 30.880416162006107 5.816088308960665 0 0 1
2170 1 19.17944232620113 32.51010970848833 4.138149103932751 0 0 1
2466 1 27.070890811196758 30.739147923322054 6.110488263600179 0 0 1
2714 1 25.633229045142404 32.66933061579631 4.142546112970643 0 0 1
2448 1 31.587470995041944 32.364570897489585 4.184756773104873 0 0 1
2759 1 33.397631697142266 30.97658557301228 5.8890812044563265 0 0 1
2044 1 2.8072098999732624 35.7472358617799 4.284082672183555 0 0 1
2019 1 4.441427722353797 34.200874346917445 5.990846606754604 0 0 1
1895 1 8.9765363304172 35.76700786938201 4.03264928451636 0 0 1
1841 1 10.628839083402157 33.82025835053915 5.916510536141072 0 0 1
1799 1 17.52777817942472 33.9434312303306 5.611989277304143 0 0 1
2048 1 15.952941901850988 35.73452101578883 4.164554582104458 0 0 1
2717 1 23.93528611869796 34.316601281710945 5.7131979995531 0 0 1
2683 1 29.717470554986992 33.74468347261896 5.909223431294878 0 0 1
1788 1 1.288383409042412 37.303144317162094 5.924882943943154 0 0 1
1631 1 7.583939086585872 37.383815493972165 5.986890145565719 0 0 1
1608 1 14.305345275526896 37.10271066230955 5.8864575715104825 0 0 1
2471 1 20.43613133598437 37.24690852688863 6.098077108912504 0 0 1
2718 1 22.163446687594742 35.91856284812316 4.4064843770679625 0 0 1
2712 1 28.370869613411585 35.97243017650261 4.40114561925142 0 0 1
2454 1 26.80564388342773 37.55703388324993 6.07114670909437 0 0 1
2400 1 33.03825462553485 37.24566767834487 5.799692479753033 0 0 1
1125 1 28.75186347724639 48.89205796145929 23.98875703083362 0 -1 0
1680 1 6.039663521940138 38.88050437813797 4.311111910318109 0 0 1
1529 1 4.467268449661532 40.56596750454055 6.004487538066442 0 0 1
2055 1 9.205331105005552 41.87921933120309 4.446983277282817 0 -1 1
1474 1 10.999020577609985 40.622788116234815 6.211237215463354 0 0 1
2058 1 12.494594960411597 38.888525054645314 4.450584313849054 0 0 1
1412 1 17.3267117221471 40.76979225572428 5.9730158560504805 0 0 1
2188 1 18.977966495724168 38.96562816316036 4.454269287150576 0 0 1
2277 1 25.18441958629962 39.109881924771955 4.755489461843679 0 0 1
2338 1 23.570320620414112 40.71318284940888 6.095475298994211 0 0 1
2205 1 31.500782597280068 39.17569057900995 4.249067466266996 0 0 1
2241 1 29.880002706706545 40.82089045278339 5.867546555743725 0 0 1
2061 1 1.173185527885806 44.209360077855536 5.8540895686913 0 -1 1
1546 1 2.9465184218887295 42.752755803095454 4.238144644555334 0 -1 1
2063 1 7.3160730083369225 44.037477376815374 5.929463874911316 0 -1 1
2065 1 14.166401269659346 43.863885862258726 5.7609063358489 0 -1 1
2066 1 15.911007506522644 42.55360306443863 4.195372229602987 0 -1 1
2365 1 21.77402431613605 42.51542804499782 4.384896839830393 0 -1 1
2731 1 20.25377133416271 44.14200131546836 5.935681721421353 0 -1 1
2733 1 28.19510476961295 42.760086247764676 4.445561100801448 0 -1 1
2732 1 26.75875181922353 44.310969940362895 6.138123609686242 0 -1 1
2735 1 34.69682775647085 42.44943686274162 4.524300421176212 0 -1 1
2734 1 33.10465674265862 44.029244254988114 5.901522005827937 0 -1 1
2062 1 5.99655468683448 45.8795178426454 4.515408017464556 0 -1 1
2068 1 4.355724660251075 47.23430068538673 6.129887855020025 0 -1 1
2070 1 12.423333124764635 45.38407872534874 4.28464847722866 0 -1 1
2069 1 10.83121274604377 46.98524254912809 6.074541737390221 0 -1 1
2144 1 18.81535588605422 45.69187034389772 3.932029293442959 0 -1 1
2073 1 17.481336889111862 46.88634441146773 5.933832165906875 0 -1 1
2658 1 25.162744588392325 45.43502762985999 4.353116438615494 0 -1 1
2736 1 23.512020768208718 47.153715217709816 5.986915564660034 0 -1 1
2661 1 31.416443479513443 45.73242436301311 4.533005831825214 0 -1 1
2737 1 29.966109054365607 47.19152465466719 6.22014317204379 0 -1 1
2067 1 2.6273830192809426 48.55621013224351 4.431668148196852 0 -1 1
2074 1 1.2441026778285695 50.66986807157788 5.998026739302921 0 -1 1
2077 1 7.581491082647057 50.22816071370286 5.8443890589328555 0 -1 1
2076 1 9.325528703006617 48.50765297955769 4.456475054180626 0 -1 1
2078 1 14.198113544388617 50.41842671079762 6.190406784871953 0 -1 1
1981 1 15.689826997296189 48.69506744554529 5.032293224916767 0 -1 1
2740 1 21.932204201260856 48.39114894717058 4.39152228367202 0 -1 1
2741 1 20.26447104423768 50.256043857855886 5.692261608031311 0 -1 1
2744 1 26.95847365061566 50.4195379215177 5.95800763725946 0 -1 1
2743 1 28.56933617388586 48.70082093740129 4.500839267687743 0 -1 1
2745 1 33.53177303865586 50.29359476153773 6.196582457968095 0 -1 1
759 1 2.70838103513108 0.5310924528135275 8.207538512554235 0 0 0
1907 1 9.234910742675444 0.31475617353151464 7.15464617991244 0 0 0
20 1 7.5455992957365545 1.904996644840617 9.281899909270487 0 0 0
1494 1 15.733101587097426 0.7568908262280323 7.260993564842395 0 0 0
2195 1 21.922459566974034 -0.03279231385037251 7.416443261286667 0 0 0
2243 1 28.38068071204389 0.37508179142183806 7.448544824177241 0 0 0
796 1 26.729923965378173 1.8631190484086275 9.317296776740266 0 0 0
799 1 33.62585779230535 2.1393808375745036 9.364702664504923 0 0 0
2587 1 33.40530522350313 50.401942376285405 -0.09441014240279313 0 -1 1
762 1 5.882432666514401 3.7441165646685297 8.27500617043429 0 0 0
12 1 12.39662433694014 3.5580154320117545 8.032910510931048 0 0 0
31 1 17.51658142418829 5.033588408947655 9.702380146464664 0 0 0
1392 1 19.040064417256456 3.413332352884029 8.197923260141447 0 0 0
1398 1 24.917733894826547 3.509584094580257 8.152722577958754 0 0 0
802 1 23.47045226582941 5.202226316756066 9.49800106492309 0 0 0
804 1 30.17615130715187 5.091321133514709 9.505739106785242 0 0 0
2777 1 31.723726250267394 3.4613166644813456 7.272776936093078 0 0 0
753 1 2.6596286525959223 7.0006363161934555 8.278692400059715 0 0 0
32 1 0.876691360639795 8.515308620175166 9.533375425633935 0 0 0
157 1 9.109077547486606 6.878542123374035 8.394955459174982 0 0 0
442 1 15.830051583867558 6.734931760043246 8.094557703697028 0 0 0
1175 1 22.040924931630972 6.922952963110706 8.122767590171678 0 0 0
862 1 28.434831196265108 6.5170032062987335 8.034996965474754 0 0 0
807 1 26.718132416606725 8.282940903719751 9.590650284152453 0 0 0
2220 1 34.70225416563507 7.114213625868076 7.426383430135865 0 0 0
265 1 5.831544083456576 10.063250463673214 8.240172295765626 0 0 0
34 1 7.576501794931786 8.544519371061599 9.629491479003656 0 0 0
60 1 12.158202210785392 9.686496719371108 8.660858790525836 0 0 0
41 1 10.313442471894776 11.30187109816563 9.681921540040944 0 0 0
42 1 17.422027981097013 11.397978842787596 9.693893314842242 0 0 0
1395 1 19.156353581420223 9.98883245394845 8.111496459026327 0 0 0
1397 1 25.188209682804803 9.88442954019605 8.067913367758281 0 0 0
812 1 23.39530753527468 11.435064396944261 9.434422507883463 0 0 0
2234 1 31.673638207337998 10.156602571188298 7.496293022818463 0 0 0
809 1 33.24381451867645 8.708483329598737 9.590013792567541 0 0 0
2163 1 2.6693455818644543 13.025285936128393 7.391855131829153 0 0 0
43 1 1.419111627312293 14.572900223108102 9.725711228605112 0 0 0
1927 1 9.125561330510813 13.385532449181744 7.541160789157108 0 0 0
35 1 15.467442449696115 12.997054500286167 8.062571544990563 0 0 0
2109 1 17.555412615493896 14.556588000821591 6.515621337159862 0 0 1
2214 1 21.96815290769432 12.92700079063522 7.369017035247502 0 0 0
1396 1 28.466200232549035 13.254039514346825 8.037893016667347 0 0 0
1120 1 32.20845782583609 45.46764249743964 23.290289761371135 0 -1 0
72 1 0.2789135361007379 16.608240566282934 8.232174991014784 0 0 0
740 1 5.98880750407957 16.307304239963194 8.08597353925622 0 0 0
44 1 7.59110690436132 14.847262301698068 9.726638736620208 0 0 0
1652 1 12.428097475635477 16.648615563598224 7.565957502796421 0 0 0
51 1 14.062722013074836 14.974129231026668 9.704933462449807 0 0 0
1341 1 19.087159791057694 16.458072506857615 8.176044814123628 0 0 0
815 1 20.819261667503056 14.766495174477479 9.520332743051434 0 0 0
1394 1 25.251370396307795 16.402533351743962 8.188789413267946 0 0 0
816 1 26.777604760103866 14.852835569742329 9.496810041280668 0 0 0
2774 1 31.80259284271559 16.54025050968924 7.623013060902528 0 0 0
817 1 33.34215757702132 14.785936880403248 9.580831436898208 0 0 0
1570 1 3.0069667514234624 19.418072908924362 7.5705359613492025 0 0 0
2106 1 7.699067762678872 17.921428972660294 6.557372446103861 0 0 1
33 1 9.291604939938601 19.824501025717513 8.125755667949694 0 0 0
50 1 10.939751082081116 18.189179217915292 9.50179154621751 0 0 0
168 1 15.912415136248274 19.774692930433275 8.286886415934712 0 0 0
1128 1 22.21883698322269 19.763318350973073 8.306741361694975 0 0 0
843 1 28.389718397759772 19.915962467848413 8.341843152093785 0 0 0
57 1 1.2925370595912475 21.138603646389782 9.483133101201012 0 0 0
748 1 6.046190418918283 22.77814906855659 8.076815042979197 0 0 0
765 1 12.865749125394666 22.844946907616553 8.164872874901732 0 0 0
108 1 18.606151823387602 23.16045962189553 8.299922055770487 0 0 0
828 1 20.680293340158265 21.726108867943676 9.528709113852312 0 0 0
2281 1 25.383591713434328 23.12407411155825 7.223397927432156 0 0 0
829 1 26.482251900055804 21.42871095440116 9.604915057027005 0 0 0
2771 1 31.655831473381372 23.25195377440194 7.628997702036516 0 0 0
831 1 33.1204870633256 21.542841204462004 9.512337767221336 0 0 0
730 1 2.887633987076937 25.670027893629214 8.154750486604836 0 0 0
745 1 9.39135501687986 25.928474726445142 8.171181962549731 0 0 0
67 1 11.089004698425223 24.675840997205043 9.686432099448343 0 0 0
1540 1 15.764986687214734 26.11685271697306 7.620466054884555 0 0 0
834 1 22.478790958468284 26.465923092269247 8.203916772598527 0 0 0
2231 1 28.59353546768697 25.927266903016708 7.579754650288445 0 0 0
1479 1 0.1207062927548117 29.26039633310219 7.611048084299612 0 0 0
757 1 5.909793009020111 29.279087545647666 8.057821401158009 0 0 0
71 1 7.79064690510141 27.935297535606242 9.441873483128852 0 0 0
754 1 12.733570447075452 29.248170050010465 8.211826782352752 0 0 0
73 1 14.370134711056338 27.709308435588824 9.639568254426559 0 0 0
2772 1 19.32787138786856 29.33797763211771 7.554617881226039 0 0 0
2500 1 25.123821155771587 29.276093765245705 7.522332300529189 0 0 0
838 1 26.886583536815763 27.837036286696918 9.375633513088271 0 0 0
814 1 32.174665246025135 29.218337277653976 8.144387536204095 0 0 0
1815 1 2.9735121174959387 32.58227342405067 7.419643797926819 0 0 0
76 1 4.462147567183736 31.03259117179416 9.620282767755448 0 0 0