
# Import phase coexistance setup
#
read_data           data.coexist_${TEMP}K_${PRES}atm_ML
read_data           data.coexist_294K_${PRES}atm_ML
read_data           data.coexist_294K_-1000atm_ML
Reading data file ...
  orthogonal box = (-0.23725613 -0.26051386 -0.26051386) to (104.81608 51.323873 51.323873)
  3 by 1 by 2 MPI processor grid
  reading atoms ...
  8519 atoms
  reading velocities ...
  8519 velocities
  read_data CPU = 0.030 seconds

# Define potential
#
pair_style 	    sw
pair_coeff	    * * /data/emrosky-sim/Freezing_Simulations/Melting/MLmW_fancy/ML_mW.sw mW
Reading sw potential file /data/emrosky-sim/Freezing_Simulations/Melting/MLmW_fancy/ML_mW.sw with DATE: 2019-02-27

# Reset velocity/set timestep
#
velocity	    all create ${TEMP} 120598 rot yes dist gaussian
velocity	    all create 294 120598 rot yes dist gaussian
timestep	    10.0

# Define output
#
compute	            1 all msd
compute             2 all orientorder/atom nnn NULL degrees 2 4 12
thermo              1000
thermo_style        custom step temp press vol etotal ke pe c_1[4]

# Neighbor lists
#
neigh_modify        delay 0 every 1 check yes

# Set fixes
#
fix                 1 all momentum 10 linear 1 1 1 rescale
fix                 2 all nph iso ${PRES} ${PRES} ${PCOUPL}
fix                 2 all nph iso -1000 ${PRES} ${PCOUPL}
fix                 2 all nph iso -1000 -1000 ${PCOUPL}
fix                 2 all nph iso -1000 -1000 10000.0
fix                 3 all temp/csvr ${TEMP} ${TEMP} ${TCOUPL} 837492
fix                 3 all temp/csvr 294 ${TEMP} ${TCOUPL} 837492
fix                 3 all temp/csvr 294 294 ${TCOUPL} 837492
fix                 3 all temp/csvr 294 294 5000.0 837492

# Run very short equilibration
#
dump		    1 all atom 50 eq.${NAME}.dump
dump		    1 all atom 50 eq.melt_294K_-1000atm_ML.dump
run	            500
Neighbor list info ...
  update every 1 steps, delay 0 steps, check yes
  max neighbors/atom: 2000, page size: 100000
  master list distance cutoff = 6.0032907
  ghost atom cutoff = 6.0032907
  binsize = 3.0016454, bins = 35 18 18
  2 neighbor lists, perpetual/occasional/extra = 1 1 0
  (1) pair sw, perpetual
      attributes: full, newton on
      pair build: full/bin/atomonly
      stencil: full/bin/3d
      bin: standard
  (2) compute orientorder/atom, occasional, copy from (1)
      attributes: full, newton on
      pair build: copy
      stencil: none
      bin: none
Per MPI rank memory allocation (min/avg/max) = 4.595 | 4.598 | 4.602 Mbytes
Step Temp Press Volume TotEng KinEng PotEng c_1[4] 
       0          294   -1084.0875    279541.56   -75610.591    7464.8188    -83075.41            0 
     500    342.16213   -780.11699    273661.55   -77429.662    8687.6813   -86117.343     17.07004 
Loop time of 1.1256 on 6 procs for 500 steps with 8519 atoms

Performance: 383.795 ns/day, 0.063 hours/ns, 444.207 timesteps/s
98.2% CPU use with 6 MPI tasks x no OpenMP threads

MPI task timing breakdown:
Section |  min time  |  avg time  |  max time  |%varavg| %total
---------------------------------------------------------------
Pair    | 0.39557    | 0.63062    | 0.89685    |  25.8 | 56.03
Neigh   | 0.13025    | 0.14727    | 0.15877    |   3.2 | 13.08
Comm    | 0.033612   | 0.31109    | 0.56311    |  38.6 | 27.64
Output  | 0.0078342  | 0.0084143  | 0.0089692  |   0.4 |  0.75
Modify  | 0.02304    | 0.023559   | 0.02427    |   0.3 |  2.09
Other   |            | 0.004647   |            |       |  0.41

Nlocal:        1419.83 ave        1446 max        1394 min
Histogram: 1 1 1 0 0 0 1 0 1 1
Nghost:        2014.83 ave        2043 max        1998 min
Histogram: 2 1 0 0 1 0 1 0 0 1
Neighs:        0.00000 ave           0 max           0 min
Histogram: 6 0 0 0 0 0 0 0 0 0
FullNghs:      39667.0 ave       40880 max       38147 min
Histogram: 1 0 0 1 0 1 1 0 1 1

Total # of neighbors = 238002
Ave neighs/atom = 27.937786
Neighbor list builds = 85
Dangerous builds = 0

reset_timestep      0
undump              1
unfix               2
unfix               3


################################################
#######         Run Simulation         #########
################################################

log                 log.run_${NAME}
log                 log.run_melt_294K_-1000atm_ML
