
# Create simulation box of size 50 x 50 x 50 Angstrom
#
lattice	            sc 1
Lattice spacing in x,y,z = 1.0000000 1.0000000 1.0000000
region 	            all block 0 ${X} ${YZ_LO} ${YZ_HI} ${YZ_LO} ${YZ_HI} units box
region 	            all block 0 53.4 ${YZ_LO} ${YZ_HI} ${YZ_LO} ${YZ_HI} units box
region 	            all block 0 53.4 -0.07811961758156727.0 ${YZ_HI} ${YZ_LO} ${YZ_HI} units box
region 	            all block 0 53.4 -0.07811961758156727.0 50.9852396175786.0 ${YZ_LO} ${YZ_HI} units box
region 	            all block 0 53.4 -0.07811961758156727.0 50.9852396175786.0 -0.07811961758156727.0 ${YZ_HI} units box
region 	            all block 0 53.4 -0.07811961758156727.0 50.9852396175786.0 -0.07811961758156727.0 50.9852396175786.0 units box
create_box          1 all
Created orthogonal box = (0.0000000 -0.078119618 -0.078119618) to (53.400000 50.985240 50.985240)
  3 by 1 by 2 MPI processor grid

# fill box with 4175 randomly distributed atoms
#
create_atoms        1 random 4608 63782 all
Created 4608 atoms
  create_atoms CPU = 0.000 seconds
mass                1 18.015

# Define potential
#
pair_style          sw
pair_coeff          * * /data/emrosky-sim/Freezing_Simulations/Melting/MLmW_fancy/ML_mW.sw mW
Reading sw potential file /data/emrosky-sim/Freezing_Simulations/Melting/MLmW_fancy/ML_mW.sw with DATE: 2019-02-27

# Run minimization
#
minimize            1.0e-8 1.0e-8 10000 1000
WARNING: Using 'neigh_modify every 1 delay 0 check yes' setting during minimization (../min.cpp:187)
Neighbor list info ...
  update every 1 steps, delay 0 steps, check yes
  max neighbors/atom: 2000, page size: 100000
  master list distance cutoff = 6.0032907
  ghost atom cutoff = 6.0032907
  binsize = 3.0016454, bins = 18 18 18
  1 neighbor lists, perpetual/occasional/extra = 1 0 0
  (1) pair sw, perpetual
      attributes: full, newton on
      pair build: full/bin/atomonly
      stencil: full/bin/3d
      bin: standard
Per MPI rank memory allocation (min/avg/max) = 4.236 | 4.249 | 4.255 Mbytes
Step Temp E_pair E_mol TotEng Press 
       0            0    7206741.5            0    7206741.5    4919388.2 
     659            0   -49861.098            0   -49861.098   -406.05845 
Loop time of 1.356 on 6 procs for 659 steps with 4608 atoms

99.1% CPU use with 6 MPI tasks x no OpenMP threads

Minimization stats:
  Stopping criterion = max force evaluations
  Energy initial, next-to-last, final = 
      7206741.54696683    -49860.77479934  -49861.0975885066
  Force two-norm initial, final = 1.6551760e+08 5.1039210
  Force max component initial, final = 88104528.0 1.3836625
  Final line search alpha, max atom move = 0.042018262 0.058139092
  Iterations, force evaluations = 659 1001

MPI task timing breakdown:
Section |  min time  |  avg time  |  max time  |%varavg| %total
---------------------------------------------------------------
Pair    | 0.99025    | 1.1042     | 1.2657     |   9.7 | 81.43
Neigh   | 0.026369   | 0.02891    | 0.031884   |   1.2 |  2.13
Comm    | 0.035573   | 0.1998     | 0.31653    |  23.3 | 14.73
Output  | 0          | 0          | 0          |   0.0 |  0.00
Modify  | 0          | 0          | 0          |   0.0 |  0.00
Other   |            | 0.02306    |            |       |  1.70

Nlocal:        768.000 ave         792 max         753 min
Histogram: 1 0 3 0 0 0 1 0 0 1
Nghost:        1570.00 ave        1587 max        1551 min
Histogram: 1 0 0 1 1 0 1 1 0 1
Neighs:        0.00000 ave           0 max           0 min
Histogram: 6 0 0 0 0 0 0 0 0 0
FullNghs:      21836.0 ave       23070 max       21123 min
Histogram: 2 0 1 1 0 0 1 0 0 1

Total # of neighbors = 131016
Ave neighs/atom = 28.432292
Neighbor list builds = 27
Dangerous builds = 0

# Add velocity/set timestep
#
velocity            all create ${TEMP} 120598 rot yes dist gaussian
velocity            all create 294 120598 rot yes dist gaussian
timestep            5.0

# Define output
#
compute	            1 all msd
thermo	            100
thermo_style        custom step temp press vol etotal ke pe c_1[4] density

# Neighbor lists
#
neigh_modify        delay 0 every 1 check yes

# Set fixes
#
fix                 1 all momentum 10 linear 1 1 1 rescale
fix                 2 all nve
fix                 3 all temp/csvr ${TEMP} ${TEMP} 500.0 928347
fix                 3 all temp/csvr 294 ${TEMP} 500.0 928347
fix                 3 all temp/csvr 294 294 500.0 928347
fix                 4 all press/berendsen iso ${PRES} ${PRES} 1000.0 modulus 20000
fix                 4 all press/berendsen iso -1000 ${PRES} 1000.0 modulus 20000
fix                 4 all press/berendsen iso -1000 -1000 1000.0 modulus 20000

# Run 0.5 ns equilibration
#
dump                1 all custom 1000 eq.${NAME}.dump id type x y z vx vy vz
dump                1 all custom 1000 eq.liq_294K_-1000atm_ML.dump id type x y z vx vy vz
run                 100000
Per MPI rank memory allocation (min/avg/max) = 3.486 | 3.501 | 3.505 Mbytes
Step Temp Press Volume TotEng KinEng PotEng c_1[4] Density 
     659          294    919.42001    139238.72   -45823.716     4037.382   -49861.098 1.0448839e-34   0.99000132 
     700    160.63974   -931.06663    140469.77   -45017.266         2206   -47223.266   0.24117826   0.98132515 
     800    214.59713   -983.73807    141180.87   -43669.229    2946.9748   -46616.204   0.72854101   0.97638237 
     900     242.7104   -976.33403    141404.89   -42856.627    3333.0429    -46189.67    1.3984026   0.97483555 
    1000     259.2439   -801.20958    141837.22   -42295.296    3560.0906   -45855.387     2.089148    0.9718642 
    1100    266.78095   -782.80579     142318.7   -41873.163    3663.5939   -45536.757    2.9557545   0.96857626 
    1200    282.87986   -999.92437    142885.45   -41534.174    3884.6736   -45418.848    3.7030994   0.96473445 
    1300    286.66709    -906.6626    142883.73   -41298.359    3936.6822   -45235.041    4.6766063   0.96474604 
    1400    286.56563   -1026.3602    142527.58   -41243.438    3935.2888   -45178.727    5.7711381   0.96715682 
    1500    288.59434   -1102.6307    142559.33   -41133.025    3963.1483   -45096.174    6.6616915   0.96694137 
    1600    292.26005   -1051.1977     142412.7   -41113.712    4013.4879     -45127.2    7.6287398   0.96793696 
    1700    288.29783   -1032.2059    142472.01   -41153.718    3959.0764   -45112.795    8.5639123   0.96753399 
    1800    295.25271   -1095.8724     142630.3    -41066.06    4054.5849   -45120.645    9.4902322   0.96646025 
    1900    293.83467   -779.77181    142658.24    -41034.01    4035.1115   -45069.122    10.505223   0.96627095 
    2000    290.55729   -955.29245    142504.99   -40963.915    3990.1047    -44954.02    11.677946   0.96731012 
    2100    293.96691   -981.72084    142437.32   -41037.366    4036.9276   -45074.293    12.754853   0.96776967 
    2200     294.6075   -872.38055     142256.2   -41002.411    4045.7246   -45048.135    13.916305   0.96900184 
    2300    296.80815   -1167.3222    142555.72   -40953.535    4075.9453    -45029.48    15.200524   0.96696591 
    2400    293.33112   -705.47382    142476.36   -41011.929    4028.1966   -45040.125    16.183516   0.96750447 
    2500    292.96437   -1145.9693    142354.73   -40983.117    4023.1602   -45006.277    17.424196   0.96833111 
    2600    301.13642   -653.42877    142543.43   -40823.679    4135.3836   -44959.062    18.675963   0.96704924 
    2700    294.31309   -876.18158     142896.9   -40899.692    4041.6815   -44941.374    19.783104   0.96465718 
    2800    294.96546   -821.81907    143264.18    -40932.14    4050.6403    -44982.78    20.917622   0.96218412 
    2900    292.74811   -1105.8131    143077.24   -40882.124    4020.1903   -44902.314    22.024723   0.96344124 
    3000    291.65515    -839.4169    143152.19   -40861.136    4005.1812   -44866.318    23.105504   0.96293682 
    3100    295.37257   -887.78176    143075.04   -40825.026     4056.231   -44881.257    24.385995   0.96345607 
    3200    296.75596   -873.52044    143242.71   -40843.424    4075.2285   -44918.653    25.726845   0.96232835 
    3300    302.56427   -730.07467    143483.75   -40833.844    4154.9917   -44988.836    27.055977    0.9607117 
    3400    291.00566   -750.50467    143403.65   -40815.452     3996.262   -44811.714    28.270609   0.96124833 
    3500    301.21203   -998.25575    143232.62   -40734.049    4136.4219   -44870.471    29.391771   0.96239612 
    3600    296.16968   -1226.0237    143092.19   -40774.167    4067.1773   -44841.344    30.549083   0.96334063 
    3700    296.91984   -1057.7187    143117.15   -40759.358    4077.4789   -44836.837    31.624375   0.96317257 
    3800    298.28408   -675.59236    143304.13    -40766.66    4096.2135   -44862.874    32.820695   0.96191584 
    3900    289.53389   -1241.8208    143328.87   -40957.525    3976.0507   -44933.576     34.02768   0.96174984 
    4000    297.57658   -973.69005     143516.9   -40953.813    4086.4977   -45040.311    35.284445    0.9604898 
    4100    295.02611   -812.84248    143626.09   -40885.215    4051.4731   -44936.688      36.3134    0.9597596 
    4200    294.89286   -1411.1808    143343.32   -40916.187    4049.6433    -44965.83    37.199477   0.96165286 
    4300    291.20026   -994.63491    143317.45   -40881.417    3998.9343   -44880.352    38.212045   0.96182645 
    4400    294.52007   -1170.4216    142966.01   -40841.102    4044.5239   -44885.626    39.062347   0.96419083 
    4500    287.95064   -972.04354    142419.99   -40889.153    3954.3087   -44843.461    40.106292   0.96788739 
    4600    297.39242   -1120.2997    142579.12   -40890.195    4083.9687   -44974.163    40.895699   0.96680715 
    4700    293.41959   -899.66297    142301.66   -40944.132    4029.4115   -44973.544    42.134058   0.96869228 
    4800    295.16021   -1232.5328    142528.25   -40900.447    4053.3147   -44953.761     43.44557   0.96715227 
    4900    291.79694   -1139.7382    142409.12   -40922.614    4007.1283   -44929.743    44.501654    0.9679613 
    5000    296.11226   -613.93624    142596.08   -40894.032    4066.3888   -44960.421    45.396937   0.96669221 
    5100    289.71608    -891.2454    142885.83   -40904.292    3978.5527   -44882.845    46.883161   0.96473187 
    5200    291.31432   -672.65145    143002.45   -40933.444    4000.5007   -44933.945    47.828776   0.96394516 
    5300    289.16214   -901.44596    142982.54   -40934.509    3970.9457   -44905.454    48.698784   0.96407936 
    5400    293.93206    -1411.576    142837.71   -40821.208     4036.449   -44857.657    49.810335   0.96505692 
    5500    295.30859   -883.05416    142938.78   -40781.625    4055.3524   -44836.977    51.045774   0.96437451 
    5600    296.91086   -1186.8518    142695.96   -40702.924    4077.3557    -44780.28    52.463356   0.96601552 
    5700    299.68527    -934.9608    142442.14   -40788.902    4115.4555   -44904.357     53.76198   0.96773691 
    5800    298.03146   -1072.1647    142467.02   -40720.847    4092.7444   -44813.591     55.07649   0.96756792 
    5900    284.71703   -870.96651    142470.97    -40903.14    3909.9028   -44813.043    56.271445   0.96754106 
    6000     296.0265   -1054.3022    142041.19   -40925.861    4065.2111   -44991.072    57.431627   0.97046862 
    6100    294.85983   -1078.3589    142497.41    -40869.57    4049.1897    -44918.76    58.416758   0.96736158 
    6200    296.96754   -1155.5457    142559.95   -40964.371    4078.1341   -45042.505    59.185397    0.9669372 
    6300     292.9512   -883.78562    142536.18   -40973.382    4022.9793   -44996.362     59.97664   0.96709841 
    6400    295.01946   -963.89533    142562.82   -40965.339    4051.3819   -45016.721    61.075379   0.96691769 
    6500     296.7743   -958.36506       142952    -40982.31    4075.4804    -45057.79    61.965837   0.96428536 
    6600    294.51345   -953.95305    142929.15   -41046.132    4044.4331   -45090.565    63.064166   0.96443947 
    6700     290.2486    -940.6813    142913.58   -41096.195    3985.8656   -45082.061    63.826091   0.96454454 
    6800    288.05992   -1071.5531    143017.99   -41150.513    3955.8094   -45106.322    64.819867   0.96384038 
    6900    292.75952   -986.07756     143169.6   -41034.661    4020.3471   -45055.008    65.631445   0.96281974 
    7000    294.24803   -1049.3364    142766.46   -40958.671    4040.7881   -44999.459    66.226932   0.96553854 
    7100    288.48748   -1134.4865    142188.47   -41017.261    3961.6808   -44978.942      67.0155   0.96946336 
    7200    286.48343   -1065.8227    142068.52    -41003.24    3934.1601     -44937.4    67.848871   0.97028189 
    7300    292.84641   -1087.2923    141855.69   -40981.812    4021.5403   -45003.352     68.67648   0.97173765 
    7400    290.77485   -929.56421    142314.64   -41032.621    3993.0923   -45025.713      70.3462   0.96860392 
    7500    295.23467    -937.0159    142257.23   -40875.449    4054.3372   -44929.786     71.34293    0.9689948 
    7600    290.87832   -1141.0605    142118.41   -40915.842    3994.5133   -44910.356    72.231768   0.96994129 
    7700     295.3113   -976.06528    142020.94   -40894.947    4055.3896   -44950.337    73.427879   0.97060702 
    7800    293.39325   -909.63668    142506.54    -40906.49    4029.0498   -44935.539    74.980317   0.96729958 
    7900     287.3456   -1053.9217    142648.53   -41024.291    3945.9999   -44970.291    76.126271   0.96633674 
    8000     292.6883    -1026.974    142751.98   -40971.407    4019.3689   -44990.776    77.343542   0.96563646 
    8100    291.66543   -1208.7419    142917.97   -40916.996    4005.3224   -44922.318    78.456725   0.96451496 
    8200    297.52659   -1055.4345    142724.33   -40965.941    4085.8112   -45051.752    79.720574   0.96582356 
    8300    296.33849   -1022.9243    142793.32   -40906.708    4069.4956   -44976.203    81.245275   0.96535693 
    8400    289.06673   -1016.2288     142740.6   -40969.549    3969.6354   -44939.184    82.097842   0.96571345 
    8500    291.11796   -882.62777    142751.31   -40985.405    3997.8041   -44983.209    82.953549     0.965641 
    8600     293.4708   -1155.3721    143133.69   -40912.157    4030.1148   -44942.272    84.161635   0.96306129 
    8700     294.1861   -1115.6676    142842.36    -40886.59    4039.9376   -44926.528     85.32573   0.96502551 
    8800     291.3443   -647.18697    142586.48   -40848.302    4000.9123   -44849.214    86.420646   0.96675728 
    8900    294.26526   -910.86185    142466.03   -40890.637    4041.0247   -44931.661    87.378044   0.96757465 
    9000    295.42629   -903.32298    142247.58   -40822.747    4056.9687   -44879.716    88.725917   0.96906056 
    9100    295.44415   -1020.7722    142101.57   -40861.393     4057.214   -44918.607    89.501109   0.97005624 
    9200    292.93611   -769.16987    142272.45   -40908.767    4022.7721    -44931.54    90.720769   0.96889116 
    9300    291.08916   -973.27604    142707.35   -40844.732    3997.4086   -44842.141    91.891839   0.96593847 
    9400    301.64407    -1141.922    142743.16   -40879.462     4142.355   -45021.817    93.281699   0.96569611 
    9500    294.13604   -1013.0811    142705.98   -40940.583    4039.2503   -44979.833    94.778248   0.96594774 
    9600    290.36232   -953.82349    142456.12   -41004.222    3987.4272   -44991.649    95.857254   0.96764198 
    9700     297.2203   -928.78421    142629.05   -40933.089    4081.6051   -45014.694    96.811534   0.96646875 
    9800    296.97776   -1062.4135    142494.22   -40888.296    4078.2744    -44966.57    97.916157   0.96738323 
    9900     292.4639   -1017.3413    142466.12   -40848.309    4016.2874   -44864.596    99.189368   0.96757402 
   10000    296.90229   -1066.7413    142378.24   -40959.721     4077.238   -45036.959    99.777037   0.96817125 
   10100    291.63069   -867.03355    142375.61   -40954.321    4004.8453   -44959.167    100.66682   0.96818911 
   10200    292.71376   -1046.7532    142657.21   -40994.953    4019.7187   -45014.672    102.07457   0.96627792 
   10300    293.89079   -1068.2496    142438.08   -40917.341    4035.8823   -44953.224    103.00741   0.96776448 
   10400     295.1969   -839.70524    142411.14   -40853.126    4053.8186   -44906.944     104.2377   0.96794756 
   10500    294.06441   -825.33497    142157.27   -40841.029    4038.2665   -44879.295    105.33334   0.96967618 
   10600    298.59234   -901.17284    141840.65   -40839.735    4100.4467   -44940.182     106.2158   0.97184071 
   10700    296.57941   -1316.1167    142139.51   -40864.058     4072.804   -44936.862     108.0015   0.96979736 
   10800     295.0167    -984.3875    141884.51   -40839.001     4051.344   -44890.345     109.2608    0.9715403 
   10900     297.1921   -1104.5935    142092.57   -40764.153    4081.2178   -44845.371    110.32487   0.97011768 
   11000    295.14719    -830.5203    141917.79   -40794.581    4053.1359   -44847.717     111.4914   0.97131247 
   11100      297.248   -915.97014    142393.65   -40807.614    4081.9855   -44889.599     113.4636   0.96806649 
   11200     294.6742   -921.51802    142586.75   -40812.455    4046.6405   -44859.096    115.14577   0.96675542 
   11300    298.60739   -829.36319     142749.8   -40865.692    4100.6534   -44966.345    116.36807   0.96565117 
   11400    289.43044   -867.33391    143219.13   -40890.442    3974.6301   -44865.072    117.99168   0.96248678 
   11500    288.31842   -1074.6566    143213.88    -40979.31    3959.3591   -44938.669    119.30961   0.96252204 
   11600    284.06217   -1085.8521    143193.28   -41071.644    3900.9098   -44972.554    120.41213   0.96266053 
   11700    291.99411   -946.45126    143146.45   -40958.835    4009.8359   -44968.671    121.21151   0.96297544 
   11800     289.7998    -1104.135    142952.78   -40981.721    3979.7023   -44961.423    122.27997   0.96428009 
   11900    291.91849   -965.13702    143153.79   -41048.387    4008.7975   -45057.184    123.90718   0.96292605 
   12000    290.45211   -912.26679     142739.3   -41051.437    3988.6602   -45040.097    125.03579   0.96572227 
   12100    288.25201   -1055.5483    142703.54   -40997.243    3958.4473   -44955.691    126.50093   0.96596423 
   12200    299.19904   -932.89083    142870.83   -40843.938    4108.7783   -44952.716    127.68864   0.96483316 
   12300    297.10801   -874.54697    142976.37   -40819.655     4080.063   -44899.718    128.36022   0.96412096 
   12400    294.89571   -914.27531    142792.14   -40751.538    4049.6825    -44801.22    129.51581   0.96536486 
   12500    294.55829   -1099.6536    142520.15   -40826.084    4045.0488   -44871.133    130.46776   0.96720724 
   12600    294.56993   -1372.5952     142479.9   -40878.104    4045.2086   -44923.313      131.475   0.96748044 
   12700    295.66771   -1155.4236    142585.53   -40847.621     4060.284   -44907.905    132.45146   0.96676373 
   12800    288.70057   -988.21506    142365.72   -40877.061    3964.6071   -44841.668    133.21558   0.96825636 
   12900    300.09967    -1075.036     142379.7   -40847.872    4121.1463   -44969.018     134.7399   0.96816128 
   13000     291.1055   -756.60425    142645.94   -40919.781    3997.6331   -44917.414     136.2201   0.96635428 
   13100    293.00217   -1004.1715    142507.35   -40873.259    4023.6792   -44896.938    137.86552   0.96729408 
   13200    294.29474   -795.61961    142224.93   -40790.252    4041.4295   -44831.681     139.1202   0.96921489 
   13300    297.01964   -1049.0207    142086.89   -40827.523    4078.8495   -44906.372    139.99827   0.97015648 
   13400    295.39721   -985.46578    142316.71    -40879.75    4056.5693    -44936.32    141.31314   0.96858979 
   13500    290.33564   -837.11277    142805.57   -40876.946    3987.0609   -44864.007    142.95301   0.96527407 
   13600    294.02176   -1223.3975    142567.39   -40922.923    4037.6808   -44960.603    144.12067   0.96688674 
   13700    297.72665   -1310.3533    142960.48   -40945.222    4088.5586    -45033.78    145.20652   0.96422811 
   13800     286.9625   -919.24463    143016.79   -40985.272    3940.7389   -44926.011    146.18217   0.96384848 
   13900    286.79597   -985.55123    142787.49   -40998.195    3938.4521   -44936.647    146.59337   0.96539634 
   14000    288.15547   -1124.0717    142646.62   -41065.055    3957.1214   -45022.176    147.80735    0.9663497 
   14100    288.51368    -693.0245    142566.88   -41007.637    3962.0406   -44969.677     148.5563   0.96689022 
   14200    293.51712   -1055.9317     142758.8   -40932.892    4030.7508   -44963.643    149.64621   0.96559033 
   14300     291.9848   -976.44856    142750.15   -40988.877    4009.7081   -44998.585    150.55688   0.96564884 
   14400     298.1085    -949.1774    142698.23   -40906.243    4093.8023   -45000.045    151.65115   0.96600018 
   14500    294.83095   -938.44416    142806.77   -40971.216    4048.7931   -45020.009    152.98428   0.96526597 
   14600    294.82023   -1007.3943    142974.45   -40847.779     4048.646   -44896.425    153.45889   0.96413394 
   14700    295.06478     -954.888    142772.64   -40844.817    4052.0042   -44896.821    154.29203   0.96549675 
   14800    292.42333   -986.03631    142744.83    -40902.16    4015.7302    -44917.89    155.51829   0.96568484 
   14900    292.89028   -952.72339    142953.19   -40842.747    4022.1426    -44864.89    156.86742   0.96427731 
   15000    293.23991   -1111.8566     143012.8   -40947.821    4026.9441   -44974.765     157.4916    0.9638754 
   15100    289.95136   -1106.9049    142653.32   -41003.514    3981.7837   -44985.298    157.67343   0.96630427 
   15200    290.75653   -793.67329    142713.46   -41062.354    3992.8408   -45055.194    158.64468   0.96589709 
   15300    297.74911    -947.2123    143286.33   -40955.348    4088.8671   -45044.215    160.27286   0.96203537 
   15400    292.53892   -1144.9012     142829.3   -40847.881    4017.3177   -44865.199    161.39656   0.96511374 
   15500    294.35998   -1018.7393    142593.98   -40926.081    4042.3255   -44968.407    162.14105   0.96670642 
   15600    295.78863   -1109.3055    142491.98   -41001.195    4061.9445    -45063.14    163.23991   0.96739842 
   15700    290.20279   -786.86126    142892.03   -40969.364    3985.2365     -44954.6    164.65474   0.96469005 
   15800    295.96726   -788.49648    142743.88   -40979.025    4064.3976   -45043.422    165.78786   0.96569127 
   15900    288.13526   -996.26789     142439.2   -40950.185    3956.8439   -44907.029    166.63587   0.96775686 
   16000    289.80144   -922.99053     142424.8   -40993.189    3979.7249   -44972.914    167.79177   0.96785473 
   16100    291.16878   -811.78518    142204.84   -40994.245     3998.502   -44992.747    168.87195   0.96935178 
   16200    295.52327   -857.26332    142473.85   -40795.192    4058.3004   -44853.492    170.16508   0.96752152 
   16300    297.04158   -829.70724    142601.96   -40769.541    4079.1508   -44848.691    171.42006    0.9666523 
   16400    299.89941   -996.14305    142571.18   -40745.721    4118.3962   -44864.117    172.32462   0.96686099 
   16500    298.66571   -1011.7281    142770.94   -40788.632    4101.4544   -44890.087    173.80929   0.96550825 
   16600    293.89232   -1193.2752    142634.62   -40785.408    4035.9033   -44821.311       174.73   0.96643101 
   16700    293.36987   -1059.7759    142515.51   -40923.277    4028.7287   -44952.005    175.88597   0.96723869 
   16800    294.37275   -1158.3262    142444.46   -40906.741    4042.5009   -44949.241    177.00586   0.96772112 
   16900    295.22536   -991.19521    142557.62   -40956.489    4054.2094   -45010.698    178.10164   0.96695302 
   17000     289.0411   -847.63376    142532.26    -40935.36    3969.2835   -44904.644    179.43668   0.96712502 
   17100    292.45645   -812.84385    142554.73   -40947.293    4016.1851   -44963.478    180.26476   0.96697258 
   17200    294.31473   -833.84537    142345.88   -40890.511     4041.704   -44932.215    180.74357   0.96839134 
   17300    294.50421   -1210.4715    142629.79   -40881.828    4044.3062   -44926.134    182.42471   0.96646371 
   17400     293.4721   -875.85307    142493.36   -40876.265    4030.1326   -44906.397    183.12054   0.96738905 
   17500    292.36185   -1199.7656    142603.27   -40885.126     4014.886   -44900.011    184.57329   0.96664343 
   17600     293.9794   -974.57207    142337.23   -40936.247    4037.0992   -44973.347    185.09224   0.96845021 
   17700    295.08726   -920.64635    142147.46   -40877.249     4052.313   -44929.562    186.58058   0.96974308 
   17800    294.20231   -684.38496    142329.49   -40958.707    4040.1603   -44998.867    187.93338   0.96850285 
   17900    287.54875   -946.83017     142589.4   -40983.203    3948.7896   -44931.993     189.4824    0.9667375 
   18000    291.10756    -782.7157    142748.66   -40991.531    3997.6613   -44989.192    190.50047    0.9656589 
   18100    295.37114   -1178.1213    142433.38   -40965.777    4056.2113   -45021.989    190.73379   0.96779646 
   18200    297.21699   -1220.9771    142680.62   -40918.429    4081.5596   -44999.989    192.12155   0.96611943 
   18300    293.32361   -1202.5575    142728.73   -40916.364    4028.0935   -44944.457    193.44804   0.96579376 
   18400    286.37045   -1122.8017    142714.79   -40964.448    3932.6086   -44897.056    194.86081   0.96588811 
   18500    295.95494   -1163.1232    142438.06   -40907.174    4064.2284   -44971.403     195.6431   0.96776464 
   18600    295.41746   -1227.4917    142362.02   -40913.875    4056.8475   -44970.722    196.50779   0.96828156 
   18700    297.06053   -1256.9356    142551.47   -40806.976    4079.4111   -44886.387    197.78609   0.96699468 
   18800    289.98065    -1014.688    142456.56   -40884.621    3982.1859   -44866.807    198.72335   0.96763894 
   18900    294.57647   -898.21622    142584.81   -40891.557    4045.2984   -44936.855    199.88712   0.96676858 
   19000    291.56998   -783.51923    142585.61   -40908.283    4004.0115   -44912.295    200.70419   0.96676317 
   19100    292.99051    -1093.208    142527.41   -40942.507    4023.5191   -44966.026    201.74961   0.96715798 
   19200    295.72443   -928.03922    142376.39   -40919.945    4061.0629   -44981.008    202.78948   0.96818384 
   19300    290.06126   -848.23597     142519.8   -40911.968    3983.2929   -44895.261    203.88421   0.96720962 
   19400    294.96806   -1023.2015    142627.47   -40902.732     4050.676   -44953.408    205.47854   0.96647942 
   19500    293.09864   -979.82608    142890.74   -40896.989     4025.004   -44921.993    206.86183   0.96469871 
   19600    298.68834   -1025.9476    142545.26   -40891.468    4101.7651   -44993.233    207.67055   0.96703686 
   19700    294.87302   -1205.9326     142490.5    -40920.77    4049.3708   -44970.141    208.91118   0.96740845 
   19800    296.50765   -1132.1607    142470.15   -40933.624    4071.8186   -45005.443    209.90727   0.96754665 
   19900    297.22556   -860.32276    142826.73   -40841.183    4081.6773    -44922.86    211.34768   0.96513109 
   20000     302.4586    -1063.078    142953.59    -40780.74    4153.5405    -44934.28    212.49566   0.96427459 
   20100    296.17591   -968.58323    142931.07   -40833.552    4067.2629   -44900.815    213.71403   0.96442657 
   20200    294.67032    -984.1734    142601.58   -40844.547    4046.5872   -44891.134    214.32705   0.96665493 
   20300    301.21974   -719.79458    142763.09   -40777.577    4136.5277   -44914.105    215.95241   0.96556132 
   20400    296.43553   -945.20075    142799.57   -40808.623    4070.8282   -44879.451    217.30369   0.96531463 
   20500    298.51969   -931.92001    142908.98   -40758.857    4099.4491   -44858.306     218.6531   0.96457563 
   20600    298.42691   -829.36909    142948.33   -40830.359    4098.1749   -44928.534    220.40939    0.9643101 
   20700    295.42194   -821.10788    143403.13   -40869.021     4056.909    -44925.93    222.18254    0.9612518 
   20800    298.73693   -1063.8918     143553.9   -40922.907    4102.4324   -45025.339    224.11325    0.9602422 
   20900    293.80613   -1141.8238    143340.81   -40917.728    4034.7196   -44952.448    225.99301   0.96166972 
   21000    297.05023   -871.22963    143605.11   -40801.757    4079.2696   -44881.027    227.70918   0.95989978 
   21100    296.32476   -1041.3039    143293.61   -40872.632     4069.307   -44941.938    228.81774   0.96198648 
   21200    291.81336   -1096.8129    143333.18   -40949.736    4007.3537   -44957.089    230.27187   0.96172094 
   21300    290.80123   -940.77946    143454.29   -40966.866    3993.4546   -44960.321    231.15996   0.96090897 
   21400    295.49567   -1087.7716    143299.27   -40895.079    4057.9214   -44953.001    232.18628   0.96194849 
   21500    297.80331   -1049.3994    143170.49   -40834.457    4089.6113   -44924.068    233.08824   0.96281378 
   21600    298.30521    -1115.477    142969.72   -40887.421    4096.5037   -44983.925    233.75744   0.96416579 
   21700    291.84783   -803.88903    142907.35   -40903.211    4007.8272   -44911.039    235.47254   0.96458662 
   21800    301.12449   -871.08442    143383.59    -40840.43    4135.2197    -44975.65    237.66074   0.96138282 
   21900    301.45009   -1261.1949    143067.99   -40783.973    4139.6911   -44923.665    238.64832   0.96350354 
   22000    296.09133   -834.32733    142911.27   -40841.209    4066.1014   -44907.311    239.33839   0.96456012 
   22100    304.59384   -879.84309    142954.12   -40776.212    4182.8629   -44959.075    240.27105   0.96427104 
   22200    300.44654   -988.25741    143102.35   -40786.091    4125.9097   -44912.001     241.9806   0.96327219 
   22300    294.69546   -1051.3269    142992.78   -40853.162    4046.9325   -44900.095    243.43588   0.96401034 
   22400    298.73391   -771.58087    142991.46   -40888.736    4102.3909   -44991.127    244.46721   0.96401921 
   22500    293.63088   -934.88787    142956.27   -40930.223    4032.3131   -44962.536     245.8915   0.96425653 
   22600    292.42962   -1106.5076    142770.41   -40947.092    4015.8166   -44962.908     247.0314   0.96551177 
   22700    296.23312   -1052.3312    142573.35   -40947.873    4068.0486   -45015.922    247.82641    0.9668463 
   22800    290.34953   -785.00599    142807.67   -41028.688    3987.2516   -45015.939      249.448   0.96525987 
   22900    300.00062   -1107.4135    142793.37   -41012.118    4119.7861   -45131.904    249.99227   0.96535657 
   23000    297.23819   -853.91484    143014.16   -40900.552    4081.8507   -44982.403    251.07974   0.96386619 
   23100    297.28399   -780.10984    143025.86   -40919.234    4082.4798   -45001.714    252.45029   0.96378735 
   23200    296.63242   -1009.5221     142841.1    -40943.89     4073.532   -45017.422    253.36073   0.96503398 
   23300    290.43949   -1134.5552    142714.73   -41053.429    3988.4869   -45041.915    254.20631   0.96588852 
   23400    294.23268   -1211.1664    142112.18   -40989.511    4040.5773   -45030.088    254.48889   0.96998385 
   23500    295.34671   -860.91515    142192.47   -40976.918    4055.8758   -45032.794    255.55401   0.96943612 
   23600    297.37613   -984.55439    142642.24   -40993.009    4083.7451   -45076.754    256.74719   0.96637934 
   23700    289.54513   -919.58414    142967.91   -41023.178    3976.2051   -44999.383    258.12871   0.96417803 
   23800    296.35631   -804.36274    142780.01   -40975.113    4069.7403   -45044.853    258.98436   0.96544692 
   23900    300.99188   -894.33473    143011.23   -40902.182    4133.3987   -45035.581    260.49847   0.96388599 
   24000    294.04323   -975.63595    143201.71   -40881.243    4037.9757   -44919.218    261.87839   0.96260384 
   24100    293.18305   -1090.8308    143164.51   -40872.284    4026.1631   -44898.447    263.14673   0.96285399 
   24200    299.00187   -1089.6632    143227.73   -40803.339    4106.0706   -44909.409     264.8113     0.962429 
   24300    293.11935   -1229.2585    143210.51   -40871.131    4025.2884    -44896.42    266.35646   0.96254471 
   24400    295.69086   -1016.1418    143044.75   -40834.329    4060.6019   -44894.931    266.71703   0.96366007 
   24500    296.40182   -997.26361    143357.17   -40835.877    4070.3652   -44906.242    269.12039   0.96155997 
   24600    295.74313   -1026.4432    143237.78   -40878.284    4061.3198   -44939.603    270.17002   0.96236147 
   24700    296.68283   -984.08797    143220.93   -40830.167    4074.2242   -44904.391    270.98538   0.96247463 
   24800    294.62503   -999.00426    143371.69   -40810.328    4045.9653   -44856.293    271.95331   0.96146262 
   24900    290.39761   -972.81092    143006.34   -40871.205    3987.9119   -44859.117     272.5538   0.96391891 
   25000    293.61105   -1089.5517    143295.69   -40890.796    4032.0407   -44922.836    274.29787    0.9619725 
   25100    290.38128   -1193.3965    142868.37   -40915.591    3987.6877   -44903.279    274.99481   0.96484978 
   25200     290.4107   -987.33125    142897.69   -40935.266    3988.0917   -44923.357    276.08318   0.96465179 
   25300    293.11054    -937.5212    142940.66   -40949.779    4025.1674   -44974.946    276.77206   0.96436183 
   25400     286.1259   -997.98721    143328.36   -40880.878    3929.2502   -44810.128    278.79402   0.96175323 
   25500    289.70829   -1356.1502    143140.38   -40933.838    3978.4457   -44912.284    279.58754   0.96301629 
   25600    291.19724    -1120.804    142813.95   -40984.741    3998.8928   -44983.634    280.57815   0.96521747 
   25700    292.96996   -1006.5646    142842.56   -40959.663    4023.2369     -44982.9    281.75826    0.9650241 
   25800    289.16673    -1118.481    142799.17   -41050.207    3971.0087   -45021.216    283.13707   0.96531738 
   25900     284.5629   -1062.7752    142765.96    -41123.65    3907.7861   -45031.437    284.53346    0.9655419 
   26000    291.66458   -1100.5973    142717.25   -40958.202    4005.3106   -44963.513    286.00008   0.96587142 
   26100    288.72974   -973.19607    142523.79   -40988.405    3965.0077   -44953.412      287.148    0.9671825 
   26200    296.26709   -1172.6157    142485.88   -40848.415     4068.515    -44916.93    287.97512   0.96743986 
   26300    298.33295   -808.19402    142781.44   -40879.759    4096.8847   -44976.644    289.69309   0.96543725 
   26400    297.67289   -808.60624    143003.19   -40907.105    4087.8203   -44994.926     290.8495   0.96394014 
   26500    298.69737   -566.10748    143180.86   -40762.447    4101.8891   -44864.336    292.16201   0.96274405 
   26600    290.09428   -1076.7137    143387.27   -40845.267    3983.7463   -44829.013    293.70384   0.96135814 
   26700    296.65426    -988.2425     143425.6   -40774.442    4073.8318   -44848.274    295.46879    0.9611012 
   26800    295.74609   -1087.0066    142956.15   -40820.079    4061.3604   -44881.439    296.18968   0.96425734 
   26900    295.04876   -1060.2939    143017.06   -40921.932    4051.7842   -44973.716    296.75722   0.96384669 
   27000    293.26106   -974.02257     142980.1   -40933.557    4027.2345   -44960.791    297.68662   0.96409584 
   27100    294.97757   -797.29871    143037.75   -40901.241    4050.8066   -44952.047     299.3235   0.96370728 
   27200    296.63922   -1127.6349    143272.39   -40841.488    4073.6254   -44915.113    300.16887   0.96212897 
   27300    296.87294   -1051.8455    143506.97    -40788.05     4076.835   -44864.885    301.46809   0.96055624 
   27400    294.23683   -818.50901    143342.13   -40785.769    4040.6343   -44826.403    302.30522   0.96166087 
   27500    293.44106   -929.89788    143676.25    -40846.73    4029.7064   -44876.436    303.78122    0.9594245 
   27600    295.59861   -1014.5891    143577.64   -40786.282    4059.3351   -44845.617    304.88084   0.96008347 
   27700    294.70354   -781.84777    143626.24   -40775.667    4047.0435   -44822.711    305.99945   0.95975857 
   27800    297.89714   -920.56582    143923.77   -40770.275    4090.8998   -44861.175    307.64087   0.95777447 
   27900    300.46452   -1124.9389    143833.67   -40779.825    4126.1566   -44905.982    308.69459   0.95837446 
   28000     300.2356   -867.70807    143843.81   -40713.339     4123.013   -44836.351    310.02053   0.95830688 
   28100    299.91134   -910.42396    143509.45   -40809.093      4118.56   -44927.653    310.12179   0.96053966 
   28200     290.0587    -912.2515    143351.74   -40956.752    3983.2578    -44940.01     310.8345   0.96159642 
   28300    291.72976    -961.2971    143166.24   -40943.458    4006.2057   -44949.664    310.84722   0.96284234 
   28400    293.90018   -961.68606    143209.88   -40835.836    4036.0113   -44871.848    311.63333    0.9625489 
   28500    290.77757   -971.60484    143222.36   -40916.995    3993.1297   -44910.124    312.38385   0.96246503 
   28600    287.55346   -1226.8409    142954.55   -40939.649    3948.8543   -44888.503    312.74667   0.96426815 
   28700    288.55455   -1020.3031    142893.93   -40992.286    3962.6019   -44954.888    313.39128   0.96467721 
   28800    293.70579   -833.02762    142875.83   -40908.845    4033.3418   -44942.187    313.65416   0.96479941 
   28900    292.31817   -991.21882    143085.24    -40915.69    4014.2862   -44929.976    315.26448   0.96338738 
   29000    291.99787   -929.92959    143208.02   -40882.136    4009.8876   -44892.024    317.03507   0.96256145 
   29100    296.67203   -853.59699    143181.51   -40859.737    4074.0759   -44933.813    318.41991   0.96273962 
   29200    288.15139   -1073.6428    143030.11   -40963.837    3957.0655   -44920.902    319.47227   0.96375876 
   29300    293.16646   -961.91241    142891.14   -40919.776    4025.9354   -44945.712    319.60969   0.96469604 
   29400    289.09832    -827.8379    143093.77   -40963.843    3970.0693   -44933.912    321.13331      0.96333 
   29500    296.77284    -952.1428    143312.44   -40902.997    4075.4603   -44978.457    322.78731   0.96186009 
   29600    294.77979   -882.99145    143176.19   -40899.613    4048.0905   -44947.704    323.66391   0.96277543 
   29700     296.1532   -839.04341    143360.38   -40892.753    4066.9511   -44959.704    325.17448   0.96153841 
   29800    298.36906   -1049.9486    143535.93   -40812.906    4097.3805   -44910.287    325.90395   0.96036243 
   29900    295.60156   -1215.7741    143365.14   -40842.277    4059.3756   -44901.652     326.8597   0.96150649 
   30000    292.84099   -794.05191    143049.33   -40820.157    4021.4658   -44841.623    327.52313   0.96362923 
   30100    291.68978   -962.99598    142836.95   -40793.728    4005.6567   -44799.385    328.09423   0.96506201 
   30200    295.80357   -970.72041    142836.41   -40801.633    4062.1497   -44863.783    329.45756   0.96506564 
   30300    299.34666    -935.1924    142757.22   -40761.516    4110.8056   -44872.322    331.20088     0.965601 
   30400    290.85484   -1047.2717    142845.22   -40951.601    3994.1909   -44945.791    332.65189   0.96500612 
   30500    299.39034   -972.15549     142685.4   -40941.616    4111.4054   -45053.021     333.6903   0.96608707 
   30600    287.97747   -1001.0178    142994.67   -40954.079    3954.6771   -44908.756    335.22747    0.9639976 
   30700    294.46973    -1116.136    143025.08   -40903.141    4043.8326   -44946.974    336.07693   0.96379262 
   30800    296.23818   -820.40609     143085.6   -40880.578     4068.118   -44948.696    337.48556   0.96338496 
   30900    296.08618   -945.59768    143121.63   -40920.141    4066.0306   -44986.172    338.86381   0.96314247 
   31000    293.50867   -1005.0104    143183.99   -40930.209    4030.6348   -44960.844    340.45085   0.96272297 
   31100    288.63499   -952.60432    142760.52   -41097.365    3963.7066   -45061.071    340.56916   0.96557867 
   31200    295.21333   -860.96455    142785.34   -41067.602    4054.0442   -45121.646    341.66836   0.96541087 
   31300    295.86885   -1072.7116    143249.13   -41015.088    4063.0462   -45078.135    344.25272   0.96228518 
   31400    288.45502   -1058.8595    143201.26   -41066.812     3961.235   -45028.047    345.02359   0.96260684 
   31500    289.13314    -1003.462     143132.4   -40947.863    3970.5475   -44918.411    346.05494   0.96306998 
   31600    292.48276   -523.27598    142951.57   -40935.555    4016.5463   -44952.102    346.23786   0.96428822 
   31700     294.0971   -635.56768    143255.82   -40975.586    4038.7154   -45014.301    348.37612   0.96224028 
   31800     289.6462   -1077.6308    143182.51   -40982.662    3977.5931   -44960.255    349.45629   0.96273291 
   31900    293.54907   -1068.1967    142946.26   -40931.844    4031.1895   -44963.034    349.94754   0.96432406 
   32000    289.06869   -1329.8934    143007.75   -40875.057    3969.6623   -44844.719    351.48152   0.96390941 
   32100    296.07594   -815.03732    143061.48   -40928.499      4065.89   -44994.389    352.46599   0.96354742 
   32200    295.20564   -885.72333    143386.69   -40936.318    4053.9386   -44990.257    354.06314   0.96136204 
   32300    293.68412   -1156.6806    143079.82   -40902.216    4033.0442    -44935.26    354.68177   0.96342386 
   32400    293.77201   -928.06523     142946.7   -40829.376    4034.2511   -44863.627    355.30127   0.96432109 
   32500    288.55182   -859.77866    143118.21   -40911.305    3962.5644    -44873.87    356.36753   0.96316546 
   32600    298.71843   -1216.5268     142903.9   -40902.036    4102.1784   -45004.215    357.02944   0.96460989 
   32700    297.75601   -1181.0484    143223.73   -40909.246    4088.9617   -44998.207    358.58136   0.96245588 
   32800    295.99177   -890.33145    142743.85   -41004.361    4064.7341   -45069.095    358.98158   0.96569144 
   32900    288.17652   -1046.9197    142972.32   -41088.523    3957.4105   -45045.934    360.78557   0.96414827 
   33000    288.86396    -973.8887    143092.85   -41076.634    3966.8509   -45043.485    362.05791   0.96333616 
   33100    296.01098   -777.58891    142971.68   -41002.621     4064.998   -45067.619    362.93559   0.96415258 
   33200    289.56376   -970.45903    143180.24   -40938.619    3976.4609    -44915.08     365.0145   0.96274818 
   33300    296.58107   -1067.4351    143055.13   -40882.194    4072.8268   -44955.021    365.79702   0.96359015 
   33400    291.81057   -1030.5961    142554.27   -40944.129    4007.3155   -44951.444    366.44217   0.96697574 
   33500    294.28828   -1121.6579    142413.96   -40821.996    4041.3409   -44863.337    367.39604   0.96792841 
   33600    293.50561   -714.31815       142360   -40864.622    4030.5928   -44895.214    368.14577   0.96829528 
   33700    289.17081   -917.83918    142481.48   -40875.494    3971.0647   -44846.558    369.59041   0.96746969 
   33800    289.66573   -750.01506    142580.13    -40825.97    3977.8612   -44803.831    371.02388   0.96680032 
   33900    292.88834   -910.38783    142625.02   -40844.413     4022.116   -44866.529    372.07749   0.96649601 
   34000    296.97553   -1079.2928    142541.15    -40887.85    4078.2437   -44966.094     372.6791   0.96706473 
   34100    289.77556   -1192.9513    142041.13   -40963.079    3979.3694   -44942.448    372.96511   0.97046905 
   34200    293.48088   -1114.0148    141869.15   -40931.887    4030.2532    -44962.14    374.13771   0.97164544 
   34300    290.69723   -891.39619    141886.52   -40908.574    3992.0265   -44900.601    374.66675   0.97152653 
   34400    302.94988    -1086.956     142446.9   -40771.278     4160.287   -44931.565    376.41401   0.96770457 
   34500    303.07576   -1175.3522    142433.49   -40742.936    4162.0158   -44904.952    377.66463   0.96779566 
   34600    297.54667   -1076.6704    142698.85   -40820.893     4086.087    -44906.98    379.21291   0.96599597 
   34700    292.66286   -951.82354    142828.67   -40888.251    4019.0196    -44907.27    380.62593     0.965118 
   34800    289.82072   -996.89342    142855.51   -40928.889    3979.9897   -44908.879    382.35932   0.96493662 
   34900    290.98797   -683.46504     143051.6    -40862.82    3996.0191   -44858.839    384.28424   0.96361395 
   35000    288.50415   -827.61861    143017.02   -40921.379    3961.9098   -44883.289    384.75552   0.96384693 
   35100    295.71803   -938.39939    142960.18   -40854.399     4060.975   -44915.374    385.21237   0.96423017 
   35200    303.00166   -1059.6353    143203.92    -40687.59    4160.9981   -44848.588    387.02799   0.96258901 
   35300    296.89818   -1218.8149     143420.9   -40811.203    4077.1816   -44888.384    388.26812   0.96113268 
   35400    295.30293   -1155.0999    142959.99   -40893.606    4055.2746    -44948.88    387.95925   0.96423145 
   35500     297.6656   -1063.2881    143058.79   -40905.466    4087.7203   -44993.186    388.88113   0.96356554 
   35600    293.60954   -1034.2537    143245.81   -40925.505      4032.02   -44957.525    390.56135   0.96230751 
   35700    297.01587   -1166.1897    142849.81   -40879.408    4078.7977   -44958.205    391.24933   0.96497514 
   35800    295.94737   -700.91702    143134.66   -40885.195    4064.1245   -44949.319    392.99509   0.96305476 
   35900     298.0008   -1123.6854    143190.51   -40840.726    4092.3234   -44933.049    394.74031   0.96267914 
   36000    290.74327   -1032.7777    142861.72   -40870.518    3992.6586   -44863.177    395.70325   0.96489467 
   36100     294.3492   -1407.4705    142884.68   -40913.785    4042.1774   -44955.962    397.86564   0.96473964 
   36200    295.71916   -1115.5173    142801.92   -40872.681    4060.9906   -44933.672    398.51972   0.96529879 
   36300    292.23184   -957.49623    142875.65   -40889.449    4013.1006    -44902.55    400.27211    0.9648006 
   36400    299.55975   -923.13597    143158.79   -40757.155    4113.7318   -44870.887    402.28176   0.96289246 
   36500    300.09835    -1042.766    143193.14   -40716.258    4121.1281   -44837.387    403.13309   0.96266146 
   36600    295.08125   -744.93527    142949.21   -40848.643    4052.2303   -44900.873    403.69777   0.96430418 
   36700    288.69576   -666.91116    143003.49   -40867.452    3964.5411   -44831.993    405.21695   0.96393815 
   36800    295.70962     -1190.83    142762.19   -40892.952    4060.8596   -44953.812    405.92466   0.96556743 
   36900     289.3695   -1130.9877     142573.5   -40991.861    3973.7933   -44965.655    406.98478   0.96684531 
   37000    291.42264   -885.43122    142855.33   -40930.529    4001.9882   -44932.517    409.26641   0.96493789 
   37100    291.46885   -1116.8001    143007.96    -40986.65    4002.6228   -44989.273    409.91077   0.96390799 
   37200    294.09087   -1157.4157    142903.49   -40985.457    4038.6299   -45024.087    410.78196   0.96461269 
   37300      296.384   -1157.7519    143104.02   -40996.598    4070.1206   -45066.719    411.59828   0.96326094 
   37400     297.2197   -797.42285    143110.79   -41056.849    4081.5968   -45138.445    411.94155   0.96321537 
   37500    289.02044   -863.01879    143351.37   -41067.566    3968.9997   -45036.566    413.90905   0.96159886 
   37600    291.04734   -1038.8565    143355.19   -41002.445    3996.8343   -44999.279    415.42794   0.96157325 
   37700    291.60427   -1094.1522     142825.5   -41051.785    4004.4824   -45056.268    416.44261   0.96513938 
   37800     287.6293   -988.03511    142917.45    -41005.99    3949.8958   -44955.886    418.44976   0.96451843 
   37900     291.0622   -1180.0294    142945.48   -40999.394    3997.0384   -44996.432    420.25123    0.9643293 
   38000    294.35041     -923.813    142835.73    -40971.19     4042.194   -45013.384    422.47347   0.96507028 
   38100    292.23552   -845.65407    142654.98   -41006.532    4013.1512   -45019.683    423.39771   0.96629309 
   38200    293.68256   -909.95534    142591.24    -41004.12    4033.0228   -45037.142    424.30202   0.96672498 
   38300    288.23807   -933.49329     142722.1   -41059.575    3958.2559   -45017.831    425.08505   0.96583865 
   38400    284.29044   -996.76755    142463.62   -41124.427    3904.0445   -45028.472    425.61136   0.96759101 
   38500    297.66582   -1055.7145    142370.06   -41109.703    4087.7232   -45197.427    426.60995   0.96822684 
   38600    293.38271   -807.33041    142558.02   -40999.118     4028.905   -45028.023    427.81889    0.9669503 
   38700    296.19625   -849.54724    142556.42   -41017.617    4067.5423   -45085.159    429.38096   0.96696112 
   38800    287.77607   -1053.1653    142685.18   -40970.657    3951.9114   -44922.568    430.51862   0.96608855 
   38900    300.52381   -1030.5449     142711.5     -40856.8    4126.9708   -44983.771    431.47686   0.96591034 
   39000    291.67868   -1077.1786    142826.65   -40879.641    4005.5042   -44885.145    432.15717   0.96513161 
   39100    287.60763    -1184.071    142539.03   -40982.698    3949.5982   -44932.296    432.22034   0.96707912 
   39200    299.37534   -1112.0268    142767.72   -40905.394    4111.1994   -45016.593    433.56514   0.96553001 
   39300    293.62422    -1010.185    143044.84   -40887.518    4032.2216    -44919.74     434.5571   0.96365951 
   39400    288.52388   -844.54223    142810.45   -40911.936    3962.1807   -44874.116    435.37827   0.96524114 
   39500     298.5305    -813.0486       143213   -40806.731    4099.5976   -44906.329    437.84733   0.96252798 
   39600    294.31273   -1128.1084    143135.33   -40811.594    4041.6766    -44853.27    438.67441   0.96305026 
   39700    291.20646    -893.3811    142567.33   -40893.665    3999.0195   -44892.685    438.54062   0.96688712 
   39800     301.3718   -757.43478    142747.44   -40873.894    4138.6159    -45012.51     440.2173   0.96566719 
   39900    288.44176   -864.30284    143063.76   -41056.395     3961.053   -45017.448    441.75726   0.96353202 
   40000    291.59384   -1107.8656    143048.81   -40933.416    4004.3392   -44937.755    442.67424   0.96363271 
   40100    293.67172   -1376.8753    142605.61   -40927.291    4032.8739   -44960.165    443.25249   0.96662762 
   40200    297.11939   -895.80997    142385.98   -40858.525    4080.2193   -44938.744    443.91415   0.96811863 
   40300    292.65053   -997.11438    142338.64   -40922.637    4018.8502   -44941.488    444.56998   0.96844058 
   40400    292.26722   -1049.0608    142195.68   -40951.119    4013.5864   -44964.705    446.03428   0.96941421 
   40500    294.17563   -979.15634    142237.04   -40934.754    4039.7939   -44974.548    447.36214   0.96913234 
   40600    297.73502   -981.11354     142511.3   -40930.978    4088.6735   -45019.651    449.32709   0.96726725 
   40700    292.10246   -963.91841    142461.61   -40929.717    4011.3239   -44941.041    450.51736   0.96760467 
   40800    292.05315    -1048.777    142709.95   -40916.281    4010.6467   -44926.928    451.47992   0.96592086 
   40900    292.13904   -1157.4276    142597.87   -40946.263    4011.8262   -44958.089    451.72652   0.96668004 
   41000    291.14084    -915.3623    142731.42   -40916.912    3998.1184   -44915.031    452.70365   0.96577555 
   41100    293.32383   -966.47804    142760.85   -40911.247    4028.0964   -44939.343    453.24749   0.96557644 
   41200    303.21917   -1029.8212    143206.19    -40821.28    4163.9851   -44985.265    455.77737   0.96257373 
   41300    293.26262   -987.76901    143328.77   -40993.273    4027.2558   -45020.529    457.38243   0.96175049 
   41400    299.37034   -916.54837     143085.2   -40961.118    4111.1308   -45072.249    458.17441   0.96338768 
   41500    289.98514   -971.54316    142842.16   -40977.479    3982.2476   -44959.727     457.5547    0.9650268 
   41600    293.24991   -847.50601    143471.39     -40900.8    4027.0813   -44927.881    460.31019   0.96079449 
   41700     287.0943   -1088.2594    143296.97   -41024.416    3942.5489   -44966.964    460.79705   0.96196392 
   41800    295.07465   -1125.5034    143278.96   -40882.719    4052.1398   -44934.859    461.84428   0.96208484 
   41900    291.64574   -1156.0729    143198.55   -40883.543     4005.052   -44888.595    462.79811   0.96262511 
   42000    296.21198   -1121.0446    142959.34   -40898.698    4067.7583   -44966.456    464.07653   0.96423582 
   42100    290.27239   -888.59208    142815.05    -40894.13    3986.1923   -44880.322     465.1644   0.96521004 
   42200    293.20326   -858.59074    142819.43   -40844.838    4026.4408   -44871.279     465.3708   0.96518044 
   42300    289.74643   -914.71629     142853.5    -40963.67    3978.9695    -44942.64    466.34662   0.96495021 
   42400    293.18695   -985.48171    142624.98   -40912.459    4026.2168   -44938.676    467.12281   0.96649631 
   42500    292.85215   -1269.5337    142487.34   -40975.052    4021.6191   -44996.672    467.60662   0.96742996 
   42600    285.87305   -1079.3304    142185.21   -41011.755    3925.7779   -44937.533    467.67421   0.96948561 
   42700    285.77566   -742.60716    142067.47   -41059.495    3924.4405   -44983.936    468.21668   0.97028907 
   42800     291.9097   -839.04679    142179.25   -41048.836    4008.6768   -45057.513    470.11416   0.96952625 
   42900    287.02191   -866.74499     142270.8   -41002.202    3941.5548   -44943.756    471.91128   0.96890235 
   43000    294.04406   -876.01744     142413.8   -40936.244    4037.9871   -44974.231    474.19167    0.9679295 
   43100    292.53685   -965.25399    142568.44    -40938.03    4017.2892   -44955.319    475.40576   0.96687961 
   43200    290.82859   -1018.0368    142628.59   -40965.944    3993.8303   -44959.774    476.81945   0.96647181 
   43300    293.26725   -1062.5095    142527.44   -40975.788    4027.3194   -45003.108    478.27897   0.96715776 
   43400    294.66294   -1001.7207     142235.8   -41007.885    4046.4859   -45054.371    477.97846   0.96914078 
   43500    292.13701    -767.8298    142370.93   -40947.087    4011.7984   -44958.886    479.62956   0.96822098 
   43600    292.87359   -825.64356    142309.47   -40973.339    4021.9135   -44995.253     480.3329    0.9686391 
   43700    295.77976    -879.1083     142257.3    -40926.64    4061.8227   -44988.462    480.91943   0.96899433 
   43800    290.85885   -954.66905    142253.51   -40870.344    3994.2459    -44864.59    482.05491   0.96902012 
   43900    293.09449   -1155.0522    142278.43   -40958.352     4024.947   -44983.299      482.853   0.96885041 
   44000    294.13537   -913.37492    142599.16   -40884.332     4039.241   -44923.573    484.65903    0.9666713 
   44100    288.28368   -777.27676    142727.15   -40798.488    3958.8821    -44757.37    485.26247   0.96580448 
   44200    296.83453    -935.9896    142676.99   -40846.131    4076.3074   -44922.438    485.58192   0.96614396 
   44300    293.87679   -897.82582    143042.71       -40981    4035.6901    -45016.69    488.08981   0.96367383 
   44400    290.66254   -1004.6732     142696.5   -40986.136    3991.5501   -44977.686    488.86889   0.96601191 
   44500    293.54085   -964.66078    142967.13   -40978.591    4031.0767   -45009.667    490.05531   0.96418326 
   44600    290.37956   -1120.1907    143013.27   -40998.999     3987.664   -44986.663    491.28346   0.96387221 
   44700    293.16227   -1066.3794    142708.02   -41039.968    4025.8778   -45065.846    491.67199   0.96593391 
   44800    293.86573   -972.05458    142686.61   -40979.757    4035.5381   -45015.296    492.39591   0.96607882 
   44900    290.25333   -1171.9645    143031.82   -41018.665    3985.9305   -45004.596    493.58121   0.96374719 
   45000    294.69255   -989.16098    143202.07    -41005.73    4046.8926   -45052.623    494.57692   0.96260141 
   45100    296.71243   -760.82248    143276.45    -40926.54    4074.6307   -45001.171    496.08431   0.96210173 
   45200    294.20316   -1111.1784    143242.36   -40952.476    4040.1719   -44992.648    497.07652    0.9623307 
   45300    292.97535   -1021.8529    143401.01   -41001.529    4023.3109    -45024.84    498.58737   0.96126604 
   45400    285.08319   -1167.0833    143339.44   -41023.601    3914.9312   -44938.532     499.4863   0.96167891 
   45500    298.25576   -913.14876    143358.95   -40923.846    4095.8246    -45019.67    499.78053   0.96154803 
   45600    297.14063   -938.91637     143452.1    -41019.68     4080.511   -45100.191    501.62858   0.96092364 
   45700    299.31267   -960.31797    143542.26    -40933.93    4110.3387   -45044.268    502.79436    0.9603201 
   45800    298.08094    -919.0904    142825.38   -40925.482    4093.4239   -45018.906    502.32193   0.96514021 
   45900    295.33926   -770.36445    143040.17   -40918.843    4055.7735   -44974.616    503.22079   0.96369095 
   46000    293.72891   -1073.7671    142695.94   -40970.906    4033.6592   -45004.566    504.05206   0.96601569 
   46100    294.26791   -946.17333    142662.99   -40886.375    4041.0612   -44927.436    504.74313   0.96623879 
   46200    291.97144    -1058.089    142657.19   -40919.977    4009.5247   -44929.502    505.74149   0.96627807 
   46300    292.75524   -955.55954    142618.62   -40927.092    4020.2882    -44947.38    507.08461   0.96653942 
   46400    292.12214   -1206.9087     142940.3   -40917.581    4011.5941   -44929.175    509.49848   0.96436425 
   46500    296.24677   -1124.3612    142855.32   -40843.307     4068.236   -44911.544    510.02434   0.96493794 
   46600     298.3841   -820.18039    142492.57   -40783.361    4097.5871   -44880.948    510.43731    0.9673944 
   46700    296.67451   -1001.7617    142643.68   -40780.239      4074.11   -44854.349    511.66343   0.96636963 
   46800    298.03887   -1320.5469    142570.03   -40752.223    4092.8462   -44845.069    512.42101   0.96686884 
   46900    291.69918   -1190.0908    142489.51   -40755.392    4005.7858   -44761.178     513.2012   0.96741518 
   47000    295.41975   -1040.1464    142716.97    -40801.14    4056.8788   -44858.019    515.00197   0.96587333 
   47100    293.18161   -1081.3119    142726.02   -40806.843    4026.1434   -44832.987    517.27495   0.96581213 
   47200      295.997   -1166.0946    142476.48   -40865.184     4064.806    -44929.99     517.5052   0.96750366 
   47300    296.23162     -998.471    142363.97   -40844.178     4068.028   -44912.206     518.1767    0.9682683 
   47400    298.21479     -796.486    142365.82    -40816.06    4095.2621   -44911.322     519.5131   0.96825573 
   47500    293.02682    -806.7749    142536.93    -40843.71    4024.0178   -44867.727    520.60996   0.96709337 
   47600    302.17908   -1006.0672    142718.98   -40794.635     4149.702   -44944.337      521.669   0.96585971 
   47700    297.74961   -983.25867    142606.39    -40906.92    4088.8739   -44995.794    521.93859   0.96662233 
   47800    291.87122   -956.26714    142754.75   -40928.489    4008.1483   -44936.638    522.86699   0.96561769 
   47900    295.63063   -920.14263    142804.96   -40864.602    4059.7748   -44924.377    523.63064   0.96527825 
   48000    291.87742    -841.1901    142735.25   -40903.304    4008.2334   -44911.537    524.38532   0.96574963 
   48100    292.64382   -1042.2986    142819.85   -40914.887    4018.7581   -44933.645     525.3768   0.96517761 
   48200    292.70631   -1217.0145     142810.2   -40924.549    4019.6163   -44944.165    526.21285    0.9652428 
   48300    293.78248   -1124.0206    142783.47   -40916.549    4034.3949   -44950.944    527.70172   0.96542351 
   48400    299.47911   -843.16869    142883.05   -40881.301    4112.6243   -44993.926    529.47892   0.96475068 
   48500     292.5562   -846.78981    142720.62   -40999.846    4017.5549   -45017.401    529.56034   0.96584863 
   48600    294.25534   -1098.3991    143020.73   -40977.535    4040.8885   -45018.423    531.57622   0.96382192 
   48700    285.53278    -1049.262    142872.54   -41039.326    3921.1052   -44960.432    532.43627   0.96482163 
   48800    288.86984   -999.00074    142704.43   -40969.443    3966.9316   -44936.374    533.14186    0.9659582 
   48900    295.99076   -1111.7247    142765.01   -40888.929    4064.7203    -44953.65    534.49344   0.96554836 
   49000    295.99397    -967.8374    142576.58    -40884.83    4064.7644   -44949.594    534.55647    0.9668244 
   49100    291.55862   -884.06584    142254.15   -40995.864    4003.8555    -44999.72    534.85031    0.9690158 
   49200    287.06434   -859.45649    142318.05    -41059.12    3942.1374   -45001.258     536.7256   0.96858069 
   49300    293.36331   -742.63963    142178.67   -40984.675    4028.6386   -45013.314    537.05314   0.96953022 
   49400    286.81901   -850.16605    142455.49   -41015.638    3938.7685   -44954.407    539.06986   0.96764621 
   49500    290.41081   -1074.7741     142671.2   -40984.547    3988.0931    -44972.64    539.73633   0.96618317 
   49600    290.30853   -1137.5917    142484.74     -40967.3    3986.6886   -44953.989    540.60495   0.96744756 
   49700    296.75194    -1069.366    142394.59   -40919.407    4075.1732   -44994.581    541.21696   0.96806006 
   49800      292.117   -1068.1566    142166.39   -40867.046    4011.5236   -44878.569    542.29158   0.96961398 
   49900    293.53558   -859.62752    142287.14   -40934.185    4031.0044   -44965.189    544.19378   0.96879111 
   50000    289.89869   -887.73751    142133.99   -41012.068    3981.0604   -44993.129     544.7603   0.96983498 
   50100    297.28202   -1003.2824    142269.67   -40999.421    4082.4527   -45081.874    546.61246   0.96891009 
   50200    289.17103   -1085.7095    142398.76   -41018.395    3971.0677   -44989.463    548.43561   0.96803174 
   50300    288.81473   -1114.4416    142419.23   -40966.322    3966.1749   -44932.497    548.91326   0.96789256 
   50400    292.33813   -841.49917    142634.85   -40984.856    4014.5602   -44999.416    550.10684   0.96642945 
   50500    286.81004   -1093.9509       142252   -41025.307    3938.6452   -44963.952    550.63638   0.96903041 
   50600    292.57568    -1072.915    142269.49   -40999.861    4017.8224   -45017.683    552.01477   0.96891129 
   50700    291.29999   -908.53218    142518.08   -40883.891    4000.3038   -44884.195     554.3352   0.96722128 
   50800     293.4164   -1032.4919    142596.46   -40867.371    4029.3676   -44896.739    555.50632   0.96668959 
   50900    296.42032   -962.64263    142212.82    -40902.25    4070.6193    -44972.87    556.20919    0.9692974 
   51000    292.32309   -1042.1591    142149.05   -40908.983    4014.3537   -44923.337    556.57903   0.96973221 
   51100     293.4045   -876.62282    141867.99   -40921.248    4029.2042   -44950.452    557.57732   0.97165341 
   51200    300.41057   -1044.8259    142106.58   -40795.158    4125.4158   -44920.574     559.6021   0.97002205 
   51300     295.2697   -1064.6534    142288.31    -40809.58    4054.8183   -44864.398    560.26453   0.96878314 
   51400     289.6618   -945.47671    142420.89   -40991.975    3977.8073   -44969.782    562.16516   0.96788132 
   51500    295.00311   -1247.1618    142239.69   -41038.736    4051.1574   -45089.893    562.24345   0.96911428 
   51600    292.55553    -931.2091    142506.05   -40947.432    4017.5458   -44964.978    564.54322   0.96730292 
   51700    289.63837   -1084.9415    142589.87   -40942.636    3977.4855   -44920.122    566.72178   0.96673431 
   51800    292.48593   -831.82997    143051.95   -40955.302    4016.5899   -44971.892    568.51588   0.96361162 
   51900    292.22964   -1161.0699    142845.78   -41055.638    4013.0704   -45068.709    568.61732   0.96500234 
   52000    288.13606     -997.215     142942.9   -41028.476     3956.855   -44985.331     568.8925    0.9643467 
   52100    291.43289   -1123.2485    142984.48   -41043.305     4002.129   -45045.434    569.42746   0.96406632 
   52200    293.71598   -1309.5664    142651.29    -41070.23    4033.4817   -45103.712    570.13553   0.96631808 
   52300    291.59077   -923.40634    142927.02   -41034.039     4004.297   -45038.336    571.89008   0.96445383 
   52400    296.62133   -1119.4702    142700.32   -40946.073    4073.3796   -45019.453     572.4184   0.96598603 
   52500    293.64871   -705.12284    142916.61    -40923.62    4032.5579   -44956.178    574.83447   0.96452415 
   52600    290.35266   -1080.7255    143250.98   -41009.315    3987.2946    -44996.61    577.11666   0.96227278 
   52700    290.70807   -1102.1113    143046.34   -41017.721    3992.1752   -45009.896    577.22689   0.96364941 
   52800    290.23123   -904.79888    143044.71    -41044.36    3985.6271   -45029.988    578.40634   0.96366038 
   52900    288.13659   -1030.0725    142948.11   -41098.292    3956.8622   -45055.154    579.91554   0.96431155 
   53000    284.41148   -1116.4452    142619.56   -41121.413    3905.7067    -45027.12    579.60346   0.96653305 
   53100    290.62565   -1213.4741    142436.42   -41171.154    3991.0435   -45162.197    579.78721   0.96777576 
   53200    290.72518   -1125.1059    142576.03   -40994.184    3992.4102   -44986.595    580.91893   0.96682815 
   53300    297.38916   -656.94433     142469.3   -41021.458    4083.9239   -45105.382    582.32587   0.96755242 
   53400    293.97477   -994.09712    142588.58   -40921.287    4037.0355   -44958.322    583.76836   0.96674306 
   53500    298.85831   -713.27748    142945.72   -40894.426    4104.0992   -44998.526    585.03483    0.9643277 
   53600     295.9024   -1006.0448    143043.96   -40873.453    4063.5068    -44936.96    586.24279   0.96366542 
   53700    291.02782   -951.24577    142903.92   -40929.962    3996.5663   -44926.528    587.38647   0.96460974 
   53800    288.91138    -1036.487    142985.91   -41024.659    3967.5021   -44992.161    588.86227   0.96405664 
   53900    288.87566   -721.25526    142669.39   -40993.468    3967.0115    -44960.48    588.57222   0.96619544 
   54000    293.84692     -943.167    142974.56   -40993.263    4035.2798   -45028.543    590.26558   0.96413317 
   54100    289.65473   -886.91556    143168.63   -40994.678    3977.7101   -44972.388    592.11653   0.96282626 
   54200    288.65716   -1037.7826    143209.09   -41013.268     3964.011   -44977.279     593.6317   0.96255421 
   54300    291.92853   -982.47035     143064.5   -40954.344    4008.9354   -44963.279    594.26241   0.96352708 
   54400    291.24187   -918.28974    143099.26   -41040.178    3999.5057   -45039.684    595.63955   0.96329302 
   54500    292.45169   -1018.1492    142807.13   -40999.229    4016.1197   -45015.349    597.06911   0.96526352 
   54600     290.5851   -1224.2538    142796.87    -41016.13    3990.4866   -45006.616    598.62381    0.9653329 
   54700    288.71672    -918.7802    142425.42   -40971.314    3964.8288   -44936.143    598.65921   0.96785055 
   54800     290.2834     -936.112    142872.03   -40961.934    3986.3435   -44948.277     601.1417    0.9648251 
   54900    293.66242   -1196.3034    142987.52   -40881.124    4032.7462    -44913.87     602.6261    0.9640458 
   55000    292.57317   -1290.3368    142687.03   -40843.573    4017.7879   -44861.361     602.4941   0.96607602 
   55100     293.5608   -954.87863    142704.45   -40820.545    4031.3507   -44851.896     604.7643   0.96595807 
   55200    291.10545   -914.34821     142655.3    -40916.91    3997.6324   -44914.543    605.37644    0.9662909 
   55300    301.66885   -1187.3297    142574.93   -40892.666    4142.6952   -45035.361    605.75065   0.96683561 
   55400      296.955   -952.34409    142782.89   -40830.065    4077.9618   -44908.027    608.73156   0.96542739 
   55500     293.6554   -825.78585    142912.24   -40881.876    4032.6498   -44914.525    610.20047   0.96455363 
   55600    295.11122   -1023.6892    142996.06   -40856.241     4052.642   -44908.883    612.18292    0.9639882 
   55700    296.50037   -989.54419    143251.63   -40882.229    4071.7185   -44953.947     613.8387   0.96226839 
   55800    293.22857   -819.46207    143090.53   -40976.445    4026.7883   -45003.234    614.82867   0.96335181 
   55900    286.50743   -1050.7818    143253.22   -41061.698    3934.4896   -44996.187    616.08041   0.96225773 
   56000    295.69763   -967.90712    143520.54    -41078.39    4060.6949   -45139.085     618.1928   0.96046541 
   56100    290.34478   -1199.2132     143421.5   -41052.145    3987.1864   -45039.331    618.89643   0.96112869 
   56200    296.48742   -925.26559    143122.29   -40998.391    4071.5407   -45069.932    618.94491     0.963138 
   56300    296.01471   -874.12338    143503.78   -40894.737    4065.0493   -44959.786    621.95358   0.96057762 
   56400    300.50429   -669.28307    143756.88   -40769.154    4126.7028   -44895.856    623.65425   0.95888637 
   56500    299.49671   -1148.0429    143555.28   -40863.622    4112.8661   -44976.488    624.36977   0.96023303 
   56600    297.99739   -977.68659    143456.06   -40799.947    4092.2765   -44892.224     625.5912   0.96089713 
   56700    294.46075   -715.54544     143068.2   -40854.427    4043.7093   -44898.136    625.82211   0.96350211 
   56800     294.9057   -944.39016    143289.55   -40800.506    4049.8196   -44850.326     626.8742   0.96201376 
   56900    299.49132   -906.82982    143116.26   -40865.958     4112.792    -44978.75    626.56206   0.96317855 
   57000    288.95806   -1092.8655    143189.97   -40972.602    3968.1431   -44940.745    628.43581   0.96268277 
   57100    288.37852   -1276.0054    142610.28   -41108.659    3960.1845   -45068.844    627.65704   0.96659595 
   57200    283.66604   -1014.0609    142628.58   -41139.635      3895.47   -45035.105    628.96422   0.96647193 
   57300    291.56445   -1130.7008    142450.35   -41073.418    4003.9356   -45077.354     629.4093   0.96768113 
   57400    290.57063   -748.12835    142485.26   -41109.263    3990.2879   -45099.551     631.0666   0.96744402 
   57500    290.85659    -908.8936    142483.56   -41025.288    3994.2149   -45019.503    632.68241   0.96745558 
   57600    285.97109   -891.42201    142488.22   -41102.219    3927.1243   -45029.343     633.2735   0.96742395 
   57700    293.28788   -1043.5251    142721.25   -41013.949    4027.6027   -45041.552     634.7638   0.96584436 
   57800    292.93922   -907.67633    142645.42   -40941.381    4022.8147   -44964.195     635.8022   0.96635784 
   57900     288.7237   -970.31292    142164.06     -41025.1    3964.9247   -44990.024    635.65185   0.96962983 
   58000    290.05051   -1078.9683    142112.12   -40999.287    3983.1453   -44982.432    636.33596   0.96998426 
   58100    294.44641   -952.63161    142187.22   -40919.682    4043.5123   -44963.195    637.88703    0.9694719 
   58200    288.67094   -1041.6623    142106.93   -40983.529    3964.2002   -44947.729    639.49894   0.97001968 
   58300    293.89716   -743.37344    142218.66   -40979.013    4035.9698   -45014.983    640.72664   0.96925761 
   58400    287.88052   -887.31191    142280.63    -40951.55    3953.3456   -44904.895    642.45068   0.96883547 
   58500    297.17152   -960.06444    142469.34   -40786.816    4080.9352   -44867.751    643.70177   0.96755217 
   58600    290.11904   -1021.4012    142575.68   -40884.496    3984.0864   -44868.582    645.90317   0.96683052 
   58700    289.48084   -964.61003    143084.44   -40840.993    3975.3223   -44816.316    648.30779   0.96339278 
   58800    298.84985   -1078.0038    142431.67   -40837.444     4103.983   -44941.427    647.14714   0.96780808 
   58900    287.80186   -878.97858     142483.4   -40799.508    3952.2655   -44751.774    647.46756   0.96745668 
   59000    293.28134   -923.64642    142471.32   -40843.787     4027.513     -44871.3    648.59063    0.9675387 
   59100    296.49547   -819.90629    142736.54   -40832.235    4071.6512   -44903.886    651.35014   0.96574088 
   59200    296.03925   -678.19956    142941.19   -40892.558    4065.3862   -44957.944    652.92329   0.96435827 
   59300    294.24264   -829.87248    143133.32   -40954.997    4040.7141   -44995.711    653.78712   0.96306376 
   59400    296.66421   -995.14164    143269.86   -40895.667    4073.9685   -44969.635    654.29342   0.96214596 
   59500    291.33182   -879.85441    143170.64   -40953.706     4000.741   -44954.447    655.20858   0.96281273 
   59600     299.2196    -1191.922    142964.69   -40855.035    4109.0607   -44964.096    655.39422   0.96419971 
   59700    301.52907   -1024.5473    143103.96   -40873.207    4140.7756   -45013.983    656.88987   0.96326135 
   59800    292.84062   -1097.4287    143005.36    -40900.81    4021.4607   -44922.271    657.81058   0.96392556 
   59900    294.78505   -848.00337    142719.22   -40932.952    4048.1628   -44981.115    658.97266   0.96585815 
   60000    293.55157   -1042.1142    142498.77   -40948.222    4031.2239   -44979.446    658.67982    0.9673523 
   60100    291.27239   -1034.0987    142741.94   -40995.945    3999.9249   -44995.869    660.51533   0.96570438 
   60200      291.509   -961.70196    142615.25   -41099.289    4003.1742   -45102.463    661.45992   0.96656228 
   60300    294.46331   -1042.3371    142531.56   -41043.319    4043.7445   -45087.063    662.51363   0.96712976 
   60400    286.32702   -896.04759    142253.66   -41021.334    3932.0122   -44953.346    662.40878   0.96901909 
   60500    290.78791   -1019.1201    142418.94   -41053.517    3993.2718   -45046.789     664.2916   0.96789452 
   60600    293.71375   -1006.1303    142668.37    -40988.78    4033.4511   -45022.231    665.74162   0.96620238 
   60700    289.31145   -957.12661    142665.51   -41021.347    3972.9961   -44994.343    666.75813   0.96622173 
   60800    291.48487    -869.7831    142802.49   -41009.355    4002.8428   -45012.198    668.03719   0.96529494 
   60900      296.087   -1062.3418    142935.68   -40939.095    4066.0419   -45005.137    669.82543   0.96439541 
   61000    291.96599   -784.86697    142710.48   -40900.397    4009.4498   -44909.847     669.8142   0.96591727 
   61100    296.77382   -1050.4917    142509.28   -40864.757    4075.4738   -44940.231    669.38866   0.96728096 
   61200    293.35398   -1133.1486    142492.19    -40942.41    4028.5105    -44970.92    669.80468     0.967397 
   61300    295.45012   -983.47782    142675.95   -40862.267    4057.2959   -44919.563     671.0269   0.96615101 
   61400    294.95525   -827.56099    142779.85   -40765.627    4050.5001   -44816.127    671.74718   0.96544797 
   61500    295.51503   -1052.6167    142904.01   -40748.588    4058.1873   -44806.775     673.9385   0.96460917 
   61600    298.65366    -936.9933    142784.48   -40842.459    4101.2889   -44943.748    675.88999   0.96541666 
   61700    299.13412   -998.86859    142603.71   -40863.382    4107.8868   -44971.269    676.66456    0.9666405 
   61800    296.55449   -1160.7446     142494.6   -40923.286    4072.4618   -44995.748    677.89351    0.9673806 
   61900    293.13527   -639.40662    142635.85    -40839.63     4025.507   -44865.137    679.93458   0.96642264 
   62000    295.50508    -1132.835    142619.51   -40913.153    4058.0506   -44971.204    681.14978   0.96653339 
   62100    291.63441   -1246.3654    142680.59   -40897.335    4004.8963   -44902.232    682.25078   0.96611958 
   62200    298.42579    -1060.284    142604.49   -40932.656    4098.1595   -45030.815    683.47423   0.96663515 
   62300    292.30514   -932.71142    142603.77   -41003.181    4014.1072   -45017.288    684.27879   0.96664008 
   62400     295.3224   -863.54838    142545.56    -41023.27     4055.542   -45078.812    685.20656   0.96703482 
   62500    296.44655   -1154.6054    142798.82   -40968.277    4070.9794   -45039.257    687.10158    0.9653197 
   62600    293.93538   -930.05508    142958.95   -40925.713    4036.4946   -44962.207    688.38511   0.96423846 
   62700    289.48527   -745.27905    142899.88   -40959.155    3975.3831   -44934.538    690.23261   0.96463705 
   62800    292.53783   -937.28461    142904.79     -41002.8    4017.3026   -45020.103    691.31706   0.96460389 
   62900    293.33383   -861.20753    142799.42   -40987.499    4028.2338   -45015.733    693.63353   0.96531569 
   63000    291.59932   -1006.7914    142514.42   -40962.421    4004.4144   -44966.836    693.67316    0.9672461 
   63100    293.42802   -1039.5077    142353.62   -40946.396    4029.5273   -44975.924     693.5037   0.96833867 
   63200    293.66086   -962.61919    142476.26   -40964.798    4032.7248   -44997.522    694.89213   0.96750518 
   63300    289.13539    -1012.715    142484.23   -41057.043    3970.5784   -45027.622    695.48153   0.96745101 
   63400    289.16016   -1175.3375    142478.76   -41095.714    3970.9185   -45066.633    696.11934   0.96748819 
   63500    289.39227   -813.25407     142264.7   -40967.289    3974.1059   -44941.395     695.8147   0.96894391 
   63600    289.86802   -877.02674    142549.44   -40918.261    3980.6393     -44898.9    697.01064   0.96700846 
   63700     297.2474   -713.61848    142679.96   -41025.938    4081.9772   -45107.916    698.51697    0.9661239 
   63800    294.80061   -1287.2193    142678.35   -41025.637    4048.3764   -45074.014     699.7098   0.96613476 
   63900    291.93982   -1142.8178    142580.01   -40990.152    4009.0904   -44999.242     701.3575   0.96680112 
   64000    291.22751   -897.84114    142675.11   -41083.175    3999.3085   -45082.484    703.19237    0.9661567 
   64100    290.77687   -879.36034    143152.67   -41055.983    3993.1201   -45049.103    706.19871   0.96293362 
   64200    291.14282   -968.40133    143527.13   -41079.628    3998.1456   -45077.773    708.54448   0.96042136 
   64300    287.99908   -990.12957    143113.08   -41118.369    3954.9739   -45073.343    707.16751       0.9632 
   64400    292.11998   -1037.4236    143160.81   -41146.921    4011.5644   -45158.485    709.14405   0.96287885 
   64500     287.5765   -1047.6339    143071.66   -41187.871    3949.1707   -45137.042    709.97441   0.96347884 
   64600    293.42801     -1172.22    143094.85   -41116.209    4029.5271   -45145.736     710.8459   0.96332266 
   64700    289.52026   -821.12427    143254.27   -41065.868    3975.8635   -45041.731    713.01034   0.96225067 
   64800    295.50771   -1012.9951    143113.11   -40928.714    4058.0868   -44986.801    712.92094   0.96319977 
   64900    292.10001   -1158.7872    142867.85    -40935.56    4011.2902    -44946.85    713.34992   0.96485331 
   65000    297.57155   -1110.1374    142696.21   -41006.206    4086.4286   -45092.634    714.28151   0.96601384 
   65100    288.34831   -964.44986     142672.9   -41066.568    3959.7697   -45026.338    715.24709   0.96617166 
   65200    293.65075   -1157.8401    142774.89   -41005.489    4032.5859   -45038.075    716.06238   0.96548151 
   65300    287.52756   -1096.2134    142370.92    -41028.98    3948.4986   -44977.479    715.89345   0.96822099 
   65400    288.49908   -885.84396    142379.52   -41102.802    3961.8401   -45064.642    717.08422   0.96816252 
   65500    294.02373   -1019.6305     142399.3   -40988.871    4037.7079   -45026.579    718.69551   0.96802805 
   65600    298.94385   -761.57653    142995.45   -40832.729     4105.274   -44938.003    721.43281   0.96399233 
   65700    300.28033   -1171.0199    143110.02    -40860.18    4123.6272   -44983.807    723.47669    0.9632206 
   65800    294.70428   -1189.9354    143077.42   -40916.018    4047.0536   -44963.072    724.48508   0.96344004 
   65900    293.74567    -935.4992    143120.45   -40950.347    4033.8895   -44984.236    725.57629    0.9631504 
   66000    296.06882   -1210.4079    142787.71   -40955.513    4065.7922   -45021.305    726.01048   0.96539484 
   66100    289.42737   -911.13414    142415.69   -40939.359     3974.588   -44913.947    726.08223   0.96791667 
   66200    297.60399   -1021.8917    142840.51   -40831.277    4086.8742   -44918.151    728.12936   0.96503799 
[...]
   84600    291.10601   -1127.0694    142926.58   -41076.348    3997.6401   -45073.988    925.62428   0.96445681 
   84700    291.38149   -814.61489    142610.42   -41100.801    4001.4231   -45102.224    925.58956   0.96659497 
   84800    296.76237   -1090.3873    142606.45   -41028.337    4075.3165   -45103.653    926.27608   0.96662188 
   84900    296.00078   -1217.8242    142413.38   -41041.859    4064.8579   -45106.717    927.07835   0.96793236 
   85000    290.15508   -892.09078    142706.82   -41061.682    3984.5812   -45046.264    928.76218   0.96594204 
   85100     289.5955   -961.02747    142724.15   -41050.321    3976.8968   -45027.218    930.30903   0.96582477 
   85200    295.31627    -916.8238    142878.95   -40985.036    4055.4578   -45040.494    931.24662   0.96477835 
   85300    288.58868   -720.75663    143017.74   -40966.463    3963.0706   -44929.533    932.53952    0.9638421 
   85400    295.22761    -1133.942    143055.52   -40947.074    4054.2403   -45001.314    933.78147   0.96358752 
   85500    291.83802   -1137.5459    142943.18   -40921.618    4007.6924    -44929.31    934.72139   0.96434483 
   85600    297.60928   -869.47409    142660.36   -40937.958    4086.9468   -45024.905    934.23483   0.96625662 
   85700      295.234     -809.391    142702.67   -40956.549     4054.328   -45010.877    936.50411   0.96597015 
   85800    294.01298    -742.5072     142792.1   -40908.983    4037.5602   -44946.544    937.54599   0.96536516 
   85900     289.1378   -1147.6399    142691.97   -40947.596    3970.6114   -44918.207     937.5143   0.96604258 
   86000    290.93376   -1019.0723    142666.84   -41017.172    3995.2746   -45012.446    939.22389   0.96621274 
   86100    294.30117   -1342.4852    142467.13   -40946.928    4041.5179   -44988.446    939.37132   0.96756715 
   86200    292.24907   -1088.2592    142412.34   -40985.519    4013.3372   -44998.857    941.33088   0.96793942 
   86300    286.41321   -885.52041    142546.33   -40985.715    3933.1958   -44918.911    942.41654   0.96702955 
   86400    294.75479   -1109.5204    142811.99   -40979.427    4047.7472   -45027.175    945.67072   0.96523073 
   86500    294.81305   -852.87897    142569.13   -40934.139    4048.5473   -44982.686    945.63593   0.96687496 
   86600     291.0426   -906.62637       142576   -40946.328    3996.7693   -44943.097    946.99483   0.96682833 
   86700    291.64034   -965.55272    142702.11   -40964.879    4004.9778   -44969.857    948.88868   0.96597392 
   86800    294.38449   -945.46748    142919.46   -40884.569    4042.6621   -44927.231    951.23978   0.96450486 
   86900    294.57176   -1190.6437    143013.32   -40917.515    4045.2337   -44962.748     952.1526   0.96387187 
   87000    292.39487   -1069.9841    142804.97   -40938.077    4015.3394   -44953.416    952.54691   0.96527812 
   87100    294.00216   -991.08886    142698.11   -40970.459    4037.4116   -45007.871    952.48729   0.96600101 
   87200    293.07142   -951.95522    142846.57   -40944.364    4024.6302   -44968.994    953.75336   0.96499707 
   87300     293.8349   -929.12726     143168.2   -40818.498    4035.1148   -44853.613    956.10669   0.96282917 
   87400    294.70977   -943.28619    143362.78   -40884.461    4047.1291    -44931.59     958.8388   0.96152233 
   87500    292.45661   -992.88095    143507.23   -40933.253    4016.1873    -44949.44    960.76993   0.96055453 
   87600    290.13146    -933.8389    143391.59   -40926.512    3984.2569   -44910.769    961.16231   0.96132917 
   87700    293.69848   -960.41856    143411.12   -40904.603    4033.2413   -44937.844    961.68907   0.96119823 
   87800    295.54783   -831.96501    143432.26   -40815.147    4058.6378   -44873.784    962.33057    0.9610566 
   87900    292.82255   -768.12949    143801.33   -40810.873    4021.2125   -44832.086    964.90942   0.95859003 
   88000    293.41336   -1187.2636    144033.04   -40842.233     4029.326   -44871.558    965.30938   0.95704791 
   88100    293.99119   -1052.1782    143939.26   -40867.082     4037.261   -44904.343    965.37633    0.9576714 
   88200    298.49226   -1209.4893    143681.25   -40812.532    4099.0724   -44911.605    964.81684   0.95939115 
   88300    299.23813   -913.37085    143410.63   -40862.034    4109.3151   -44971.349    965.34927   0.96120151 
   88400    296.42909   -956.24806    143335.11    -40910.18    4070.7397   -44980.919    966.78062   0.96170794 
   88500    291.19325   -1238.3257    143266.35   -40956.768     3998.838   -44955.606    967.36074   0.96216956 
   88600    293.76047   -1162.6156    143195.15   -40927.494    4034.0926   -44961.586    968.30543   0.96264795 
   88700    296.72182   -907.32793    142935.42   -40936.297    4074.7597   -45011.057    968.40959   0.96439721 
   88800    293.15258   -858.45317    143258.46   -40911.431    4025.7447   -44937.176    970.11389   0.96222255 
   88900    294.05453   -1242.5877    142891.06   -40968.288    4038.1308   -45006.419    969.38913   0.96469657 
   89000    294.39371   -1060.6054     142712.9   -40884.917    4042.7887   -44927.706    968.86126   0.96590086 
   89100    299.31906    -1039.023     142845.3   -40820.072    4110.4265   -44930.499     970.0652    0.9650056 
   89200    288.32336   -1233.0877    142693.13   -40968.984    3959.4271   -44928.411    970.09325    0.9660347 
   89300    295.43397   -1088.7168     142615.9   -40931.444    4057.0741   -44988.519    969.80657   0.96655784 
   89400    295.11011    -1125.869    142837.42    -40900.16    4052.6267   -44952.787    971.17792   0.96505884 
   89500     287.3723    -859.7957    142762.52   -40979.066    3946.3666   -44925.433    971.68829   0.96556518 
   89600    285.87718   -1196.9472    142749.26   -40883.716    3925.8346   -44809.551    974.26266   0.96565484 
   89700    294.50136    -993.8754    142842.59   -40886.429     4044.267   -44930.696    974.94687   0.96502395 
   89800    293.27167   -975.38641    142932.23   -40912.042    4027.3801   -44939.422    977.19518   0.96441869 
   89900     290.8623   -1130.9598    142838.33    -40923.36    3994.2932   -44917.653    977.80571   0.96505273 
   90000    296.81056   -803.51367    142665.21   -40901.358    4075.9782   -44977.337    978.00543   0.96622374 
   90100    295.52166   -940.63869    142617.51   -40870.313    4058.2783   -44928.591    978.84356   0.96654693 
   90200    284.13269   -999.11382    142591.32   -41024.769    3901.8783   -44926.648    980.14514   0.96672446 
   90300    288.36255   -930.06623    142732.93   -40990.401    3959.9653   -44950.366    981.11529   0.96576533 
   90400     298.9079   -1128.8258     142751.5   -40916.532    4104.7803   -45021.312    982.42203   0.96563972 
   90500    297.68411   -1172.3071    142471.15   -40899.163    4087.9745   -44987.138    982.54178   0.96753984 
   90600    295.77647   -880.66549    142049.54   -40880.953    4061.7775    -44942.73    981.19632   0.97041154 
   90700    299.03285   -848.37711    142318.72   -40915.537    4106.4961   -45022.034    983.31702   0.96857617 
   90800    294.42251   -918.49403     142745.7   -40901.613    4043.1842   -44944.797    986.39924   0.96567897 
   90900    292.00318   -562.43379     143389.9   -41007.665    4009.9606   -45017.625    991.10848   0.96134049 
   91000    293.77673   -1045.5652    143766.12   -40954.424    4034.3159    -44988.74    993.80573   0.95882479 
   91100    293.30351   -1286.1242    143515.62   -40940.359    4027.8175   -44968.177    993.06977   0.96049833 
   91200    290.38653   -1259.8341    143431.49   -40956.803    3987.7597   -44944.562    993.17531   0.96106171 
   91300    291.58408   -1005.1306    143069.45   -41009.277    4004.2052   -45013.482    992.08388   0.96349373 
   91400     286.3275   -838.92265    142941.54   -40986.244    3932.0188   -44918.263    992.85822   0.96435591 
   91500    296.27783   -987.18167    143041.92   -40982.401    4068.6626   -45051.064    993.97985   0.96367916 
   91600     290.6389   -1074.8104     143046.9    -40965.71    3991.2253   -44956.936    995.30205   0.96364563 
   91700    290.26626   -1272.8651    143036.91   -41065.142    3986.1081    -45051.25    996.60675   0.96371289 
   91800    294.03735   -1109.7433    142815.09   -41084.956    4037.8949   -45122.851    996.49694   0.96520977 
   91900    290.42388   -918.95757    143003.07   -41041.173    3988.2726   -45029.445    997.95493   0.96394099 
   92000    296.67393   -904.84899    143347.46   -40914.531     4074.102   -44988.633    999.49714   0.96162513 
   92100    294.45953   -856.70149    143535.26   -40850.174    4043.6926   -44893.867    1001.5291   0.96036694 
   92200    294.21752   -1301.2927    143500.37   -40821.019    4040.3691   -44861.389    1003.0342   0.96060045 
   92300    299.08205   -1002.7738    143316.17     -40859.6    4107.1717   -44966.771    1004.0414   0.96183505 
   92400    299.29745   -820.12622    143228.91   -40864.075    4110.1298   -44974.205    1004.3056   0.96242104 
   92500    292.20197   -992.73339    143202.02   -40815.313    4012.6904   -44828.003    1005.1925   0.96260174 
   92600    298.14318    -990.9699    143187.64   -40812.145    4094.2786   -44906.423    1006.5805   0.96269843 
   92700    294.23882   -1099.6284    143242.37   -40892.222    4040.6617   -44932.884    1007.0512   0.96233057 
   92800      295.099   -1136.4766    143036.69   -40960.791    4052.4741   -45013.265    1008.5981   0.96371439 
   92900    293.91364   -1129.0382    142855.08   -40898.774    4036.1961    -44934.97    1009.3364   0.96493956 
   93000    292.07763   -1083.2345    142795.82   -40883.954    4010.9829   -44894.936    1009.6509   0.96533999 
   93100    288.31353   -1060.4099    142852.04   -40896.775     3959.292   -44856.067    1011.6777    0.9649601 
   93200    294.05416   -1096.9363    142882.32   -40842.322    4038.1257   -44880.447    1012.5596    0.9647556 
   93300    292.96615    -1085.937    142614.68   -40797.147    4023.1846   -44820.332    1012.5581   0.96656613 
   93400    289.51736   -1024.8286    142556.52   -40890.337    3975.8238   -44866.161    1013.7095   0.96696042 
   93500    291.71636   -1070.0163    142323.45   -40873.015    4006.0217   -44879.036    1011.9015   0.96854392 
   93600    294.62729   -1231.9113    142124.16   -40940.811    4045.9964   -44986.808     1011.979   0.96990207 
   93700    293.62326   -1161.5971    142192.51   -40905.999    4032.2084   -44938.208    1014.4494   0.96943587 
   93800    293.19639   -762.58932    142309.52   -40805.563    4026.3464   -44831.909    1015.8408   0.96863873 
   93900    295.02371   -867.40587    142441.17   -40901.396    4051.4403   -44952.836    1017.2662   0.96774348 
   94000    290.81815   -1096.2793    142499.22   -40958.045     3993.687   -44951.732     1018.133   0.96734927 
   94100    295.06232   -1046.4076    142401.86   -40960.785    4051.9705   -45012.755    1017.3622   0.96801067 
   94200    296.04482   -971.27646    142531.86   -41016.001    4065.4627   -45081.464    1019.0513   0.96712773 
   94300    294.53893   -778.07689    142817.79   -40986.508    4044.7829   -45031.291    1021.5034   0.96519152 
   94400    291.23312   -1300.5885    142928.99   -41012.722    3999.3856   -45012.108    1023.2649   0.96444054 
   94500    291.02571   -946.97786    142975.94    -41060.13    3996.5372   -45056.667    1024.0421   0.96412384 
   94600    282.60901   -1073.8179    142901.51   -41120.608    3880.9542   -45001.562    1024.3586   0.96462604 
   94700     295.2267    -895.0274    143122.87   -40951.282    4054.2277    -45005.51    1026.6828    0.9631341 
   94800    295.74443   -1036.8768    142913.94   -40951.761    4061.3376   -45013.098    1026.9552   0.96454214 
   94900    292.25819   -1104.2675    143115.81   -40956.464    4013.4625   -44969.926     1029.213   0.96318161 
   95000    295.75348   -995.09533    143274.78   -40932.349    4061.4618   -44993.811    1030.4756   0.96211292 
   95100    299.34156   -959.82947    142851.75   -40870.894    4110.7355    -44981.63    1028.0134   0.96496206 
   95200    291.78115   -952.71173    142585.73    -40961.11    4006.9115   -44968.022    1027.4917   0.96676235 
   95300    294.60734   -972.82531    142729.83   -40950.023    4045.7224   -44995.745    1028.7388   0.96578631 
   95400    294.39845   -982.49573     142950.4   -40965.369    4042.8538   -45008.223    1029.4801   0.96429615 
   95500    292.45883   -886.66232    143107.77   -40953.408    4016.2177   -44969.626    1032.0077   0.96323573 
   95600    293.63984   -1139.5152    143094.42   -41028.748    4032.4362   -45061.184    1032.2354   0.96332557 
   95700    292.24937   -1153.1111    142811.21   -40950.037    4013.3414   -44963.379    1031.6334   0.96523595 
   95800    295.67256    -1045.252    142830.24   -40912.631    4060.3506   -44972.982    1031.9304   0.96510734 
   95900    292.21221   -956.74376    142853.27   -40912.849     4012.831    -44925.68    1032.0519   0.96495174 
   96000    296.22065   -1123.2496    143094.45   -40876.836    4067.8772   -44944.713    1034.3981    0.9633254 
   96100    296.44349   -1137.2674    142931.86   -40893.599    4070.9375   -44964.536    1034.6203   0.96442124 
   96200    295.55705   -838.07819    143165.68   -40918.886    4058.7643    -44977.65     1037.352   0.96284612 
   96300    292.09358    -1077.656    143191.59   -40966.886    4011.2019   -44978.088    1038.2946   0.96267189 
   96400    292.86343   -990.26792    143414.65   -40949.402    4021.7739   -44971.176    1039.7978   0.96117456 
   96500    292.83429   -1027.9591    143300.15   -40897.328    4021.3738   -44918.702    1040.6074   0.96194257 
   96600    295.93713   -1063.5744    143310.18   -40828.855    4063.9838   -44892.839    1041.5052   0.96187528 
   96700    293.49929   -930.19885    143163.66   -40769.105     4030.506   -44799.611    1041.6816   0.96285972 
   96800    296.11866   -798.62535    143206.73   -40741.869    4066.4767   -44808.346    1043.7184   0.96257007 
   96900    295.67294   -932.83272    143016.82   -40827.435    4060.3559   -44887.791    1043.1873   0.96384831 
   97000    293.57808   -825.84238    143339.44   -40806.042    4031.5879    -44837.63    1044.8674   0.96167892 
   97100    295.26073   -853.54873    143359.81   -40895.795    4054.6951    -44950.49    1047.3958    0.9615423 
   97200     293.9917   -1337.9969    143337.57   -40877.606     4037.268   -44914.874    1048.7757   0.96169145 
   97300    290.94919   -1059.5033    143051.75   -40918.806    3995.4865   -44914.292    1048.8252   0.96361294 
   97400    294.81069   -960.46612     142903.9   -40906.554    4048.5149   -44955.068    1048.5787   0.96460989 
   97500     295.3625   -954.35471    142905.67   -40904.432    4056.0927   -44960.525    1049.9113   0.96459797 
   97600    297.83337   -1155.5512    142820.37   -40935.226    4090.0242    -45025.25    1051.1065   0.96517409 
   97700    289.75124   -1105.2733    142814.64   -40915.246    3979.0355   -44894.282    1053.0956   0.96521281 
   97800    296.93206   -1322.3989     142671.7   -40922.114    4077.6468   -44999.761    1053.4546    0.9661798 
   97900    294.32553   -1072.1099    142606.75    -40847.41    4041.8524   -44889.262    1053.2975   0.96661986 
   98000    289.17188   -929.19605    142717.49   -40835.629    3971.0794   -44806.708    1055.0217   0.96586983 
   98100    291.14278   -919.31656    142772.89   -40877.027     3998.145   -44875.171    1056.6111   0.96549504 
   98200    294.36814   -787.04734    142969.16   -40826.251    4042.4375   -44868.689     1059.552   0.96416958 
   98300    302.02033   -1108.5307    143363.89   -40780.184    4147.5219   -44927.706    1062.5062   0.96151491 
   98400    292.51637   -1002.7101    143290.26   -40856.629     4017.008   -44873.637    1063.4678   0.96200901 
   98500    296.72808   -1012.3242     143077.9   -40789.673    4074.8456   -44864.518    1063.9498    0.9634368 
   98600    295.05971   -1276.3549    142829.09   -40858.179    4051.9346   -44910.113     1063.087   0.96511514 
   98700    296.62851   -1037.3325    142567.52   -40816.847    4073.4783   -44890.325    1062.1797   0.96688586 
   98800    296.71161   -855.07162     142722.3   -40856.183    4074.6195   -44930.802    1064.1399   0.96583728 
   98900    296.06889   -930.00661    142819.59   -40836.699    4065.7933   -44902.492    1065.0474   0.96517931 
   99000    291.90884   -877.45423    142743.93   -40785.752     4008.665   -44794.417    1066.1249   0.96569092 
   99100    296.89879   -980.96604    143022.77   -40786.126      4077.19   -44863.316    1068.2881    0.9638082 
   99200    294.88361   -1241.9442    142617.61   -40859.855    4049.5162   -44909.371    1067.5482   0.96654628 
   99300    295.24124   -1216.2148    142370.58   -40869.001    4054.4275   -44923.428    1066.5851   0.96822334 
   99400    296.61538   -896.08807     142291.8   -40825.046    4073.2979   -44898.344    1068.0142   0.96875936 
   99500    298.34731   -801.17016    142578.21   -40840.729    4097.0819   -44937.811    1070.8251   0.96681336 
   99600     294.1845   -990.62688    142890.95   -40953.861    4039.9157   -44993.776    1073.7783   0.96469729 
   99700    293.62118   -1000.6802     142783.7   -40881.556    4032.1799   -44913.736     1073.697   0.96542195 
   99800    294.19717   -1064.9908    142740.62   -40874.051    4040.0897    -44914.14    1073.2032   0.96571331 
   99900    294.91628   -1099.1612    142280.12   -40808.321    4049.9649   -44858.286     1072.738   0.96883892 
  100000    291.01607   -899.57584     142270.7   -40822.547    3996.4049   -44818.952    1073.6682   0.96890308 
  100100      297.498   -1197.5659    141996.86   -40860.102    4085.4186    -44945.52    1073.1352   0.97077161 
  100200    296.50911   -995.90358    142341.95   -40823.279    4071.8386   -44895.118    1075.9515   0.96841807 
  100300    296.77627   -996.65763    142815.33   -40881.296    4075.5074   -44956.804    1079.0808   0.96520813 
  100400    298.05619   -1138.3122    142441.12   -40928.352     4093.084   -45021.436    1078.5717   0.96774387 
  100500    292.19765   -1048.1299    142331.37   -41027.896     4012.631   -45040.527    1079.7435   0.96849004 
  100600    294.03647   -1195.0412    142381.61   -41034.329    4037.8828   -45072.211    1082.3443   0.96814829 
  100659    292.05686   -988.84123    142323.42    -40984.57    4010.6977   -44995.268    1083.7846   0.96854415 
Loop time of 112.199 on 6 procs for 100000 steps with 4608 atoms

Performance: 385.031 ns/day, 0.062 hours/ns, 891.274 timesteps/s
99.0% CPU use with 6 MPI tasks x no OpenMP threads

MPI task timing breakdown:
Section |  min time  |  avg time  |  max time  |%varavg| %total
---------------------------------------------------------------
Pair    | 92.822     | 93.939     | 94.976     |   7.8 | 83.73
Neigh   | 7.0571     | 7.1132     | 7.1874     |   1.8 |  6.34
Comm    | 7.3216     | 8.3491     | 9.3935     |  26.3 |  7.44
Output  | 0.18322    | 0.18444    | 0.19017    |   0.6 |  0.16
Modify  | 1.8929     | 1.9553     | 2.0238     |   2.8 |  1.74
Other   |            | 0.6583     |            |       |  0.59

Nlocal:        768.000 ave         779 max         754 min
Histogram: 1 0 0 1 0 1 1 0 1 1
Nghost:        1540.67 ave        1558 max        1524 min
Histogram: 2 0 0 0 1 1 0 0 1 1
Neighs:        0.00000 ave           0 max           0 min
Histogram: 6 0 0 0 0 0 0 0 0 0
FullNghs:      21615.7 ave       21902 max       21124 min
Histogram: 1 0 0 1 0 0 1 1 0 2

Total # of neighbors = 129694
Ave neighs/atom = 28.145399
Neighbor list builds = 7082
Dangerous builds = 0

undump              1
unfix               2
unfix               3
unfix               4


################################################
#######         Run Simulation         #########
################################################

reset_timestep      0
log                 log.run_${NAME}
log                 log.run_liq_294K_-1000atm_ML
