
# Set production fixes - Nose/Hoover
#
fix                 2 all nph iso ${PRES} ${PRES} ${PCOUPL}
fix                 2 all nph iso -1000 ${PRES} ${PCOUPL}
fix                 2 all nph iso -1000 -1000 ${PCOUPL}
fix                 2 all nph iso -1000 -1000 10000.0
fix                 3 all temp/csvr ${TEMP} ${TEMP} ${TCOUPL} 837492
fix                 3 all temp/csvr 294 ${TEMP} ${TCOUPL} 837492
fix                 3 all temp/csvr 294 294 ${TCOUPL} 837492
fix                 3 all temp/csvr 294 294 5000.0 837492

# Define Order parameter
#
compute             2 all orientorder/atom nnn NULL cutoff 3.5
thermo              200
thermo_style        custom step temp press vol etotal ke pe c_1[4]

# Run 1ns simulation
dump		    1 all custom 400 prod.${NAME}.dump id type x y z vx vy vz c_2[*]
dump		    1 all custom 400 prod.ice_294K_-1000atm_ML.dump id type x y z vx vy vz c_2[*]
run                 200000
Neighbor list info ...
  update every 1 steps, delay 0 steps, check yes
  max neighbors/atom: 2000, page size: 100000
  master list distance cutoff = 6.0032907
  ghost atom cutoff = 6.0032907
  binsize = 3.0016454, bins = 20 18 18
  2 neighbor lists, perpetual/occasional/extra = 1 1 0
  (1) pair sw, perpetual
      attributes: full, newton on
      pair build: full/bin/atomonly
      stencil: full/bin/3d
      bin: standard
  (2) compute orientorder/atom, occasional, copy from (1)
      attributes: full, newton on
      pair build: copy
      stencil: none
      bin: none
Per MPI rank memory allocation (min/avg/max) = 5.821 | 5.822 | 5.822 Mbytes
Step Temp Press Volume TotEng KinEng PotEng c_1[4] 
       0    293.77939   -1008.3834    149918.77    -47435.72    4034.3525   -51470.073   0.15625803 
     200    291.08569   -999.10308    149920.85   -47425.316     3997.361   -51422.677   0.15436186 
     400    295.80861   -958.09601     149927.6    -47420.96    4062.2189   -51483.179   0.15804696 
     600    289.97304   -986.55852    149947.82   -47458.731    3982.0814   -51440.812    0.1586628 
     800    294.92658   -989.15511    149929.83   -47475.716    4050.1063   -51525.823   0.15543642 
    1000    294.60099   -960.72207    149893.24   -47490.163    4045.6352   -51535.798   0.16162585 
    1200     290.4858   -978.50843    149908.46   -47515.141    3989.1229   -51504.264   0.16141913 
    1400    289.44517   -1025.3538    149938.81   -47505.327    3974.8324   -51480.159   0.16043277 
    1600     285.0677   -1014.3915    149943.77   -47508.853    3914.7185   -51423.572   0.15690796 
    1800    289.19504   -1023.4592     149945.7   -47515.103    3971.3974   -51486.501   0.15842885 
    2000    292.60131   -984.96557    149904.71   -47470.192    4018.1743   -51488.366   0.15533831 
    2200    299.11159   -962.75491    149909.56   -47439.099    4107.5774   -51546.676   0.14912885 
    2400    295.78087   -1024.3509    150020.85   -47456.383     4061.838   -51518.221   0.15335199 
    2600    286.24148   -1065.7854    149995.27   -47501.363    3930.8375     -51432.2   0.15860671 
    2800    290.44774    -923.1046       149835   -47521.204    3988.6002   -51509.804    0.1520266 
    3000    290.89306    -991.4499    149876.51    -47533.68    3994.7157   -51528.396   0.15625688 
    3200    288.81451   -1068.0237    150064.42   -47475.947    3966.1719   -51442.119   0.16787237 
    3400    291.07407   -1071.0172    150053.26   -47515.776    3997.2014   -51512.978   0.15768037 
    3600    289.96648   -917.71583    149785.36   -47549.976    3981.9914   -51531.967   0.15175093 
    3800    289.30695   -892.67051    149815.86    -47474.81    3972.9343   -51447.744   0.15000122 
    4000    297.40482   -1136.6936    150141.76   -47465.396     4084.139   -51549.535   0.15303482 
    4200    288.43897   -1109.1538    150085.43   -47482.159    3961.0146   -51443.174   0.16001662 
    4400    295.71497   -820.88313    149727.16   -47474.628     4060.933   -51535.561    0.1503212 
    4600    291.47517   -904.88778    149817.95    -47452.47    4002.7095    -51455.18   0.15838876 
    4800    295.59568   -1166.3624     150186.2   -47437.593    4059.2948   -51496.888   0.15737381 
    5000    291.51549   -1096.0839    150064.18   -47417.158    4003.2633   -51420.422   0.16472405 
    5200    288.90905   -841.03763     149690.5   -47424.924    3967.4701   -51392.394   0.16463134 
    5400    294.28724   -909.02317    149862.05   -47383.758    4041.3266   -51425.085    0.1613439 
    5600    296.99389     -1213.24       150279   -47361.392    4078.4959   -51439.888   0.16545899 
    5800    296.73289   -1023.4814     150057.3   -47353.765    4074.9117   -51428.677   0.15807396 
    6000    295.84307   -814.14168    149657.54   -47345.651    4062.6921   -51408.343   0.15613455 
    6200     298.9869     -984.714    149929.05   -47335.891    4105.8651   -51441.756   0.15949641 
    6400    299.75779   -1186.8654    150301.48   -47297.435    4116.4514   -51413.886   0.16404474 
    6600    293.24641   -1040.6302    150018.07   -47341.982    4027.0333   -51369.015   0.16392109 
    6800    296.00043   -738.18467    149652.31   -47386.958    4064.8531   -51451.811   0.15672122 
    7000    296.92197   -964.98873    149938.74   -47387.383    4077.5083   -51464.891   0.15691952 
    7200    298.51635   -1244.9471    150294.86   -47328.531    4099.4032   -51427.934   0.16529204 
    7400    298.67273   -982.09064    149964.41   -47317.744    4101.5507   -51419.294   0.15128591 
    7600    294.33868   -786.96143    149640.37   -47357.337     4042.033    -51399.37   0.15594737 
    7800    296.49139   -1054.8473    150012.69   -47381.363    4071.5953   -51452.959   0.16084332 
    8000    295.21185   -1251.3657    150293.98   -47341.359    4054.0238   -51395.383   0.15620399 
    8200    294.81264   -940.38242     149825.7   -47385.881    4048.5416   -51434.423   0.15960551 
    8400    293.70442   -730.14048    149574.48    -47415.22     4033.323   -51448.543   0.15526343 
    8600    296.89711   -1116.8322    150070.36   -47366.805    4077.1668   -51443.972   0.16312125 
    8800    293.22806   -1267.6995    150317.49   -47291.097    4026.7813   -51317.879   0.16928208 
    9000    301.32271   -872.82583    149832.85   -47277.104    4137.9418   -51415.046   0.15771194 
    9200     292.0655   -803.17392    149667.02   -47264.458    4010.8163   -51275.274   0.16510557 
    9400    296.34673   -1163.1273    150228.22   -47309.206    4069.6088   -51378.815   0.16108091 
    9600    298.77216   -1216.3756    150335.15   -47295.356    4102.9162   -51398.272   0.16193493 
    9800    292.99528   -782.16749    149731.29   -47321.864    4023.5846   -51345.449    0.1621603 
   10000    299.78208   -761.08898    149689.38   -47320.153    4116.7849   -51436.938   0.15997592 
   10200    296.92364    -1233.865    150334.85   -47302.551    4077.5312   -51380.082   0.16321545 
   10400    298.14856   -1186.8028    150279.71   -47289.586    4094.3525   -51383.938   0.16197144 
   10600    296.84159   -736.33117    149642.64   -47279.977    4076.4045   -51356.381   0.16000511 
   10800    300.04304   -833.20169    149774.85    -47312.25    4120.3686   -51432.619   0.15986014 
   11000    296.90696   -1297.5787    150378.71    -47345.14    4077.3022   -51422.442   0.16456512 
   11200      295.343   -1120.2607    150112.48   -47365.267    4055.8248   -51421.091   0.15931561 
   11400    294.60284   -615.22234    149484.62   -47400.033    4045.6606   -51445.694   0.15416197 
   11600    297.63346   -921.75466    149845.96   -47368.589    4087.2789   -51455.868   0.15732593 
   11800    294.18837   -1315.0502    150418.12   -47432.913    4039.9688   -51472.882   0.16410995 
   12000    289.44667   -1062.6078    149952.99    -47439.72     3974.853   -51414.573   0.16256328 
   12200     288.8036   -693.21834    149448.29   -47424.401    3966.0219   -51390.423   0.16083486 
   12400    291.82933   -1043.8102    149955.33   -47386.177     4007.573   -51393.751   0.16273286 
   12600    293.54689   -1326.2092    150357.11    -47390.38    4031.1597    -51421.54    0.1602902 
   12800    299.07185   -956.83856    149835.69   -47409.085    4107.0317   -51516.117   0.15886777 
   13000    295.19621   -681.76353    149525.22   -47393.021    4053.8091    -51446.83     0.153223 
   13200    299.18931   -1101.9687    150065.32   -47358.103    4108.6447   -51466.747   0.16177792 
   13400    296.59765   -1273.4841     150265.4   -47373.265    4073.0545   -51446.319   0.17018127 
   13600    292.35019   -939.69892    149765.07   -47369.853    4014.7258   -51384.579   0.16912471 
   13800    297.07641   -799.33126    149659.86   -47367.004    4079.6291   -51446.633   0.16037277 
   14000    296.36992   -1111.8266    150121.71    -47381.05    4069.9272   -51450.977   0.16008276 
   14200    293.01224   -1205.0557    150161.71   -47405.965    4023.8174   -51429.783   0.17089111 
   14400    296.26204   -827.25801    149757.78   -47436.786    4068.4456   -51505.231   0.15945577 
   14600    294.42597   -849.05766    149764.99   -47432.703    4043.2317   -51475.935   0.15375461 
   14800    297.54935    -1089.999    150106.58   -47410.798    4086.1238   -51496.922   0.15051726 
   15000    291.84796   -1141.3315    150049.35   -47464.304     4007.829   -51472.133   0.15839544 
   15200    290.60273   -843.92474    149691.51   -47522.515    3990.7287   -51513.244    0.1562059 
   15400    287.35403   -922.75665    149761.19   -47538.844    3946.1156    -51484.96   0.16303281 
   15600    290.05447   -1147.7053    150063.82   -47571.771    3983.1997    -51554.97    0.1631399 
   15800    288.88184   -1068.5125    149963.19   -47523.566    3967.0964   -51490.662    0.1577541 
   16000    289.16064   -880.00964    149723.63   -47512.909     3970.925   -51483.834   0.15697093 
   16200    295.72021   -909.44691    149828.67   -47459.666    4061.0049   -51520.671   0.15360294 
   16400     294.3554   -1149.6254    150085.32   -47451.695    4042.2626   -51493.957   0.16159308 
   16600     288.7731   -1003.9162    149949.26   -47470.638    3965.6031   -51436.241   0.15640946 
   16800    295.88999   -856.74024    149720.39   -47428.678    4063.3365   -51492.015   0.15487766 
   17000    294.35064   -980.58213    149879.66   -47450.324    4042.1972   -51492.521   0.15582804 
   17200    296.41358   -1125.0853    150101.85   -47428.488    4070.5267   -51499.015   0.16165339 
   17400    295.85896   -998.90754     149928.2   -47477.538    4062.9104   -51540.448    0.1626294 
   17600    291.01403   -884.39079    149742.92    -47519.15    3996.3769   -51515.526   0.15807691 
   17800    289.66416   -1009.5084    149929.58    -47534.24    3977.8398    -51512.08   0.15978326 
   18000    288.94687   -1119.2198    150037.66   -47566.406    3967.9894   -51534.396   0.16221594 
   18200    287.33594   -970.44554    149820.75   -47595.262    3945.8672   -51541.129   0.15598926 
   18400    287.84118   -908.69881    149712.64   -47618.114    3952.8055   -51570.919   0.15194079 
   18600    291.95335   -1018.6886    149938.68   -47570.207    4009.2762   -51579.483   0.15012274 
   18800    289.14968   -1095.2354    150053.93   -47502.105    3970.7746    -51472.88   0.15801322 
   19000    288.94224   -1025.4421    149835.58    -47534.22    3967.9259   -51502.145   0.16672826 
   19200    290.79517   -867.22355    149713.42   -47508.919    3993.3715    -51502.29   0.15803505 
   19400    292.48618   -1057.6585    149980.96   -47496.513    4016.5933   -51513.106   0.16112617 
   19600    290.84225   -1155.6025    150139.01   -47521.919     3994.018   -51515.937   0.16087055 
   19800     289.4754   -962.27367    149800.94   -47524.852    3975.2476     -51500.1   0.15690254 
   20000    291.48835   -838.90059     149650.5    -47516.54    4002.8906    -51519.43   0.15896238 
   20200    294.24965   -1097.0331    150065.69   -47537.358    4040.8104   -51578.168   0.15632018 
   20400    289.23925   -1212.3713    150157.05   -47513.423    3972.0046   -51485.427   0.15788174 
   20600    291.16235   -804.94397    149617.29    -47517.29    3998.4138   -51515.704   0.15037427 
   20800    286.05286   -764.93908    149572.95   -47520.572    3928.2471   -51448.819   0.15584479 
   21000    288.60754   -1292.0277    150273.58   -47504.256    3963.3295   -51467.585   0.16816415 
   21200     292.8347   -1268.4917    150225.43   -47494.737    4021.3794   -51516.117   0.16330462 
   21400    290.85689   -636.49073    149425.96   -47500.815     3994.219   -51495.033   0.15184856 
   21600    294.04503   -762.53932    149638.12   -47455.354    4038.0004   -51493.354   0.15502572 
   21800    296.77852   -1400.6867    150501.59   -47391.781    4075.5384   -51467.319   0.16282366 
   22000    293.01451   -1164.4126    150148.53    -47403.05    4023.8487   -51426.899   0.16381008 
   22200    296.70365   -539.33825    149328.66   -47373.459    4074.5101   -51447.969   0.16100849 
   22400    301.73037   -911.97516     149868.8   -47346.469      4143.54   -51490.009   0.15510222 
   22600    291.43222   -1509.0523    150639.25   -47338.705    4002.1198   -51340.825   0.17249595 
   22800    296.21951   -998.54486    149979.79   -47387.325    4067.8617   -51455.186   0.15769792 
   23000    293.32494   -559.38658    149357.58   -47413.278    4028.1118    -51441.39   0.15602377 
   23200    287.76563    -1040.258    150048.91   -47399.335     3951.768   -51351.103   0.16129091 
   23400    296.27213   -1426.3158    150520.14   -47399.901    4068.5843   -51468.485   0.16395705 
   23600    292.42803   -898.89887    149786.61    -47427.94    4015.7948   -51443.735   0.16089937 
   23800    297.71737   -609.96163    149442.74   -47371.367    4088.4311   -51459.798   0.15709864 
   24000    287.54373   -1168.2918    150174.15   -47399.398    3948.7207   -51348.119   0.16679421 
   24200    297.88882   -1304.4052    150382.34   -47378.405    4090.7856    -51469.19   0.15960126 
   24400    300.20565   -805.83014    149690.35   -47395.189    4122.6016    -51517.79   0.15602636 
   24600    294.94087    -772.8182    149575.79   -47396.015    4050.3025   -51446.317   0.15963564 
   24800    302.21631   -1150.3199    150179.49   -47310.178    4150.2132   -51460.391   0.16312256 
   25000    296.85685    -1209.221    150237.77   -47306.414     4076.614   -51383.028   0.16463036 
   25200    300.77982   -771.84657    149724.18   -47338.971    4130.4865   -51469.458   0.15396036 
   25400    292.83583   -870.16433    149746.88   -47402.828     4021.395   -51424.223   0.16392968 
   25600    294.41185   -1176.5173    150150.46   -47419.905    4043.0378   -51462.943   0.16665007 
   25800    291.47145   -1073.8206    150055.31   -47396.833    4002.6585   -51399.491   0.16537021 
   26000    295.59249   -834.18574    149724.15   -47379.979    4059.2511    -51439.23    0.1577144 
   26200    294.45737   -944.27074    149852.14    -47425.08    4043.6628   -51468.743    0.1580042 
   26400    295.16489   -1146.4001    150113.87    -47443.54     4053.379   -51496.919    0.1626177 
   26600    293.66107   -1019.1178    149973.82   -47454.743    4032.7277   -51487.471   0.16176196 
   26800    295.30823   -819.77257    149764.72   -47462.183    4055.3475    -51517.53   0.15783651 
   27000     289.8199   -1019.6083    149947.65   -47460.653    3979.9785   -51440.632    0.1599975 
   27200    293.97298   -1122.0362    150102.37    -47452.38    4037.0109   -51489.391   0.15770539 
   27400    294.87311   -950.60698    149877.36   -47419.732    4049.3721   -51469.104   0.15657358 
   27600    293.67136   -871.33725    149783.11   -47425.917     4032.869   -51458.786   0.16782742 
   27800    293.88001   -1064.7901    150014.65   -47419.743    4035.7342   -51455.477   0.16599229 
   28000    294.62275   -1107.8284    150103.91   -47406.384    4045.9339   -51452.318   0.15665643 
   28200    291.51468   -944.19942    149854.42   -47428.165    4003.2521   -51431.418   0.15819207 
   28400    288.78216    -880.1754    149756.35   -47425.312    3965.7275    -51391.04   0.16169163 
   28600    289.92956   -1137.4968    150036.67   -47441.944    3981.4844   -51423.428    0.1636591 
   28800    289.90172   -1149.3382    150073.35   -47452.306     3981.102   -51433.408   0.16267612 
   29000    292.43689   -899.10774    149755.72   -47493.358    4015.9164   -51509.274   0.15815399 
   29200    291.32322   -907.64469    149761.78   -47530.006    4000.6229   -51530.629    0.1576127 
   29400    292.47968   -1128.8492     150073.9   -47525.737    4016.5041   -51542.241   0.15652894 
   29600    292.39095   -1080.2307    150004.81   -47486.714    4015.2856   -51501.999   0.16373317 
   29800    294.59543     -797.428    149709.48   -47412.784    4045.5588   -51458.342   0.15779263 
   30000    297.76695   -937.90803    149874.55   -47401.369     4089.112   -51490.482   0.15484158 
   30200    294.42677   -1192.3276    150211.09   -47405.493    4043.2426   -51448.736   0.16343362 
   30400    293.80821   -1030.9361    149962.88   -47462.158    4034.7483   -51496.907    0.1631609 
   30600    295.41801   -729.09022    149556.52   -47413.646     4056.855   -51470.501    0.1542429 
   30800    295.57464   -976.27632     149917.9   -47376.083    4059.0059   -51435.088   0.15683219 
   31000    295.38635   -1360.2896    150380.72   -47355.084    4056.4202   -51411.504   0.16631913 
   31200    296.85791    -950.6895    149846.45    -47365.54    4076.6285   -51442.169   0.15999663 
   31400    296.42201   -580.30123     149373.1   -47370.215    4070.6425   -51440.857   0.15614151 
   31600    287.94579    -1195.058    150082.72   -47423.217     3954.242   -51377.459   0.17042657 
   31800    297.52077   -1397.8956    150447.93   -47387.058    4085.7313   -51472.789    0.1696418 
   32000    297.26846   -757.86716    149605.27   -47370.467    4082.2665   -51452.734   0.15890279 
   32200    297.83051   -624.59738    149369.36   -47408.668    4089.9849   -51498.653   0.15829513 
   32400    293.80704   -1292.4433    150277.17   -47390.294    4034.7321   -51425.026   0.17205936 
   32600    295.09929   -1340.2538    150334.83    -47372.82    4052.4781   -51425.298    0.1666596 
   32800    296.43296   -631.20143    149441.32   -47382.226    4070.7929   -51453.019   0.15997708 
   33000    298.01338   -707.63782    149546.52   -47372.116    4092.4962   -51464.612   0.16325639 
   33200    297.40203   -1343.1683    150404.83   -47352.607    4084.1007   -51436.708   0.17234136 
   33400    306.84737   -1163.4537    150205.92     -47316.8    4213.8098    -51530.61   0.16579984 
   33600    298.74297   -653.52158     149457.5   -47258.633    4102.5152   -51361.148   0.16791409 
   33800    300.12813   -912.03361    149800.13   -47292.575    4121.5371   -51414.112   0.16579798 
   34000    290.20556    -1393.644    150430.46   -47302.535    3985.2745   -51287.809   0.17608186 
   34200    296.27386   -1016.0904    150010.24   -47341.457     4068.608   -51410.065   0.16616067 
   34400    296.32757   -640.75994    149492.89   -47415.785    4069.3455   -51485.131   0.15551462 
   34600      292.347   -1029.2999    149922.14   -47384.625     4014.682   -51399.307   0.15929645 
   34800    293.29312   -1241.3418    150323.02   -47417.555    4027.6747    -51445.23   0.16529128 
   35000    292.28791   -941.62669    149869.28   -47449.221    4013.8706   -51463.091   0.16297729 
   35200    292.38571   -709.09734    149547.54   -47442.156    4015.2136    -51457.37   0.15687796 
   35400    293.48635   -1049.6967    150022.39   -47396.872    4030.3282     -51427.2   0.16610856 
   35600    291.38262   -1261.9086    150259.55   -47386.821    4001.4386    -51388.26   0.17084792 
   35800    294.57509   -871.60076     149774.2   -47395.278    4045.2794   -51440.558   0.15747844 
   36000    299.39334   -777.92561    149628.55   -47398.911    4111.4466   -51510.357   0.15883513 
   36200    294.48327    -1151.926    150114.04   -47408.078    4044.0185   -51452.097   0.17316935 
   36400    289.37903   -1209.1343    150190.65   -47433.495    3973.9241   -51407.419   0.17351108 
   36600    300.27096   -787.58567    149699.35   -47416.506    4123.4985   -51540.004   0.14983783 
   36800    288.37232    -867.9031    149708.84   -47460.524    3960.0994   -51420.623   0.15457694 
   37000    296.93588   -1166.0609    150159.29   -47443.218    4077.6992   -51520.918   0.16857191 
   37200    295.55763   -1132.6214    150062.59   -47405.219    4058.7724   -51463.992   0.17194307 
   37400    293.87646   -811.14019    149626.52   -47402.403    4035.6855   -51438.088   0.16660555 
   37600    295.57232   -937.76106    149771.55   -47429.695     4058.974   -51488.669    0.1669907 
   37800    292.51139   -1216.6263    150208.33   -47387.414    4016.9395   -51404.353   0.16970403 
   38000    292.77174   -1057.0607    150021.69   -47443.465    4020.5148    -51463.98   0.16335083 
   38200     291.0393   -754.75508    149589.13   -47443.554    3996.7239   -51440.278   0.16224672 
   38400    293.89184   -904.96649    149822.16   -47407.052    4035.8966   -51442.949   0.16553296 
   38600    295.55707   -1236.5238    150242.39   -47397.759    4058.7646   -51456.524   0.16646523 
   38800    292.24418   -1064.0028    149944.48   -47453.284    4013.2701   -51466.554   0.16384616 
   39000    292.94232   -747.31761     149514.4   -47486.036    4022.8574   -51508.894   0.15925498 
   39200    294.13989   -967.08248    149815.95    -47503.66     4039.303   -51542.963   0.15668942 
   39400    289.22052   -1242.5359     150210.4       -47486    3971.7473   -51457.747   0.16794256 
   39600    290.21096      -1039.2    149862.65   -47563.003    3985.3487   -51548.352   0.17140416 
   39800    290.04416   -752.01408    149515.24   -47555.634    3983.0581   -51538.692    0.1665826 
   40000    289.90581    -996.1972    149896.68   -47563.135    3981.1582   -51544.293   0.15963888 
   40200    289.15986   -1268.0937    150200.25   -47532.671    3970.9143   -51503.586   0.16014018 
   40400    293.96604   -961.45813    149809.89   -47532.592    4036.9157   -51569.507   0.16210446 
   40600    293.66036   -761.52136    149593.98   -47565.143    4032.7179   -51597.861   0.15735929 
   40800    294.40568   -1094.9215    149995.16   -47579.227    4042.9531    -51622.18   0.16709394 
   41000    291.97257   -1169.5106    150123.75   -47531.302    4009.5401   -51540.842   0.16117823 
   41200    287.69453   -913.67566    149733.54   -47569.578    3950.7915    -51520.37   0.15433765 
   41400    292.17899   -818.26942    149681.28     -47535.1    4012.3748   -51547.474    0.1570053 
   41600     296.9704   -1101.4117    150041.76   -47525.635    4078.1733   -51603.809   0.16472017 
   41800    290.11528   -1120.2351    150071.62   -47523.112    3984.0347   -51507.147   0.17069076 
   42000    292.60429   -891.57051     149802.3   -47499.374    4018.2152   -51517.589   0.16407419 
   42200    291.02044   -907.56768    149828.67   -47526.075    3996.4649    -51522.54   0.15901641 
   42400     288.1322   -1103.6106    150043.86    -47575.28    3956.8019   -51532.082   0.15437604 
   42600    287.04951   -1060.6015    149965.64   -47603.479    3941.9337   -51545.413   0.15502877 
   42800    288.61705   -932.73326    149785.09   -47606.795    3963.4601   -51570.255   0.15801328 
   43000    287.77106   -980.60477    149834.53   -47559.944    3951.8425   -51511.786   0.16497279 
   43200    291.30026    -1095.678    149982.62    -47561.97    4000.3076   -51562.278   0.15972132 
   43400    286.55479   -1031.2547    149898.57   -47553.467    3935.1399   -51488.607   0.16042993 
   43600    284.14276   -940.71387    149745.53   -47551.024    3902.0166   -51453.041   0.16800799 
   43800    293.36247   -977.87537    149852.61   -47522.562    4028.6271   -51551.189    0.1606239 
   44000    289.99809   -1087.5787    149994.21   -47538.366    3982.4254   -51520.792   0.16620886 
   44200    291.89421   -1021.6832    149883.81   -47584.085     4008.464   -51592.549   0.16423034 
   44400    289.87458    -943.4875    149777.22   -47560.375    3980.7294   -51541.105   0.16244418 
   44600    293.36438   -1012.7936    149902.16   -47495.355    4028.6533   -51524.009   0.15612301 
   44800    292.71684   -1066.7114    150034.06   -47457.615     4019.761   -51477.376   0.15696305 
   45000    293.30309   -1019.1927    149904.01   -47495.707    4027.8116   -51523.518   0.16734244 
   45200    295.37576   -912.75183    149791.24   -47519.588    4056.2748   -51575.863    0.1653807 
   45400    282.43678   -1056.1127     149932.6   -47565.905    3878.5891   -51444.495   0.16632911 
   45600    290.86231   -1040.8193    149994.53   -47553.483    3994.2934   -51547.777   0.16024265 
   45800     292.8847   -923.02447    149822.06   -47528.983    4022.0661   -51551.049   0.15503523 
   46000    290.11897   -890.71372     149773.6   -47527.179    3984.0854   -51511.264   0.16192012 
   46200    287.42981   -1071.1096     149982.8   -47558.234    3947.1563    -51505.39   0.16684515 
   46400    290.49188   -1045.2485    150031.17   -47539.396    3989.2064   -51528.603   0.15849847 
   46600    290.26049   -941.17091    149822.56   -47540.565    3986.0289   -51526.594   0.15741033 
   46800     289.8741   -926.17435    149792.44   -47505.601    3980.7228   -51486.324   0.16064926 
   47000    295.34841   -1080.5393    150034.46   -47482.193    4055.8992   -51538.092   0.16032176 
   47200     298.3998    -1100.116    150076.28    -47450.78    4097.8027   -51548.583   0.16142053 
   47400    293.97282   -880.41939    149819.73   -47383.622    4037.0088    -51420.63   0.16306922 
   47600    301.04552   -869.86326    149809.91   -47358.522    4134.1353   -51492.657   0.16304441 
   47800     296.7082   -1080.6719    150105.59   -47322.699    4074.5727   -51397.272   0.16346717 
   48000    296.44033   -1101.8017    150094.54   -47326.617     4070.894   -51397.511   0.16206659 
   48200    296.71376   -847.23859    149772.42   -47330.728    4074.6489   -51405.377   0.16150709 
   48400    294.27848   -885.55902     149835.7   -47310.637    4041.2063   -51351.843   0.16834165 
   48600    297.55374   -1152.7535    150200.43   -47370.571     4086.184   -51456.755   0.16803902 
   48800    294.65315   -1075.8742    150038.27   -47313.559    4046.3515    -51359.91   0.16862668 
   49000    299.82681   -745.62984    149628.86   -47297.199    4117.3992   -51414.599    0.1612719 
   49200    297.28189   -957.12562    149905.58   -47329.052    4082.4509   -51411.503   0.16316986 
   49400     296.9955   -1283.4701    150325.28   -47333.085     4078.518   -51411.603   0.17263949 
   49600    294.17548   -1050.0563    149950.15    -47355.56    4039.7918   -51395.352   0.17124384 
   49800    298.42629   -665.63423    149536.87   -47339.331    4098.1664   -51437.498    0.1621936 
   50000    294.13291   -1053.4369    150005.26    -47333.78    4039.2072   -51372.987   0.16960357 
   50200    298.26254   -1330.5953    150345.54   -47366.593    4095.9177    -51462.51   0.17252668 
   50400    298.69735   -870.01555    149796.65   -47379.113    4101.8888   -51481.002   0.16174282 
   50600    292.96463   -733.29906    149532.87   -47404.083    4023.1638   -51427.247   0.16279698 
   50800    289.05346   -1185.9169    150147.74   -47405.949    3969.4532   -51375.403   0.17515236 
   51000    298.83713   -1299.6296    150291.37   -47339.195    4103.8084   -51443.004   0.17453145 
   51200    299.34262    -820.5538    149670.49   -47380.064      4110.75   -51490.814   0.15870807 
   51400    300.60465   -743.53558    149628.37   -47342.915     4128.081   -51470.996   0.15340729 
   51600    301.85953   -1195.7874    150249.73   -47335.386    4145.3137     -51480.7   0.16735694 
   51800    296.64554   -1200.4749    150245.43   -47329.468    4073.7121    -51403.18   0.17478735 
   52000    298.07653   -780.01585    149672.56   -47298.166    4093.3633   -51391.529   0.16535584 
   52200    297.78909   -810.44857    149748.79   -47268.572    4089.4161   -51357.988   0.16794449 
   52400    298.28908   -1214.1721    150291.77   -47241.073    4096.2821   -51337.355    0.1706374 
   52600    302.07812   -1111.7561    150161.12   -47283.154    4148.3155   -51431.469   0.16283681 
   52800    299.20337   -794.05658    149685.44   -47310.079    4108.8378   -51418.917   0.16132067 
   53000     300.2316   -908.06549    149873.51   -47313.045     4122.958   -51436.003   0.16280149 
   53200    295.57071   -1220.5511    150286.91   -47315.973     4058.952   -51374.925   0.16967395 
   53400    296.57245    -1050.706    150072.59    -47348.67    4072.7084   -51421.378   0.15695045 
   53600    300.03818   -770.23692    149713.49   -47381.803    4120.3019   -51502.105   0.15463921 
   53800    291.64682   -1004.4027    149960.83   -47354.978    4005.0668   -51360.045   0.16656103 
   54000    293.78283   -1202.7181    150272.76   -47340.825    4034.3997   -51375.225   0.17409847 
   54200    299.01048   -998.91248    149999.75   -47354.169    4106.1889   -51460.358   0.17179983 
   54400    300.63763   -803.55264    149732.36   -47385.676    4128.5339    -51514.21   0.16108996 
   54600    294.64577   -1024.6666     150014.6   -47376.626    4046.2501   -51422.876   0.16075341 
   54800    296.50127   -1183.1663     150236.8   -47316.384     4071.731   -51388.115   0.16774381 
   55000    295.18902   -980.02529    149929.81   -47323.235    4053.7104   -51376.945   0.16762454 
   55200    295.84568    -812.1359    149719.82   -47356.739     4062.728   -51419.467   0.16289873 
   55400     301.2615    -1033.633    150003.62   -47377.781    4137.1012   -51514.882   0.16484713 
   55600    296.12318   -1147.1996    150148.37   -47411.693    4066.5388   -51478.232   0.16503835 
   55800    293.98176   -917.25675    149836.81     -47388.3    4037.1315   -51425.432   0.15935753 
   56000    299.32402    -841.5856    149748.77   -47374.395    4110.4947    -51484.89   0.15470944 
   56200    297.41079   -1090.3902    150084.29   -47404.553     4084.221   -51488.774   0.16978507 
   56400    294.73446   -1179.8477    150102.75   -47405.645    4047.4681   -51453.113    0.1725642 
   56600    294.65015   -812.12767    149744.29   -47414.426    4046.3102   -51460.736   0.15542093 
   56800    295.99655   -876.06693    149788.56   -47364.099    4064.7999   -51428.899   0.15984832 
   57000    295.32829   -1170.7663    150173.07   -47365.375    4055.6229   -51420.998   0.16156972 
   57200    293.90724   -1124.7681    150046.67   -47396.438    4036.1082   -51432.546   0.16680961 
   57400    297.63051   -737.05648    149620.38   -47421.176    4087.2383   -51508.414   0.15835013 
   57600    288.63781   -959.64072     149837.4   -47406.694    3963.7453    -51370.44   0.17184826 
   57800    292.28849     -1248.49     150274.1   -47412.019    4013.8785   -51425.898   0.16890667 
   58000    298.17537   -999.83086    149923.28   -47430.853    4094.7207   -51525.573   0.15708463 
   58200     294.7815   -643.64088     149448.1   -47477.681     4048.114   -51525.795   0.16145423 
   58400    291.76679   -1042.2397    149943.96   -47464.472    4006.7143   -51471.187   0.16702547 
   58600     293.1017   -1392.5734    150440.13   -47433.392     4025.046   -51458.438   0.17184272 
   58800    294.93567   -933.98524    149824.56   -47476.212    4050.2312   -51526.443   0.15864885 
   59000    289.20886   -593.22274    149358.65   -47505.758    3971.5873   -51477.346   0.15329557 
   59200    291.36468   -1134.3217     150102.1   -47497.107    4001.1922   -51498.299   0.15865428 
   59400     296.3935   -1419.3698    150503.24   -47430.969     4070.251    -51501.22   0.16292134 
   59600    298.22879   -791.71146    149716.26   -47439.537    4095.4543   -51534.992   0.15091395 
   59800     293.0122   -646.73171    149403.43   -47429.012     4023.817   -51452.829   0.15744365 
   60000    298.59244   -1200.3964    150245.16    -47405.72    4100.4482   -51506.168   0.16012177 
   60200    296.20253   -1362.5025    150490.43   -47372.205    4067.6284   -51439.834   0.16268426 
   60400    297.24432    -729.7204    149653.43   -47353.672     4081.935   -51435.607   0.15767775 
   60600    296.03815   -691.52471    149531.18   -47397.397     4065.371   -51462.768   0.15590411 
   60800    297.00076   -1275.8587    150317.22   -47325.518    4078.5902   -51404.109   0.16780062 
   61000    294.19583   -1263.7866     150342.5    -47363.85    4040.0713   -51403.921   0.16616857 
   61200    294.38558   -747.49726    149613.46   -47378.924     4042.677   -51421.601   0.15987668 
   61400    303.89391   -804.85991    149683.05   -47376.384     4173.251   -51549.635   0.15694465 
   61600    294.99859   -1234.2125    150293.43   -47357.742    4051.0952   -51408.837   0.16201499 
   61800    297.13291   -1120.8203    150160.67   -47359.473     4080.405   -51439.878   0.16217622 
   62000    297.94814   -788.27914    149677.21   -47392.654    4091.6003   -51484.254   0.16139313 
   62200    294.03698   -905.69436    149836.88   -47402.901    4037.8898   -51440.791   0.16056645 
   62400     297.2011   -1185.8136    150213.89   -47357.109    4081.3414    -51438.45   0.16621678 
   62600    294.37911   -1058.3325     150041.1   -47379.678    4042.5881   -51422.266   0.16286184 
   62800    298.77994   -849.39733     149724.7   -47361.274     4103.023   -51464.297   0.16334194 
   63000    296.10446   -944.35348    149914.35   -47325.641    4066.2818   -51391.923   0.16351016 
   63200    297.01831   -1144.4978    150183.76   -47326.412    4078.8312   -51405.243   0.16637267 
   63400    294.88132   -1032.4841    149981.04   -47284.962    4049.4848   -51334.447   0.17030774 
   63600    294.34503   -865.71801    149764.45   -47268.273    4042.1201   -51310.393   0.16555204 
   63800    296.39605   -1023.1062     149992.2   -47294.954    4070.2861   -51365.241   0.15790676 
   64000    298.39703   -1152.1154    150175.55   -47285.026    4097.7647   -51382.791   0.16373178 
   64200    298.97125   -949.70398    149942.69   -47290.618    4105.6502   -51396.268   0.16599579 
   64400    302.57695    -892.8654    149819.53    -47279.97    4155.1658   -51435.136   0.15917239 
   64600    299.66427    -1045.553    150046.63   -47333.279    4115.1671   -51448.446   0.15815091 
   64800    295.75072   -1087.7198    150118.03   -47341.847    4061.4239   -51403.271   0.16729684 
   65000    291.48115   -950.17034    149887.32   -47334.222    4002.7917   -51337.013   0.16880438 
   65200    296.04604   -914.86245    149831.06   -47363.254    4065.4795   -51428.733   0.16062407 
   65400    295.99647   -1025.9802    150036.89   -47386.356    4064.7988   -51451.155   0.15960201 
   65600       291.13      -1122.4    150087.18   -47409.326    3997.9695   -51407.295   0.16505761 
   65800     299.8419   -920.94629    149830.15   -47388.647    4117.6064   -51506.253   0.15965191 
   66000    291.02583   -946.87631    149829.28   -47386.191     3996.539    -51382.73   0.16234221 
   66200    292.85076   -1134.8334    150089.22   -47408.655       4021.6   -51430.255   0.16553324 
   66400    298.25664   -1092.7274    150032.16   -47404.269    4095.8368   -51500.106   0.16407252 
   66600    297.34276   -877.92931     149734.9   -47421.684    4083.2868    -51504.97    0.1595874 
   66800    292.34098   -945.10885       149821   -47402.042    4014.5994   -51416.642   0.16464919 
   67000    293.71342   -1158.6159    150119.68   -47427.216    4033.4465   -51460.662   0.16711763 
   67200    296.68799   -1022.3556    149976.41   -47448.974    4074.2951   -51523.269   0.15797944 
   67400     295.5968   -808.87214    149657.99    -47488.44    4059.3102    -51547.75   0.15045222 
   67600    294.78652   -913.23741    149856.55   -47440.445     4048.183   -51488.628   0.15338799 
   67800    295.86942   -1154.0732    150198.56   -47381.924     4063.054   -51444.978   0.15911376 
   68000    294.78589   -1003.8146    149978.57    -47380.46    4048.1743   -51428.634   0.15874484 
   68200     297.8495   -773.49758    149648.11   -47459.188    4090.2457   -51549.433    0.1515448 
   68400    293.94782   -1023.4738    149961.59   -47398.727    4036.6654   -51435.392    0.1605937 
   68600    295.26907   -1253.0218    150308.99    -47376.98    4054.8096   -51431.789   0.16585947 
   68800    296.87771   -910.92756    149939.53   -47348.467    4076.9004   -51425.368   0.16215505 
   69000    296.90822    -767.1385    149617.74   -47399.459    4077.3195   -51476.778   0.16109394 
   69200    294.03458   -1108.6023    150050.03   -47399.699    4037.8569   -51437.556   0.16643764 
   69400     292.8111   -1255.5538    150311.71   -47432.562    4021.0554   -51453.618   0.17042136 
   69600    296.76886   -898.43001    149780.65    -47454.22    4075.4056   -51529.626   0.15914934 
   69800    292.40295   -759.78803    149529.79    -47422.18    4015.4504    -51437.63   0.16118574 
   70000    297.84338   -1151.5247    150105.55   -47375.747    4090.1617   -51465.909   0.16784367 
   70200    297.31511   -1287.7493    150327.14   -47352.581    4082.9071   -51435.488   0.16802119 
   70400    298.00564    -805.0245    149648.67   -47377.322    4092.3898   -51469.712   0.16210409 
   70600    297.86268   -682.61592     149471.4   -47352.436    4090.4266   -51442.863   0.16596423 
   70800    289.85273   -1299.2356    150291.05   -47364.827    3980.4293   -51345.256   0.17908189 
   71000    293.43356   -1337.9782     150376.1   -47409.419    4029.6034   -51439.023   0.17030794 
   71200    293.94528   -599.47581    149389.58   -47431.701    4036.6306   -51468.331   0.15675228 
   71400    297.44357   -654.20822    149456.36   -47399.327    4084.6712   -51483.998   0.15797141 
   71600    299.54999   -1492.2514    150560.35   -47360.668    4113.5977   -51474.266   0.17259754 
   71800    294.03628   -1305.0686    150332.99   -47384.084    4037.8802   -51421.964    0.1639755 
   72000     296.3805   -486.49244    149198.79   -47424.532    4070.0724   -51494.605   0.15462995 
   72200    291.57049   -756.16889    149593.62   -47458.237    4004.0185   -51462.256   0.16131801 
   72400     291.5327   -1510.3012    150642.81   -47421.168    4003.4996   -51424.668   0.16677672 
   72600     292.1633   -1165.4935    150165.71    -47394.98    4012.1593   -51407.139   0.16491639 
   72800    295.12768   -573.37123    149356.62   -47484.039    4052.8679   -51536.907   0.15947829 
   73000    293.01872   -934.16114    149804.81   -47478.074    4023.9065   -51501.981   0.16211736 
   73200    292.01635   -1342.1646    150376.34   -47482.883    4010.1414   -51493.024   0.16086006 
   73400    293.23475    -1026.273    149967.36   -47483.844    4026.8732   -51510.717   0.15687263 
   73600    296.21878   -737.83187    149601.66   -47472.077    4067.8516   -51539.929   0.15694245 
   73800    292.31323   -944.13249    149928.39   -47462.334    4014.2183   -51476.553   0.15905053 
   74000    288.12273   -1179.5222    150173.13   -47506.299    3956.6718   -51462.971   0.16309686 
   74200    291.48538   -976.81797    149855.59   -47507.863    4002.8498   -51510.713   0.16223363 
   74400     291.0669   -807.10834    149681.79   -47471.471     3997.103   -51468.574   0.16347307 
   74600    297.06474   -1047.1863    149978.71   -47491.493    4079.4688   -51570.961   0.16208468 
   74800    289.45047   -1129.9653    150086.55   -47499.367    3974.9052   -51474.273   0.16422536 
   75000    295.60997   -947.87771    149835.15   -47465.802    4059.4911   -51525.293   0.16070093 
   75200    293.25847   -904.33203     149755.1   -47453.995    4027.1989   -51481.194   0.16357478 
   75400    291.48924   -1056.8901    149976.59   -47438.625    4002.9028   -51441.527   0.16514471 
   75600    296.08038   -1061.6957    150016.18   -47416.822     4065.951   -51482.773   0.16138448 
   75800    292.91291   -915.18916    149824.65   -47395.762    4022.4534   -51418.215   0.16041633 
   76000    297.22111   -959.98923    149843.37   -47381.556    4081.6162   -51463.172   0.16335142 
   76200    292.14177   -1094.8706    150039.08   -47404.798    4011.8637   -51416.662   0.16081382 
   76400     294.4211   -1053.5365    150006.26   -47373.973    4043.1649   -51417.138   0.16125796 
   76600    291.46193   -959.91224    149850.62   -47363.317    4002.5277   -51365.845   0.16398593 
   76800    295.17987   -961.68406    149903.85   -47362.842    4053.5847   -51416.427      0.15926 
   77000    299.06064   -1062.8174    150066.57     -47363.8    4106.8777   -51470.678   0.15837706 
   77200    298.71644   -1044.8631    150001.62    -47411.58     4102.151   -51513.731   0.16147277 
   77400    293.80156   -885.75466    149829.23   -47404.191    4034.6569   -51438.848   0.16595945 
   77600    287.79137   -983.91844    149933.42   -47418.233    3952.1214   -51370.354   0.16296456 
   77800    293.32003   -1116.5825    150091.95   -47429.439    4028.0443   -51457.483   0.16348402 
   78000    293.82995   -992.25678    149946.27   -47430.841    4035.0469   -51465.888   0.16073642 
   78200    293.89049   -908.96127    149775.74   -47427.735    4035.8782   -51463.613   0.16294985 
   78400    290.18428   -999.84893    149943.29    -47445.49    3984.9822   -51430.473   0.16492764 
   78600    292.58455   -1145.8983    150117.82   -47461.666    4017.9442    -51479.61   0.15972814 
   78800    295.50445   -974.15677    149927.45   -47449.485     4058.042   -51507.527   0.16100379 
   79000    294.99104    -839.0213    149741.72   -47434.595    4050.9915   -51485.587   0.15518572 
   79200     294.2318   -1015.2263    149982.37   -47442.724    4040.5653   -51483.289   0.15722182 
   79400    293.86612   -1173.1665    150217.94   -47390.599    4035.5435   -51426.142   0.17040234 
   79600    291.58208   -1003.8486    149925.13   -47384.779    4004.1778   -51388.957   0.16573037 
   79800    297.80292   -757.01771    149642.14   -47416.103     4089.606   -51505.709   0.15147054 
   80000    298.55029   -1013.8408    150008.46   -47383.049    4099.8693   -51482.918   0.15614114 
   80200     299.6051    -1265.988    150350.96    -47340.94    4114.3546   -51455.295   0.16361746 
   80400    298.54023   -926.17974     149876.2   -47317.383    4099.7311   -51417.114    0.1575219 
   80600     294.3307   -705.67373    149582.92   -47342.238    4041.9234   -51384.162   0.15186737 
   80800    300.59663   -1164.3747    150204.25   -47277.765    4127.9708   -51405.736   0.16357637 
   81000    299.20467   -1332.2845    150433.33   -47326.955    4108.8556   -51435.811   0.16940798 
   81200    295.71177   -758.75252    149687.08   -47317.383    4060.8891   -51378.272   0.15475557 
   81400    299.83386   -696.38514    149582.83   -47297.098    4117.4961   -51414.594   0.15607561 
   81600    296.10653    -1330.498    150434.67   -47305.905    4066.3101   -51372.215    0.1661464 
   81800    297.98605   -1349.5932     150405.9   -47309.687    4092.1208   -51401.808   0.16760716 
   82000    299.53222   -656.41281    149517.66   -47288.779    4113.3537   -51402.132   0.15779701 
   82200    292.28079   -805.33244    149682.66   -47333.123    4013.7728   -51346.896   0.15648456 
   82400     295.9892   -1385.5259    150490.67   -47322.967    4064.6989   -51387.666   0.16645142 
   82600    298.52989    -1152.931    150194.11   -47372.278    4099.5891   -51471.867   0.16284284 
   82800    300.12477   -600.12552    149453.88   -47422.815    4121.4909   -51544.306   0.15018017 
   83000    298.18336    -874.2666    149819.57   -47403.109    4094.8304    -51497.94   0.15732114 
   83200    294.51887   -1338.7428    150450.94   -47412.426    4044.5075   -51456.933   0.16581452 
   83400    291.18389   -1089.1039    150026.93   -47438.461    3998.7096    -51437.17   0.15882813 
   83600    291.68589   -625.42297    149492.57   -47461.843    4005.6032   -51467.446    0.1476484 
   83800    297.49244   -991.43833    149940.37    -47406.75    4085.3422   -51492.092   0.15405334 
   84000    288.43475   -1318.3609    150359.39   -47428.979    3960.9567   -51389.936    0.1703726 
   84200    296.55973   -958.08537    149895.15   -47423.401    4072.5337   -51495.934   0.15495292 
   84400    293.83119    -731.2949    149604.31   -47431.671    4035.0638   -51466.735   0.14766005 
   84600    295.93199   -1056.9356    150053.34   -47422.188    4063.9132   -51486.101   0.15563503 
   84800     299.0258   -1248.4883    150244.66   -47430.037    4106.3993   -51536.436   0.16146183 
   85000    297.85053   -898.43932    149809.57   -47399.961    4090.2598    -51490.22   0.15798043 
   85200    295.54296   -835.14372    149682.24   -47371.451    4058.5708   -51430.022   0.16080592 
   85400    295.86263   -1164.4928    150105.73   -47350.559    4062.9608   -51413.519   0.16644272 
   85600    301.52087   -1130.0821    150154.51   -47346.999    4140.6631   -51487.662   0.15622562 
   85800    299.10726   -822.32553    149743.15   -47367.878    4107.5179   -51475.396   0.15285107 
   86000    296.69834   -855.70442    149784.56   -47319.501    4074.4372   -51393.938   0.16352104 
   86200    297.32192   -1159.6405    150178.19   -47324.593    4083.0006   -51407.594   0.17024197 
   86400    294.06587   -1061.4708     150107.3   -47318.191    4038.2866   -51356.477   0.16355546 
   86600    299.48947    -849.7507    149755.47   -47322.579    4112.7667   -51435.345   0.16049053 
   86800    292.94313   -951.13793    149889.44   -47351.204    4022.8684   -51374.073   0.16889225 
   87000    295.30166   -1219.4156    150222.12    -47368.95    4055.2572   -51424.207   0.16713964 
   87200     297.5019   -1033.4267    150023.47   -47341.216    4085.4722   -51426.689   0.16039299 
   87400    292.91082    -825.1121    149739.71   -47307.717    4022.4248   -51330.142   0.16174604 
   87600    295.05667   -1001.1405    150006.26   -47372.383    4051.8929   -51424.275   0.15885267 
   87800    301.14888   -1168.6972    150240.43   -47376.117    4135.5546   -51511.671   0.15439156 
   88000    298.21186   -940.40667    149956.67   -47329.617    4095.2217   -51424.839   0.15562274 
   88200     294.5355   -837.16178    149755.67   -47343.994    4044.7358    -51388.73   0.15791568 
   88400    299.74945   -1090.5906    150049.15   -47327.318    4116.3368   -51443.655   0.16069287 
   88600    294.68318   -1151.8034    150203.21   -47338.925    4046.7639   -51385.689   0.16137984 
   88800    299.38949   -921.50308    149884.89   -47333.916    4111.3937    -51445.31   0.14935308 
   89000    296.83522   -817.40253     149735.3   -47358.115    4076.3169   -51434.432   0.15472552 
   89200    298.47062   -1094.8456    150082.13   -47326.098    4098.7753   -51424.873   0.16219376 
   89400    302.24982   -1136.6468    150180.14   -47296.762    4150.6734   -51447.436   0.15885026 
   89600     301.3076   -865.64351    149823.08   -47323.461    4137.7343   -51461.195   0.15616125 
   89800    294.83205   -868.88334    149744.57   -47360.883    4048.8083   -51409.692   0.15951974 
   90000    297.09144   -1068.4558    150113.51   -47371.965    4079.8356   -51451.801    0.1555878 
   90200    298.41521   -1150.7618    150159.31   -47417.828    4098.0143   -51515.842   0.15072106 
   90400    292.19967   -862.08084    149727.37   -47443.932    4012.6589   -51456.591    0.1572717 
   90600    299.58418   -807.59232    149719.32   -47436.959    4114.0673   -51551.026   0.15934795 
   90800    290.73779   -1205.6728    150209.44   -47453.406    3992.5835   -51445.989   0.15828763 
   91000    296.81934    -1155.878    150126.66   -47455.162    4076.0989   -51531.261   0.14996575 
   91200    291.59827   -730.33608    149585.37   -47475.768       4004.4   -51480.168   0.15147304 
   91400    291.03094   -887.83798    149781.55     -47464.1    3996.6092   -51460.709   0.15886823 
   91600    293.47413   -1281.2732    150377.57   -47460.125    4030.1605   -51490.285   0.15589833 
   91800    291.69731   -1095.0323    150092.73   -47439.604    4005.7601   -51445.364   0.15727935 
   92000    293.86344   -662.21334    149474.67   -47463.573    4035.5067    -51499.08   0.15031034 
   92200    287.86071   -951.67659    149859.46   -47482.611    3953.0737   -51435.685   0.15097787 
   92400    293.27655   -1393.7007    150506.92   -47449.785    4027.4472   -51477.232   0.15856746 
   92600    291.39257   -1027.6338    149997.34   -47514.723    4001.5753   -51516.298   0.15626191 
   92800    291.98975   -529.53019    149320.82   -47492.275    4009.7761   -51502.051   0.15038695 
   93000    296.36636   -953.63444    149969.78   -47412.557    4069.8782   -51482.435   0.14488374 
   93200    293.28447   -1514.8332    150639.67   -47399.297    4027.5559   -51426.853   0.16119948 
   93400    294.79253   -959.72323    149882.68   -47414.392    4048.2655   -51462.657    0.1589816 
   93600    293.39326   -547.41036    149319.98   -47404.334    4029.0499   -51433.384   0.15718401 
   93800    293.57221   -1158.1486    150123.03   -47386.107    4031.5073   -51417.615   0.16393627 
   94000    300.19018   -1398.3579    150531.38   -47378.179    4122.3892   -51500.568   0.16344708 
   94200    293.39078   -836.58474       149712   -47473.612    4029.0159   -51502.628   0.15569722 
   94400     291.9624   -679.26055    149450.84   -47462.087    4009.4005   -51471.488   0.15431087 
   94600    292.63055   -1166.9724    150153.56   -47450.079     4018.576   -51468.655   0.16040218 
   94800    288.86808   -1257.0691    150262.53   -47499.089    3966.9075   -51465.996   0.16559106 
   95000    292.54326   -836.93632     149698.1   -47514.471    4017.3772   -51531.848   0.16003755 
   95200    292.90337   -843.37483    149685.75   -47522.417    4022.3225   -51544.739   0.15640284 
   95400    291.65197   -1098.7148    150114.55    -47527.59    4005.1375   -51532.727   0.15250876 
   95600    290.61347   -1151.9132    150106.91   -47489.367    3990.8762   -51480.243   0.16057889 
   95800    292.07207   -889.08342    149774.55   -47457.718    4010.9066   -51468.624   0.16405222 
   96000    291.73533   -881.17999    149842.53   -47448.194    4006.2823   -51454.476   0.15575898 
   96200    287.79134   -1189.6583    150136.69   -47486.501    3952.1211   -51438.622   0.16464327 
   96400    289.78583   -1069.5173     150018.6   -47480.481    3979.5105   -51459.991   0.16209404 
   96600    291.33053   -870.41647    149748.59   -47495.822    4000.7233   -51496.546   0.15417821 
   96800    291.36564   -933.00738    149871.84   -47547.127    4001.2054   -51548.333   0.14543147 
   97000    286.01918   -1123.3852    150109.72   -47527.112    3927.7846   -51454.896   0.15838649 
   97200    295.69812   -1015.6828    149985.66   -47516.917    4060.7015   -51577.618   0.16027673 
   97400    288.79994   -889.02754    149789.69   -47473.623    3965.9717   -51439.595   0.14945529 
   97600    295.84529   -1011.8872    149987.96   -47443.809    4062.7227   -51506.532   0.14760846 
   97800    301.03297   -1163.6014    150206.37   -47435.097    4133.9629   -51569.059   0.15654936 
   98000    296.66623   -982.48219    149937.13   -47409.616    4073.9962   -51483.612   0.16641284 
   98200    296.00006    -808.0882     149697.7   -47424.606     4064.848   -51489.454    0.1622712 
   98400    292.19798   -1037.5955    149991.35   -47349.083    4012.6357   -51361.719   0.16586923 
   98600    296.72936   -1167.4495    150211.02   -47393.763    4074.8632   -51468.626   0.15998127 
   98800    295.84913   -935.27156    149857.48   -47360.513    4062.7754   -51423.288   0.15743471 
   99000    297.16261    -812.8996    149683.19   -47366.394    4080.8129   -51447.207   0.15996336 
   99200     299.6913   -1144.6649     150062.1   -47427.717    4115.5383   -51543.255   0.16910177 
   99400    291.59233    -1224.612    150146.35   -47518.904    4004.3184   -51523.222   0.17078709 
   99600     288.8167   -833.37697    149659.85   -47549.077    3966.2018   -51515.279   0.15092766 
   99800    295.12228   -795.55019    149632.82   -47522.491    4052.7938   -51575.285   0.15064071 
  100000      293.471   -1233.0218    150182.63   -47514.479    4030.1174   -51544.597   0.15809772 
  100200    292.88759    -1144.811    150131.77   -47470.682    4022.1058   -51492.788   0.16421812 
  100400    291.39091   -749.57061    149596.44   -47475.638    4001.5524    -51477.19   0.15934132 
  100600    294.71514   -857.25672    149736.04   -47422.792    4047.2027   -51469.995   0.15478202 
  100800    294.17924   -1296.0984    150285.65   -47444.226    4039.8434    -51484.07   0.16362425 
  101000    297.05173   -1122.5579    150044.22   -47429.803    4079.2902   -51509.093   0.15618251 
  101200    291.56694   -729.48895    149515.17    -47415.83    4003.9699     -51419.8   0.15701196 
  101400    293.91869   -930.59979    149833.17   -47419.249    4036.2654   -51455.515   0.15895474 
  101600    290.46074   -1287.1136    150339.33   -47426.025    3988.7788   -51414.804   0.16573007 
  101800    294.00886   -1019.4461    149953.46   -47397.112    4037.5037   -51434.616   0.15898677 
  102000    299.44416   -687.67009    149506.03   -47405.216    4112.1445    -51517.36   0.14847791 
  102200    296.57945    -1053.858    149975.19   -47391.784    4072.8046   -51464.589   0.15939357 
  102400    297.05046   -1313.3715    150349.69     -47327.4    4079.2727   -51406.672   0.17080796 
  102600    296.68425   -955.57997    149852.13   -47346.871    4074.2438   -51421.114   0.16431479 
  102800    298.45083   -719.27666    149576.88   -47363.506    4098.5035   -51462.009   0.15639979 
  103000     294.2287    -1098.914    150114.02   -47350.203    4040.5227   -51390.726   0.16251688 
  103200     299.7186   -1213.7378    150279.78   -47327.351    4115.9132   -51443.264   0.16020459 
  103400    291.29538   -902.38271    149745.65   -47364.082    4000.2406   -51364.322   0.16358155 
  103600    296.99242   -781.06673    149660.35   -47369.185    4078.4757   -51447.661   0.16086272 
  103800    297.25339   -1200.8814    150146.31   -47366.781    4082.0595    -51448.84    0.1760784 
  104000    295.83885   -1137.7734    150134.58   -47374.177    4062.6341   -51436.811   0.16290202 
  104200    293.89585    -824.4434    149715.21   -47392.953    4035.9518   -51428.905    0.1530565 
  104400    291.34651      -922.55    149790.12   -47408.879    4000.9427   -51409.822   0.16767617 
  104600    293.08714   -1216.5807    150185.45   -47398.051     4024.846   -51422.897   0.16701025 
  104800    293.61245   -1040.3782    150032.96   -47389.726      4032.06   -51421.786   0.16099447 
  105000    289.51531   -819.93138    149689.52   -47422.763    3975.7956   -51398.559   0.15539098 
  105200    296.06145   -951.88645    149856.09    -47423.13    4065.6911   -51488.822   0.15162627 
  105400    290.47306   -1102.3614    150122.01   -47410.429    3988.9479   -51399.376   0.15303239 
  105600     295.0869   -991.76053    149977.67   -47411.082     4052.308    -51463.39   0.15058819 
  105800    293.41442   -887.70351    149789.15   -47431.763    4029.3405   -51461.104   0.15732865 
  106000     298.7432    -978.5413    149949.36   -47411.673    4102.5185   -51514.192   0.15600572 
  106200    295.70224   -1111.9359    150103.83   -47384.807    4060.7582   -51445.566   0.15565473 
  106400    292.22334   -965.52672    149929.99   -47398.663    4012.9839   -51411.647   0.15650091 
  106600    295.48762   -887.89313    149835.63   -47402.112     4057.811   -51459.923   0.15776453 
  106800    291.02255   -1086.5142    150028.61    -47392.45     3996.494   -51388.944   0.16420299 
  107000    294.19802    -1059.011    150094.62   -47346.982    4040.1014   -51387.084   0.16324063 
  107200    297.76512   -976.46559    149944.92   -47337.325    4089.0869   -51426.411   0.15740058 
  107400    298.99885   -922.06279    149886.41   -47346.711    4106.0292    -51452.74   0.15238938 
  107600     299.5543   -1063.8812    150045.34   -47322.674     4113.657   -51436.331   0.15916395 
  107800    296.50081   -1056.5951    150096.69   -47343.807    4071.7247   -51415.532   0.15900527 
  108000    294.72568   -951.83132    149959.92   -47323.269    4047.3475   -51370.617    0.1590768 
  108200    298.74347   -965.52292    149956.93   -47358.467    4102.5222   -51460.989   0.15901333 
  108400    295.91703   -1051.7149    150054.68   -47353.263    4063.7078   -51416.971   0.16044391 
  108600    297.43732   -1015.7309    150035.37    -47324.67    4084.5853   -51409.255    0.1539966 
  108800    296.82207   -947.94719    149925.79   -47349.895    4076.1363   -51426.031   0.15703641 
  109000    296.33462   -999.68348    149961.58    -47389.35    4069.4424   -51458.792   0.16212772 
  109200    292.55948   -1011.1728    150058.99   -47388.699       4017.6   -51406.299   0.15407682 
  109400    296.82793   -994.42878    149995.45   -47375.465    4076.2169   -51451.682   0.15300516 
  109600    292.75565   -924.96151    149901.92   -47336.678    4020.2938   -51356.972   0.15661039 
  109800    291.21767    -995.7849    149986.76   -47388.266    3999.1734   -51387.439   0.16250373 
  110000    297.83715   -1098.6371    150082.25   -47324.416     4090.076   -51414.492   0.16341336 
  110200    296.30262   -1016.7709    149989.25   -47311.882     4069.003   -51380.885   0.16398028 
  110400    292.43512   -916.46563    149904.72   -47364.161    4015.8922   -51380.053   0.16492999 
  110600    297.60691   -1014.2406    150015.38   -47438.223    4086.9143   -51525.137   0.15741525 
  110800     294.7674   -1085.3447    150078.67    -47431.64    4047.9204    -51479.56   0.15674213 
  111000     289.0621   -956.31429    149936.87   -47434.723    3969.5719   -51404.295   0.15918162 
  111200     293.2487   -988.58017    149897.59   -47423.646    4027.0647    -51450.71   0.16350974 
  111400     290.5624   -1051.9968    150001.71   -47476.187    3990.1748   -51466.362     0.157083 
  111600    291.19394   -1032.0868    149975.12    -47531.33    3998.8475   -51530.177   0.15495678 
  111800    287.53847   -922.37526    149813.23   -47566.125    3948.6484   -51514.773   0.15317935 
  112000     288.7243   -978.16594    149847.84   -47558.107     3964.933   -51523.041   0.15678747 
  112200    294.88156   -1072.3195    150010.55   -47512.857    4049.4881   -51562.345   0.15596821 
  112400    292.28031    -1005.943    149967.17    -47481.65    4013.7663   -51495.417   0.16134512 
  112600    291.39246   -918.72265    149814.23   -47458.861    4001.5737   -51460.435   0.16554561 
  112800    292.28932   -998.35129    149923.54   -47474.647      4013.89   -51488.537   0.15503149 
  113000    292.65609   -1108.4731    150082.97   -47448.465    4018.9267   -51467.391   0.15885961 
  113200    291.76899    -1018.331    149899.43   -47485.974    4006.7445   -51492.718   0.16201276 
  113400    299.85897   -827.65504    149689.38   -47470.055    4117.8408   -51587.896   0.15553762 
  113600    296.50266   -1018.4468     149912.1    -47471.73      4071.75    -51543.48   0.15541267 
  113800    296.70976   -1168.9311    150133.26   -47449.899     4074.594   -51524.493    0.1540883 
  114000    294.22264    -974.0973    149858.35   -47438.423    4040.4394   -51478.862   0.15548376 
  114200    291.04971   -826.58151    149684.03   -47454.293    3996.8669    -51451.16   0.15812433 
  114400    294.63586   -1109.5152    150072.06   -47389.403     4046.114   -51435.517   0.16352841 
  114600    299.40351   -1203.8188     150222.8   -47358.806    4111.5862   -51470.392   0.16339841 
  114800    298.83084   -881.05594    149788.88   -47350.315    4103.7219   -51454.037    0.1613792 
  115000    294.68382   -818.84989    149683.72   -47381.478    4046.7726   -51428.251    0.1579661 
  115200    294.72723   -1221.5307    150177.91   -47390.606    4047.3687   -51437.975   0.16613013 
  115400    289.18866   -1187.9361    150189.26   -47400.584    3971.3098   -51371.894   0.16330944 
  115600    295.66954   -811.28715    149629.92   -47391.414    4060.3092   -51451.723   0.15927059 
  115800    300.50162   -800.44967    149692.94   -47408.049    4126.6661   -51534.716   0.15451189 
  116000     297.4123    -1255.648    150275.44    -47383.95    4084.2417   -51468.192   0.15783429 
  116200     295.8844   -1124.6481    150134.26   -47403.149    4063.2597   -51466.409   0.15935111 
  116400    296.10348   -736.25834    149543.61   -47454.103    4066.2683   -51520.371   0.15690875 
  116600    292.65127   -899.40759    149773.33   -47464.197    4018.8604   -51483.058    0.1542011 
  116800    296.66872   -1291.0948    150383.12    -47410.36    4074.0304    -51484.39   0.16191426 
  117000    293.31547   -1125.6001    150099.58   -47422.542    4027.9816   -51450.524   0.16454873 
  117200    298.63099   -653.60294     149510.3    -47419.43    4100.9775   -51520.407   0.15146845 
  117400    292.76803   -945.67913    149859.55    -47443.34    4020.4639   -51463.803   0.15312144 
  117600     294.0825   -1296.5949    150368.57   -47414.017     4038.515   -51452.532   0.16109656 
  117800    295.18514   -1025.5996     149977.8   -47380.167    4053.6571   -51433.824   0.16383133 
  118000    294.05735   -702.25664     149539.1   -47377.513    4038.1696   -51415.683   0.15422138 
  118200    296.13303   -1029.0564    149978.69   -47407.621    4066.6741   -51474.295   0.15401595 
  118400    295.61222   -1316.0097    150349.18    -47451.76     4059.522   -51511.283   0.15981123 
  118600    294.60661   -978.95171    149848.47   -47486.829    4045.7124   -51532.541   0.15876386 
  118800    290.75444   -729.24534    149519.77   -47540.845    3992.8121   -51533.657   0.15202896 
  119000     288.3397   -1125.5139    150025.97   -47534.106    3959.6514   -51493.757   0.16275406 
  119200    288.11663   -1241.6088    150276.78   -47530.612    3956.5881     -51487.2   0.16240109 
  119400    291.49057   -891.32749     149782.8   -47565.463    4002.9211   -51568.384   0.15014496 
  119600    291.32841   -768.57013    149611.88   -47506.729    4000.6942   -51507.423   0.15379563 
  119800      293.834   -1133.9845    150076.33   -47497.075    4035.1025   -51532.178   0.15710071 
  120000    289.10088     -1166.21    150171.82   -47512.602    3970.1044   -51482.706   0.15993154 
  120200    289.45259   -871.00603    149756.23   -47491.603    3974.9343   -51466.537   0.15037502 
  120400    291.56316   -911.49668    149727.88   -47539.464    4003.9179   -51543.382   0.15045877 
  120600    290.07216   -1095.8489    150049.15    -47527.81    3983.4426   -51511.252    0.1568361 
  120800    296.18371   -1105.3155    150020.61   -47520.038      4067.37   -51587.408   0.16069546 
  121000     292.2306   -895.86562    149757.55   -47507.722    4013.0836   -51520.805    0.1565395 
  121200    291.28726   -913.15358    149813.07   -47505.136    4000.1291   -51505.265    0.1536175 
  121400    289.77872   -1090.3064    150023.36   -47500.951     3979.413   -51480.364    0.1572471 
  121600    295.60702   -998.54702    149941.54   -47492.737    4059.4505   -51552.188   0.15473494 
  121800    294.25033   -967.83828    149785.47   -47493.203    4040.8197   -51534.023   0.16161936 
  122000    295.26311   -970.18498    149839.99   -47469.168    4054.7278   -51523.896   0.15567287 
  122200    296.34369   -1036.1087    149979.83   -47434.418     4069.567   -51503.985   0.15605296 
  122400      297.918    -998.2989    149949.25   -47387.972    4091.1863   -51479.158   0.15705613 
  122600    297.58139   -980.08128    149872.85   -47309.922    4086.5639   -51396.485     0.163882 
  122800    298.23651   -1027.5113    149964.54   -47308.151    4095.5602   -51403.711   0.17212383 
  123000     300.9566   -1038.4795     150025.9   -47355.552    4132.9142   -51488.467   0.16533283 
  123200    295.97435   -999.19655    149937.38   -47379.783     4064.495   -51444.278   0.16312535 
  123400    290.18093   -944.01633    149834.44   -47464.404    3984.9363   -51449.341   0.15690125 
  123600    294.58493   -1009.2306    149907.78   -47411.457    4045.4147   -51456.872   0.16651649 
  123800    293.21053   -1046.1801    150022.45   -47431.997    4026.5406   -51458.538   0.16391092 
  124000    295.30725   -1043.0772    149930.65   -47416.828     4055.334   -51472.162   0.15516891 
  124200    292.95226   -915.21011    149801.84   -47401.908    4022.9938   -51424.901   0.15578267 
  124400     292.7662   -1014.0667    149943.91   -47413.464    4020.4387   -51433.902   0.16552179 
  124600    294.62175    -1116.588    150058.39   -47430.742    4045.9203   -51476.662   0.16814044 
  124800    289.75342   -951.16483    149846.85   -47436.673    3979.0655   -51415.738   0.16202508 
  125000    290.23064   -888.85424    149714.87    -47448.34    3985.6189   -51433.959   0.16383649 
  125200    291.44656   -1064.5967    149941.96   -47435.782    4002.3166   -51438.098   0.16477094 
  125400    291.72382   -1086.4288    150063.55   -47501.367    4006.1241   -51507.491   0.16342725 
  125600    296.67228   -888.44813    149793.47   -47499.417    4074.0793   -51573.496   0.15396186 
  125800     291.9227   -846.35439    149689.09   -47491.054    4008.8553   -51499.909   0.15704196 
  126000    290.12005   -1064.8067    150011.25    -47453.13    3984.1003    -51437.23   0.16068952 
  126200    298.08699   -1114.3159    150127.58   -47431.605     4093.507   -51525.112   0.15255422 
  126400    288.72673   -936.41501    149800.44   -47465.758    3964.9663   -51430.724   0.16353097 
  126600    293.90528   -842.40435    149710.42   -47493.691    4036.0813   -51529.772   0.15835612 
  126800    293.38755   -1128.6462    150075.62   -47459.065    4028.9715   -51488.036   0.16285525 
  127000    292.76896   -1180.5699    150136.36   -47475.465    4020.4766   -51495.941   0.16165697 
  127200    293.56663   -892.31115    149736.26   -47516.438    4031.4307   -51547.869   0.16260272 
  127400    291.05943   -832.63244    149707.89   -47516.084    3997.0004   -51513.084   0.16483796 
  127600    292.29843   -1134.6277    150139.19   -47504.694    4014.0151   -51518.709    0.1599054 
  127800    287.57112   -1155.5559    150081.17   -47494.052    3949.0968   -51443.149   0.15993993 
  128000    296.04075   -812.46137     149636.7   -47498.606    4065.4068   -51564.013   0.15215695 
  128200    297.02062   -887.48952    149760.61   -47462.504     4078.863   -51541.367   0.15955152 
  128400     292.0226   -1270.3433     150215.4   -47482.848    4010.2272   -51493.075     0.163815 
  128600    288.22159   -1077.8403     149993.7    -47517.41    3958.0295    -51475.44   0.15783477 
  128800    295.15579   -719.44257    149533.53   -47560.856     4053.254    -51614.11   0.15237054 
  129000    287.51456   -958.64538    149804.05   -47592.509    3948.3202   -51540.829    0.1553293 
  129200    289.64983   -1244.1932    150243.98   -47541.499    3977.6429   -51519.142   0.16476553 
  129400    290.51406   -1070.6187    149948.83   -47545.811     3989.511   -51535.322   0.16703227 
  129600    289.89536   -715.70695    149547.49   -47550.413    3981.0147   -51531.428   0.15812974 
  129800    289.46917   -985.94319     149876.8   -47558.455     3975.162   -51533.617    0.1522236 
  130000    288.91331   -1234.6446     150192.4   -47561.954    3967.5286   -51529.483   0.15425768 
  130200    288.33054   -938.22596    149793.72   -47586.559    3959.5257   -51546.085   0.15709192 
  130400    289.79096    -765.8196    149530.37   -47574.161    3979.5809   -51553.742   0.15451236 
  130600    290.23137   -1053.2261    149966.28   -47522.758    3985.6289   -51508.387   0.15075341 
  130800    291.00404   -1259.4303    150220.88   -47539.304    3996.2397   -51535.544   0.15571156 
  131000    289.95061   -909.37755    149752.58   -47565.327    3981.7734     -51547.1   0.16034386 
  131200    290.14136   -765.79266    149538.74   -47541.399    3984.3929   -51525.792   0.15976679 
  131400    291.10613   -1142.0615    150050.04   -47536.704    3997.6416   -51534.346   0.16250877 
  131600     289.7621    -1286.021    150204.23   -47527.045    3979.1847    -51506.23   0.16405554 
  131800    290.75946   -843.71868    149699.54   -47506.281     3992.881   -51499.162   0.15981498 
  132000    296.54889    -783.0326    149664.03   -47452.791    4072.3849   -51525.176   0.15562512 
  132200    294.84747   -1192.4743    150215.72   -47451.074    4049.0199   -51500.094   0.15826824 
  132400     294.5171   -1166.2831    150177.02   -47454.787    4044.4831    -51499.27   0.15686949 
  132600    292.83928   -766.45907    149644.43   -47438.445    4021.4423   -51459.887   0.15012638 
  132800    289.64057   -850.88419    149767.61   -47407.281    3977.5158   -51384.797    0.1548875 
  133000    289.49061   -1227.1634    150293.67   -47393.719    3975.4564   -51369.175   0.16470902 
  133200    298.84016   -1065.5357    150132.65   -47343.755    4103.8499   -51447.605   0.16499842 
  133400      300.288   -780.47645    149671.11   -47337.752    4123.7326   -51461.484   0.15851745 
  133600    296.23365    -941.7984    149900.37   -47348.507    4068.0559   -51416.563   0.15823405 
  133800    296.51875   -1226.1093    150269.29   -47362.673     4071.971   -51434.644   0.16953309 
  134000    295.40893   -1013.3911    149953.77   -47316.819    4056.7302   -51373.549   0.16857195 
  134200    303.51356   -757.12466    149659.92   -47336.446    4168.0279   -51504.474    0.1514939 
  134400    299.08431    -1052.024    150012.16    -47329.71    4107.2027   -51436.913   0.15301068 
  134600    296.61446   -1206.7435    150241.91   -47342.024    4073.2853   -51415.309   0.16061004 
  134800    291.89595   -953.54463    149876.27   -47389.561     4008.488   -51398.049   0.16171303 
  135000    294.64675   -829.16798    149688.32   -47449.387    4046.2636    -51495.65   0.15691998 
  135200     295.7908    -1065.799    150027.01   -47455.145    4061.9744    -51517.12   0.15405086 
  135400    293.09039   -1204.8227    150158.69   -47473.447    4024.8906   -51498.338   0.16517194 
  135600    293.81899   -935.05527    149818.69   -47442.154    4034.8963    -51477.05   0.16154713 
  135800    290.53403   -916.50723    149753.02   -47515.198    3989.7853   -51504.983   0.16262012 
  136000     283.7155   -1120.4561    149998.14   -47542.726    3896.1492   -51438.876   0.16854996 
  136200    290.48321   -1049.0826    150002.89    -47554.32    3989.0874   -51543.407   0.15575479 
  136400     296.8123   -899.78276    149815.26   -47511.135    4076.0022   -51587.137   0.14798325 
  136600    293.25517   -970.35333    149897.65   -47452.398    4027.1535   -51479.551   0.15244902 
  136800    295.81715   -1085.4729    150060.12   -47459.591    4062.3362   -51521.928   0.16228733 
  137000    291.44411   -1015.7248    149946.62   -47466.007     4002.283    -51468.29   0.15914625 
  137200    297.86845   -913.95534    149794.65   -47501.685    4090.5058   -51592.191   0.14718415 
  137400    295.21175   -1002.8944    149906.17   -47457.223    4054.0225   -51511.245    0.1594035 
  137600    295.18143   -1072.4278    150017.77   -47446.475    4053.6061   -51500.081   0.16825185 
  137800    294.40565   -1009.2414    149877.36   -47422.127    4042.9527    -51465.08   0.16397153 
  138000     294.4425   -919.75572    149766.33   -47420.676    4043.4587   -51464.135   0.15865349 
  138200     289.7557   -1020.7072       149911   -47468.917    3979.0968   -51448.014   0.15912604 
  138400    287.48389   -1074.2174    150006.47   -47452.057     3947.899   -51399.956    0.1656092 
  138600    295.80428   -942.90789     149903.9   -47467.317    4062.1594   -51529.476   0.15178469 
  138800    294.31379   -941.20588    149842.92   -47417.626    4041.6912   -51459.317   0.15621285 
  139000    296.80558   -1027.8769    149965.41   -47404.399    4075.9099   -51480.309   0.15673904 
  139200    294.74171   -1055.4991    150025.31   -47403.654    4047.5677   -51451.221   0.15818518 
  139400    294.93135   -945.33668    149886.59    -47432.78    4050.1719   -51482.952   0.15673172 
  139600    296.21312   -948.27216     149842.2   -47415.939    4067.7739   -51483.713   0.16295211 
  139800    296.97557   -1074.6743    150013.62   -47372.692    4078.2443   -51450.937   0.16368934 
  140000    300.33331    -1041.818    150038.32   -47338.703    4124.3547   -51463.058   0.15634588 
  140200    297.28122   -962.60821    149873.87   -47383.582    4082.4416   -51466.024   0.15678282 
  140400    295.72361   -987.53279    149864.13   -47409.706    4061.0517   -51470.757   0.16633517 
  140600    295.50406   -1092.0051    150019.49   -47406.993    4058.0367    -51465.03   0.16138554 
  140800    293.93499   -982.02454    149952.95   -47399.653    4036.4892   -51436.142   0.15192049 
  141000    290.81988   -892.88809    149778.71   -47439.679    3993.7107    -51433.39    0.1489569 
  141200    296.01649   -949.62291    149886.42    -47389.67    4065.0737   -51454.743   0.15707318 
  141400    293.24381   -1177.4232    150129.93   -47390.809    4026.9976   -51417.807   0.17013616 
  141600    295.28732   -1024.7343    149986.77   -47376.227    4055.0603   -51431.287   0.16012759 
  141800    293.10464   -838.14334    149731.46   -47434.324    4025.0864   -51459.411   0.15642702 
  142000    296.11027   -977.01987    149945.51   -47448.929    4066.3614   -51515.291   0.15645558 
  142200    295.26652   -1188.8697    150216.26   -47441.248    4054.7747   -51496.023   0.15814959 
  142400     294.5569   -952.60043     149892.3   -47448.779    4045.0297   -51493.809   0.15291145 
  142600     300.7671   -712.91401    149563.78   -47445.051    4130.3118   -51575.363   0.14811605 
  142800    291.16948   -1111.2851    150046.43    -47443.02    3998.5117   -51441.531   0.15843992 
  143000    290.96275   -1318.5451    150390.57   -47498.971    3995.6727   -51494.644   0.15314717 
  143200    292.51391   -888.12187    149776.59   -47475.539    4016.9742   -51492.513   0.15245739 
  143400    293.59898   -608.33495    149505.64   -47444.269     4031.875   -51476.143   0.15131437 
  143600    294.29982   -1217.1193     150250.9   -47424.253    4041.4994   -51465.753    0.1596482 
  143800    289.41045   -1338.9287    150412.84    -47432.74    3974.3556   -51407.095   0.15818151 
  144000    296.29411   -721.06669    149584.67   -47433.844    4068.8861    -51502.73   0.15217082 
  144200    297.42937   -684.12696    149555.12   -47407.794    4084.4762   -51492.271   0.15388492 
  144400    292.03462    -1342.518    150419.34   -47397.452    4010.3922   -51407.844   0.16027997 
  144600    295.85494   -1249.3029    150300.54    -47371.81    4062.8552   -51434.665   0.15293743 
  144800    293.99686     -659.302    149478.42   -47353.301    4037.3389    -51390.64   0.15285331 
  145000    294.23312   -805.24764    149701.77   -47395.908    4040.5834   -51436.491   0.15387456 
  145200    294.65436   -1349.4701    150445.82   -47413.926    4046.3681   -51460.294   0.15394913 
  145400    296.32975   -1132.9123    150142.18   -47422.659    4069.3755   -51492.035   0.15291461 
  145600    289.92057    -648.9511     149486.7   -47448.679    3981.3609    -51430.04   0.15272199 
  145800    295.32364    -901.9085    149818.54   -47462.201     4055.559    -51517.76   0.15445187 
  146000    290.85824   -1353.2627     150392.9   -47439.509    3994.2375   -51433.746   0.16704109 
  146200    299.65077   -1049.1505    150031.62   -47477.716    4114.9817   -51592.697   0.15403764 
  146400    294.78805    -707.4088    149536.89   -47436.089     4048.204   -51484.293   0.15084435 
  146600    296.02425   -945.88633    149904.61   -47395.598    4065.1803   -51460.778   0.15098614 
  146800    297.54688    -1252.335    150297.32   -47344.443    4086.0898   -51430.533    0.1620628 
  147000    293.26868   -1027.8286    149935.22   -47363.672     4027.339   -51391.011   0.16134632 
  147200    294.20407   -751.90802    149642.31    -47335.15    4040.1844   -51375.335   0.15722134 
  147400    298.75158   -1022.2818    150029.62   -47397.341    4102.6336   -51499.974   0.15483772 
  147600    290.95284   -1208.1347    150217.54   -47406.275    3995.5366   -51401.812   0.16095082 
  147800    294.03748    -926.3534    149829.62    -47454.62    4037.8967   -51492.516   0.15632534 
  148000    296.39687   -809.09578    149672.92   -47422.486    4070.2973   -51492.783   0.15896249 
  148200    297.02237   -1104.5262    150049.74   -47459.672    4078.8869   -51538.559   0.15529855 
  148400    288.13654   -1210.3433    150128.54   -47506.521    3956.8615   -51463.383   0.15858742 
  148600    292.59066   -872.32943    149763.73   -47481.187    4018.0281   -51499.215   0.15515199 
  148800    289.82093   -892.40662    149750.38   -47484.335    3979.9926   -51464.327   0.15282992 
  149000    292.07152   -1161.3906    150096.51   -47486.553     4010.899   -51497.452   0.15188446 
  149200    289.77804   -1111.6697    150064.22   -47492.397    3979.4036   -51471.801   0.15284601 
  149400    290.20409   -857.06891    149742.41   -47518.818    3985.2543   -51504.072   0.15276719 
  149600    291.97043   -912.90241    149781.78   -47518.628    4009.5108   -51528.139   0.14844223 
  149800    288.54884   -1097.6461    150088.12   -47499.906    3962.5235    -51462.43   0.15199174 
  150000    291.86482   -1106.3979    150042.64    -47459.48    4008.0605   -51467.541   0.16071721 
  150200    289.57148   -905.08527    149768.71   -47407.934     3976.567   -51384.501   0.16172405 
  150400    298.56837   -930.16831    149860.99   -47378.505    4100.1176   -51478.623   0.15547677 
  150600    291.08438   -1152.5366    150150.24   -47425.035     3997.343   -51422.378   0.16388964 
  150800    293.16144   -1006.5811    149995.04   -47390.143    4025.8664    -51416.01   0.15956405 
  151000    299.08288   -828.17291    149731.31   -47434.139    4107.1831   -51541.323   0.14758293 
  151200    292.23565   -951.36732    149884.49   -47418.785    4013.1529   -51431.938   0.15185515 
  151400    300.84755   -1113.1294    150130.21   -47328.316    4131.4166   -51459.733   0.16116597 
  151600    299.81065   -1022.5441    150002.77   -47316.089    4117.1773   -51433.266   0.16399903 
  151800    299.56641    -910.9382    149811.44   -47331.801    4113.8233   -51445.624   0.15970618 
  152000    297.34325   -978.57673    149982.09   -47331.006    4083.2934     -51414.3   0.15789786 
  152200    291.48946   -1163.0961    150148.61   -47348.255    4002.9058   -51351.161   0.16222248 
  152400    293.15549   -963.89146    149907.59   -47400.358    4025.7848   -51426.143   0.15687759 
  152600    294.33586   -821.15054    149725.26   -47371.785    4041.9943   -51413.779    0.1598509 
  152800    297.94034   -1080.2326    150090.87   -47299.026    4091.4931   -51390.519   0.16154284 
  153000    297.45937   -1257.0775    150308.26    -47364.77    4084.8881   -51449.658   0.15818933 
  153200    298.97595   -869.52933    149794.18   -47313.201    4105.7147   -51418.916    0.1550175 
  153400    295.40132   -713.20745    149573.35   -47371.213    4056.6257   -51427.838   0.14878913 
  153600    295.67629   -1197.2127    150238.12   -47389.032    4060.4019   -51449.433   0.15619408 
  153800    295.98677   -1305.9069    150365.51   -47414.238    4064.6655   -51478.903   0.15808973 
  154000     291.9895   -710.55234    149519.74    -47441.28    4009.7726   -51451.053   0.15340665 
  154200    292.99318   -657.02499    149490.49   -47387.402    4023.5558   -51410.958   0.15519495 
  154400    297.10971   -1376.6311    150460.58   -47367.332    4080.0864   -51447.418   0.16794312 
  154600     295.3496   -1294.7917    150368.48   -47389.654    4055.9155    -51445.57   0.16391677 
  154800    290.94944   -623.42045    149375.94   -47419.803    3995.4899   -51415.293   0.15225292 
  155000    292.04066   -754.98851    149623.06   -47406.954    4010.4752   -51417.429   0.15170609 
[...]
  163200    289.38566   -848.11437    149711.59   -47477.713    3974.0152   -51451.728   0.15474826 
  163400    297.14556   -797.56135    149647.69   -47514.237    4080.5787   -51594.816   0.15052316 
  163600    293.87645   -1201.7841    150182.65   -47454.708    4035.6853   -51490.394   0.15741027 
  163800    296.33951   -1185.8556    150178.29   -47514.339    4069.5095   -51583.848   0.15209789 
  164000    291.78039   -740.30135    149511.48   -47540.898     4006.901   -51547.799   0.14887992 
  164200    295.74013   -800.68516    149607.67   -47537.038    4061.2785   -51598.317   0.14772495 
  164400    293.11062   -1331.1522     150403.1   -47464.532    4025.1685   -51489.701   0.15960932 
  164600    294.52822   -1218.3544    150202.78   -47446.428    4044.6359   -51491.064   0.16676122 
  164800    289.03438   -523.18775    149326.77    -47496.13    3969.1911   -51465.321   0.15209433 
  165000     294.3706   -791.39529    149687.01   -47470.539    4042.4713   -51513.011   0.15309824 
  165200    289.80725    -1534.027    150640.45   -47448.943    3979.8047   -51428.748   0.16811509 
  165400    290.27393   -1166.9908    150125.66   -47485.753    3986.2134   -51471.967   0.16012322 
  165600    293.74677   -399.14771    149211.51    -47435.95    4033.9046   -51469.854   0.14784682 
  165800    294.59692   -920.29197    149865.86   -47456.599    4045.5793   -51502.178   0.14742143 
  166000    291.65933   -1539.7606    150651.08   -47399.644    4005.2385   -51404.883   0.16423426 
  166200    291.81089   -996.14098    149915.57     -47442.4    4007.3199    -51449.72   0.15376013 
  166400    296.77368   -522.80743    149302.11   -47446.201    4075.4718   -51521.673   0.14945877 
  166600    296.00898   -1059.7561    149996.48   -47433.591    4064.9706   -51498.562    0.1619511 
  166800    287.38216   -1397.7265    150419.42   -47484.668     3946.502    -51431.17   0.16513209 
  167000    294.92194   -892.64849    149816.06    -47494.48    4050.0427   -51544.523   0.15115976 
  167200    292.82987   -734.69559    149552.49   -47445.374     4021.313   -51466.687   0.15210652 
  167400    287.60803   -1148.3106    150060.32   -47485.425    3949.6037   -51435.028   0.16154474 
  167600    291.38164   -1227.8796    150231.95   -47464.302    4001.4252   -51465.727   0.16162357 
  167800    286.88839    -903.5039    149768.19   -47540.253    3939.7212   -51479.974   0.15250089 
  168000    294.01089   -779.99374    149646.99   -47531.105    4037.5316   -51568.636   0.14391129 
  168200    289.01404   -1107.1447    150051.27    -47522.45    3968.9118   -51491.362   0.15314925 
  168400    286.30285    -1147.914    150098.35   -47477.419    3931.6802   -51409.099   0.16020314 
  168600    290.85477   -884.49614    149746.87   -47493.939    3994.1898   -51488.128   0.15690347 
  168800    290.91129   -917.82836    149761.61   -47535.261     3994.966   -51530.227    0.1608279 
  169000    288.98406   -1152.1242    150076.69   -47515.984    3968.5001   -51484.485   0.15984051 
  169200    297.09206   -1092.7171    150054.72   -47484.444     4079.844   -51564.288    0.1570434 
  169400    285.78452    -911.8916    149743.18   -47514.667    3924.5622   -51439.229   0.15911365 
  169600    289.51568   -893.22875     149744.2    -47525.49    3975.8007    -51501.29   0.15103414 
  169800    295.09081   -1112.6556    150040.11   -47526.933    4052.3616   -51579.295    0.1511656 
  170000    284.74475   -1108.9118    150005.12   -47565.299    3910.2834   -51475.582   0.15749507 
  170200    290.21382   -884.24209    149706.08   -47579.852     3985.388    -51565.24   0.15307001 
  170400    291.92031   -887.80437     149756.9   -47548.132    4008.8224   -51556.954   0.14818422 
  170600    289.29018   -1142.8483    150048.11   -47525.022     3972.704   -51497.726   0.15468299 
  170800    295.64426   -1020.0357    149980.44   -47550.789     4059.962   -51610.751   0.14766418 
  171000      288.489   -894.26323     149710.1   -47553.508    3961.7018    -51515.21   0.15598002 
  171200    292.13263   -944.62958    149840.45   -47579.473    4011.7382   -51591.212   0.14748066 
  171400     291.0373   -1140.2712    150110.36   -47570.186    3996.6965   -51566.882   0.15008497 
  171600    281.68852   -1010.0197    149928.95   -47535.842    3868.3135   -51404.155   0.15355016 
  171800    292.66187   -818.94696    149722.59   -47518.088     4019.006   -51537.094   0.14606389 
  172000    298.89584    -986.6437    149966.95   -47522.113    4104.6146   -51626.728   0.14719116 
  172200    291.97298   -1091.3081    150148.24   -47523.741    4009.5458   -51533.287   0.15308846 
  172400     291.7502   -953.56203    149907.65   -47494.814    4006.4865   -51501.301    0.1462153 
  172600    290.12269   -864.90156    149763.74   -47481.924    3984.1365   -51466.061   0.14763313 
  172800    294.67845   -1071.1844    150087.14   -47487.042     4046.699   -51533.741   0.15313301 
  173000    291.00762   -1160.9713    150195.74   -47503.622    3996.2889   -51499.911   0.15553246 
  173200    291.32494   -893.86363    149801.59   -47548.796    4000.6465   -51549.443   0.15101626 
  173400    289.93887   -807.90774    149711.94   -47535.307    3981.6122   -51516.919   0.15205039 
  173600    286.03937   -1151.6256    150160.06   -47478.494     3928.062   -51406.556   0.15675418 
  173800    292.14126   -1205.5454    150205.65   -47478.771    4011.8567   -51490.628   0.15758513 
  174000    297.21405   -719.23257    149635.32   -47451.228    4081.5193   -51532.747   0.14568147 
  174200    295.88754   -788.34359     149707.7   -47445.239    4063.3028   -51508.541   0.14818909 
  174400    295.21566   -1283.6314    150421.68   -47416.828    4054.0761   -51470.905   0.14948123 
  174600    296.21182   -1196.2429    150234.05   -47430.455     4067.756   -51498.211   0.15061745 
  174800    297.01301   -575.50256    149422.56   -47405.164    4078.7584   -51483.923   0.14934442 
  175000    294.07134   -883.08935    149782.19   -47450.489    4038.3616    -51488.85   0.14880832 
  175200    291.90561    -1445.612    150604.51   -47433.834    4008.6207   -51442.455   0.15915112 
  175400    291.82838   -1128.4981    150101.61   -47451.806      4007.56   -51459.366    0.1556407 
  175600    296.04298   -510.20512    149282.41   -47473.042    4065.4374    -51538.48   0.14513222 
  175800    297.55073   -976.63288    149879.53   -47451.665    4086.1428   -51537.808   0.15181416 
  176000    290.36322   -1497.0476    150615.18   -47424.567    3987.4395   -51412.007   0.16563042 
  176200    300.03007   -988.35527    149954.75   -47385.238    4120.1904   -51505.428   0.15002566 
  176400    298.64792   -557.20583    149371.16   -47432.481    4101.2101   -51533.691   0.14133942 
  176600    298.51842   -1037.8531    150017.94   -47404.671    4099.4316   -51504.103   0.15095118 
  176800    293.63184   -1320.4638    150414.93    -47403.86    4032.3262   -51436.186   0.16081817 
  177000    291.36557    -982.8346    149872.13   -47428.686    4001.2045    -51429.89   0.15501915 
  177200    296.52471   -797.15818    149632.59   -47447.807    4072.0529    -51519.86   0.15224235 
  177400    291.95055   -1091.3974    150023.42   -47532.471    4009.2378   -51541.708   0.15498256 
  177600    290.38871   -1105.5402    150142.16    -47494.02    3987.7896    -51481.81   0.15285316 
  177800     293.5415   -952.74247       149867   -47477.469    4031.0856   -51508.555    0.1537005 
  178000    293.21059   -901.91386    149797.64   -47436.027    4026.5413   -51462.569    0.1587991 
  178200    291.44788   -1068.7665    150021.06   -47467.853    4002.3348   -51470.188   0.15352564 
  178400    294.55182   -1107.1926    150040.42   -47443.838    4044.9599   -51488.798   0.15298368 
  178600    293.30943   -928.27629    149822.07   -47462.349    4027.8986   -51490.248   0.14843207 
  178800     295.0925   -931.74179    149829.22   -47431.196    4052.3848   -51483.581   0.15215086 
  179000    298.03598   -1073.8544    150090.66   -47400.855    4092.8065   -51493.662    0.1512231 
  179200    296.87343   -1089.3292    150091.68     -47425.3    4076.8417   -51502.142   0.15302945 
  179400    300.35762   -882.83734    149824.18   -47403.576    4124.6886   -51528.264   0.14928202 
  179600    293.73642   -933.45899    149905.33     -47409.2    4033.7624   -51442.962   0.14985471 
  179800    289.67113   -1126.1311     150155.8   -47433.721    3977.9355   -51411.656   0.15309741 
  180000    298.41955   -1025.2437    150067.67   -47401.507    4098.0739   -51499.581   0.14832164 
  180200    293.44198   -904.41733    149863.67   -47366.013    4029.7189   -51395.732   0.15052514 
  180400    295.92364   -980.09732    149988.53   -47320.054    4063.7986   -51383.853   0.15293709 
  180600    294.34254   -1153.3712    150170.93   -47406.633     4042.086   -51448.719   0.15424268 
  180800     297.0727   -992.95499    149980.09   -47373.912    4079.5781   -51453.491    0.1512773 
  181000    296.58436    -920.4911    149808.06   -47418.551    4072.8719   -51491.423   0.14909394 
  181200    293.69324   -1005.3209    149997.38   -47399.334    4033.1694   -51432.503   0.15541258 
  181400    292.26604   -1136.7229    150109.11   -47436.187    4013.5703   -51449.758   0.16160274 
  181600    293.66364   -960.72753    149850.05   -47461.118    4032.7629   -51493.881   0.15586661 
  181800    294.36724   -878.21137    149756.57    -47433.31    4042.4252   -51475.735   0.15235798 
  182000    293.94941   -1130.3995    150055.03     -47436.9    4036.6873   -51473.587   0.15662848 
  182200    292.98665   -1127.3148    150084.77   -47452.316    4023.4662   -51475.783   0.15413778 
  182400    296.99277   -858.08998    149744.82   -47458.076    4078.4805   -51536.557   0.14921018 
  182600    295.31509   -921.43016    149792.77   -47420.756    4055.4416   -51476.198   0.15685928 
  182800    288.97768   -1195.6246    150178.62   -47378.751    3968.4126   -51347.164    0.1590728 
  183000    296.22873   -1089.8746    150103.85   -47380.638    4067.9882   -51448.626   0.15009595 
  183200    293.58949   -796.33922    149730.97   -47367.443    4031.7446   -51399.188   0.14962636 
  183400    289.72459   -907.83964     149906.8   -47374.314    3978.6696   -51352.984    0.1566095 
  183600    291.45331   -1244.4412    150337.12   -47397.705    4002.4094   -51400.114   0.15939918 
  183800    294.69014   -1052.8837    150058.99   -47434.976    4046.8594   -51481.836   0.14879589 
  184000    293.46764   -725.43265    149604.06   -47454.876    4030.0714   -51484.947   0.15162476 
  184200    298.81875   -970.06483     149980.3   -47494.525     4103.556   -51598.081   0.14278093 
  184400    289.52687   -1301.4878    150352.33   -47495.748    3975.9543   -51471.702   0.15050438 
  184600    292.51852   -896.76043    149852.61   -47512.258    4017.0375   -51529.296   0.14686105 
  184800    291.36171   -699.93892    149543.23   -47504.357    4001.1515   -51505.508   0.14867784 
  185000    294.67099   -1134.8411    150127.58    -47487.84    4046.5964   -51534.437   0.15315755 
  185200    288.26481    -1306.455    150388.58   -47540.471    3958.6229   -51499.094   0.15433205 
  185400    294.77809   -799.94743    149713.91   -47529.153    4048.0672    -51577.22   0.14282279 
  185600    290.91257   -691.50676    149539.48   -47535.234    3994.9835   -51530.217   0.14608922 
  185800    294.05816   -1206.1589    150253.73   -47470.037    4038.1807   -51508.218   0.15575673 
  186000    291.02138   -1285.6193    150333.27   -47453.061    3996.4778   -51449.539   0.16666529 
  186200    295.90872   -747.10426    149604.33   -47454.512    4063.5937   -51518.106   0.15161372 
  186400    298.42501   -763.53912    149645.36   -47404.072    4098.1489   -51502.221   0.14987999 
  186600    293.27197   -1276.6008    150383.59   -47426.892    4027.3843   -51454.276   0.15703992 
  186800    288.71363   -1195.2914    150256.33   -47453.886    3964.7864   -51418.673   0.15797699 
  187000    294.33995   -672.02798     149551.9   -47435.528    4042.0504   -51477.578   0.14763113 
  187200    291.60364   -849.70542    149778.99   -47453.145    4004.4738   -51457.619   0.15270413 
  187400    295.13758   -1271.1642    150391.72    -47428.99    4053.0039   -51481.994   0.14977814 
  187600     292.8874   -1075.8398     150094.6   -47474.657    4022.1031    -51496.76   0.14787544 
  187800    294.01897   -721.88592     149580.5   -47470.892    4037.6426   -51508.535   0.14776294 
  188000    293.62228     -920.415    149916.11   -47440.711    4032.1949   -51472.906   0.15522671 
  188200     295.0226   -1251.3049    150322.91   -47424.431     4051.425   -51475.856   0.16356797 
  188400    295.67001   -953.42392    149994.34   -47416.999    4060.3156   -51477.314   0.15227224 
  188600    290.72241   -811.96415    149700.59   -47426.895    3992.3722   -51419.267   0.15545819 
  188800    292.07961   -1031.1286    149994.34   -47437.419      4011.01   -51448.429   0.15441354 
  189000    294.33985   -1150.3756       150203   -47426.339     4042.049   -51468.388   0.15419751 
  189200    293.18643   -999.11552    149987.35   -47433.881    4026.2096    -51460.09   0.15325987 
  189400    291.33507   -906.62116    149846.73   -47397.267    4000.7856   -51398.053    0.1561041 
  189600    291.02641   -1001.7113    149995.43    -47408.75    3996.5469   -51405.297   0.15484094 
  189800    296.61488   -1050.2197    150072.29   -47447.527    4073.2911   -51520.818   0.15176539 
  190000    289.78692   -972.21384    149937.34   -47480.824    3979.5255    -51460.35   0.15450141 
  190200     293.7759   -950.20499    149900.96   -47456.494    4034.3046   -51490.799   0.15921587 
  190400    292.76402   -1072.9156    150025.79   -47453.395    4020.4089   -51473.804   0.16336431 
  190600    293.80229   -1063.1005    150045.71   -47395.598    4034.6669   -51430.265   0.16491598 
  190800    293.58902   -988.65927    149916.77   -47431.187    4031.7382   -51462.925    0.1600301 
  191000    293.89224   -963.42402    149906.21   -47445.166    4035.9022   -51481.068   0.14772487 
  191200    297.17152   -1009.7084    150022.45   -47437.341    4080.9352   -51518.276   0.15006295 
  191400    294.69666   -1040.2558    150032.82   -47461.053     4046.949   -51508.002   0.15632774 
  191600    292.84254   -997.72042    149905.43    -47418.64    4021.4871   -51440.127   0.16260368 
  191800    297.78946   -903.17311    149906.57   -47452.676    4089.4212   -51542.097   0.15161658 
  192000    289.86017   -1051.5632    150067.85    -47449.59    3980.5314   -51430.122   0.15079204 
  192200    288.74225    -1056.776    150064.68   -47419.048    3965.1795   -51384.228   0.15517256 
  192400    297.04041   -937.27563    149900.38   -47430.075    4079.1347    -51509.21   0.15652587 
  192600    290.46401   -974.89509    149890.33   -47460.811    3988.8237   -51449.635   0.16230045 
  192800     297.1384   -1047.3525    150047.16   -47434.629    4080.4804   -51515.109   0.15435918 
  193000    293.56433   -1027.8552    150065.05   -47422.569    4031.3992   -51453.968   0.14642242 
  193200    294.75873   -967.02179    149932.77   -47378.264    4047.8014   -51426.066   0.15182593 
  193400    293.99457   -967.64931     149920.1   -47381.247    4037.3075   -51418.555   0.15785316 
  193600    290.98564   -1074.4091    150040.47   -47391.498    3995.9871   -51387.485   0.15878931 
  193800     294.3512    -1026.907    150017.72   -47441.235     4042.205    -51483.44   0.15492904 
  194000    292.67675   -936.08518    149876.09   -47469.296    4019.2103   -51488.507   0.15545848 
  194200    292.46935   -993.41151    149929.71   -47454.422    4016.3623   -51470.784   0.15046917 
  194400    295.04179   -1093.1778    150054.23   -47433.659    4051.6885   -51485.347   0.15578779 
  194600    288.37154   -989.02079    149945.99   -47458.348    3960.0887   -51418.437   0.15916016 
  194800    290.55042   -922.47746    149831.66   -47447.055    3990.0103   -51437.065   0.15937903 
  195000    299.84297   -1004.8118    149973.66   -47427.543    4117.6212   -51545.164   0.15288577 
  195200    296.15643   -1067.7098    150082.09   -47410.321    4066.9953   -51477.317   0.16026244 
  195400    293.92369   -976.71552     149929.1   -47414.333    4036.3341   -51450.667   0.15619989 
  195600    293.89321   -908.04788    149817.42   -47420.869    4035.9156   -51456.784   0.15081479 
  195800    295.00443   -1040.0932    149990.54   -47464.422    4051.1755   -51515.598   0.15224172 
  196000    293.48474    -1109.781    150071.75   -47432.301    4030.3061   -51462.607   0.15740098 
  196200    296.52181   -969.07046    149921.51     -47422.3     4072.013   -51494.313   0.15451612 
  196400    295.80379   -951.33734    149927.16   -47422.817    4062.1527    -51484.97   0.14888833 
  196600    291.29541   -1103.2796    150063.17   -47487.018     4000.241   -51487.259   0.15314283 
  196800    293.39943   -1014.6002    149973.46   -47478.815    4029.1346   -51507.949   0.15087189 
  197000    292.16803   -903.98604    149826.74   -47490.987    4012.2244   -51503.212   0.14847595 
  197200     286.8806   -1015.3672    149937.88   -47545.137    3939.6142   -51484.752   0.15370144 
  197400    289.63281   -1120.0371    150032.04   -47501.094    3977.4091   -51478.503    0.1570996 
  197600    292.91648   -977.98453    149905.36   -47415.403    4022.5025   -51437.905   0.15201169 
  197800    294.41618   -933.91671       149870   -47403.611    4043.0972   -51446.708   0.14873039 
  198000     290.6293   -1081.7018    150042.51   -47430.276    3991.0936    -51421.37   0.15955542 
  198200    296.06925   -1038.9116    150023.13   -47455.496    4065.7982   -51521.294   0.15584672 
  198400     291.2563   -931.97474    149859.38   -47382.895    3999.7039   -51382.599   0.15851992 
  198600    297.97101   -944.56902    149915.48   -47372.345    4091.9143   -51464.259   0.15200638 
  198800    293.49925   -1064.0692    150065.29   -47403.059    4030.5054   -51433.565   0.15649126 
  199000     297.2603   -1006.0321    149980.06   -47410.961    4082.1544   -51493.115   0.15600312 
  199200    292.29642   -907.82722    149827.63   -47406.759    4013.9874   -51420.747   0.15480438 
  199400    294.79409   -971.65884    149903.82   -47417.453    4048.2869    -51465.74   0.15430677 
  199600    294.92102   -1080.9599    150039.73   -47438.516      4050.03   -51488.546   0.15184955 
  199800    294.92026   -1030.6227     149908.2   -47418.873    4050.0196   -51468.893   0.15405667 
  200000    297.20708   -889.73508    149789.26   -47439.576    4081.4236       -51521   0.15328562 
Loop time of 107.391 on 6 procs for 200000 steps with 4608 atoms

Performance: 804.538 ns/day, 0.030 hours/ns, 1862.356 timesteps/s
97.7% CPU use with 6 MPI tasks x no OpenMP threads

MPI task timing breakdown:
Section |  min time  |  avg time  |  max time  |%varavg| %total
---------------------------------------------------------------
Pair    | 75.224     | 75.847     | 76.339     |   3.8 | 70.63
Neigh   | 10.687     | 10.942     | 11.369     |   9.2 | 10.19
Comm    | 9.406      | 10.336     | 11.078     |  17.5 |  9.62
Output  | 3.0813     | 3.0828     | 3.0888     |   0.2 |  2.87
Modify  | 5.7302     | 5.8262     | 5.9233     |   3.0 |  5.43
Other   |            | 1.358      |            |       |  1.26

Nlocal:        768.000 ave         777 max         761 min
Histogram: 2 0 0 1 0 1 0 1 0 1
Nghost:        1395.17 ave        1402 max        1383 min
Histogram: 1 0 0 1 0 0 0 1 2 1
Neighs:        0.00000 ave           0 max           0 min
Histogram: 6 0 0 0 0 0 0 0 0 0
FullNghs:      21862.0 ave       22134 max       21644 min
Histogram: 2 0 0 0 1 0 2 0 0 1

Total # of neighbors = 131172
Ave neighs/atom = 28.466146
Neighbor list builds = 12762
Dangerous builds = 0
write_data		data.${NAME}
write_data		data.ice_294K_-1000atm_ML
System init for write_data ...
Total wall time: 0:02:38
