

read_data data.ice_${TEMP}K_${PRES}atm_ML group ice
read_data data.ice_294K_${PRES}atm_ML group ice
read_data data.ice_294K_-1000atm_ML group ice
Reading data file ...
  orthogonal box = (-0.08788457 -0.078119618 -0.078119618) to (57.358395 50.985240 50.985240)
  3 by 1 by 2 MPI processor grid
  reading atoms ...
  4608 atoms
  reading velocities ...
  4608 velocities
  read_data CPU = 0.015 seconds
read_data data.liq_${TEMP}K_${PRES}atm_ML add append shift ${X_HI} ${YZ_LO} ${YZ_LO} group water
read_data data.liq_294K_${PRES}atm_ML add append shift ${X_HI} ${YZ_LO} ${YZ_LO} group water
read_data data.liq_294K_-1000atm_ML add append shift ${X_HI} ${YZ_LO} ${YZ_LO} group water
read_data data.liq_294K_-1000atm_ML add append shift 50.9852396175786 ${YZ_LO} ${YZ_LO} group water
read_data data.liq_294K_-1000atm_ML add append shift 50.9852396175786 0.0781196175815673 ${YZ_LO} group water
read_data data.liq_294K_-1000atm_ML add append shift 50.9852396175786 0.0781196175815673 0.0781196175815673 group water
Reading data file ...
  orthogonal box = (-0.08788457 -0.18716788 -0.18716788) to (104.66671 51.250527 51.250527)
  3 by 1 by 2 MPI processor grid
  reading atoms ...
  4608 atoms
  reading velocities ...
  4608 velocities
  read_data CPU = 0.010 seconds

write_data data.icewater_test
System init for write_data ...
WARNING: Communication cutoff is 0.0. No ghost atoms will be generated. Atoms may get lost. (../comm_brick.cpp:167)

# Define potential
#
pair_style sw
pair_coeff * * /data/emrosky-sim/Freezing_Simulations/Melting/MLmW_fancy/ML_mW.sw mW
Reading sw potential file /data/emrosky-sim/Freezing_Simulations/Melting/MLmW_fancy/ML_mW.sw with DATE: 2019-02-27

# Delete water and ice atoms that are overlapping
#
delete_atoms overlap 2.5 water ice
System init for delete_atoms ...
Neighbor list info ...
  update every 1 steps, delay 10 steps, check yes
  max neighbors/atom: 2000, page size: 100000
  master list distance cutoff = 6.0032907
  ghost atom cutoff = 6.0032907
  binsize = 3.0016454, bins = 35 18 18
  2 neighbor lists, perpetual/occasional/extra = 1 1 0
  (1) command delete_atoms, occasional, copy from (2)
      attributes: full, newton on
      pair build: copy
      stencil: none
      bin: none
  (2) pair sw, perpetual
      attributes: full, newton on
      pair build: full/bin/atomonly
      stencil: full/bin/3d
      bin: standard
Deleted 697 atoms, new total = 8519

# set timestep
#
timestep 10.0

# Define output
#
compute 1 all msd
thermo 50
thermo_style custom step temp press vol etotal ke pe c_1[4]

# Neighbor lists
#
neigh_modify delay 0 every 1 check yes

# Set fixes
#
fix 1 all momentum 10 linear 1 1 1 rescale
fix 2 all nph iso ${PRES} ${PRES} ${PCOUPL}
fix 2 all nph iso -1000 ${PRES} ${PCOUPL}
fix 2 all nph iso -1000 -1000 ${PCOUPL}
fix 2 all nph iso -1000 -1000 10000.0
fix 3 all temp/csvr ${TEMP} ${TEMP} ${TCOUPL} 837492
fix 3 all temp/csvr 294 ${TEMP} ${TCOUPL} 837492
fix 3 all temp/csvr 294 294 ${TCOUPL} 837492
fix 3 all temp/csvr 294 294 5000.0 837492


# Fix ice atoms in place
#
velocity ice set 0.0 0.0 0.0
fix 4 ice setforce 0.0 0.0 0.0

# Run 1.0 ns equilibration of water
#
dump 1 all atom 1000 eq.all.${NAME}.dump
dump 1 all atom 1000 eq.all.coexist_294K_-1000atm_ML.dump
run 100000
Neighbor list info ...
  update every 1 steps, delay 0 steps, check yes
  max neighbors/atom: 2000, page size: 100000
  master list distance cutoff = 6.0032907
  ghost atom cutoff = 6.0032907
  binsize = 3.0016454, bins = 35 18 18
  1 neighbor lists, perpetual/occasional/extra = 1 0 0
  (1) pair sw, perpetual
      attributes: full, newton on
      pair build: full/bin/atomonly
      stencil: full/bin/3d
      bin: standard
Per MPI rank memory allocation (min/avg/max) = 4.590 | 4.598 | 4.603 Mbytes
Step Temp Press Volume TotEng KinEng PotEng c_1[4] 
       0    136.44293   -1463.3398    277163.52    -83308.86    3464.3597   -86773.219            0 
      50    155.37129   -1604.7592    275890.95   -82996.679    3944.9609    -86941.64   0.86364557 
     100    170.63307    -829.0584    273182.98   -82687.217    4332.4658   -87019.683    1.8629663 
     150     174.7671   -609.67421    271948.65   -82353.566    4437.4311   -86790.998    2.8456111 
     200    177.38772   -562.60874    272469.72   -82114.205      4503.97   -86618.175    3.8610255 
     250    178.21084   -1075.6118    273879.28   -81798.041    4524.8696   -86322.911     5.061139 
     300    189.11798   -1363.0237    274839.31   -81452.961    4801.8076   -86254.769    6.4066897 
     350    193.70221   -1066.1355    274961.83   -81232.169    4918.2037   -86150.372    7.8679297 
     400    195.62448    -935.5033    274550.39   -81015.177    4967.0111   -85982.188    9.2889553 
     450    201.88876    -1014.763    274386.46   -80753.725    5126.0647    -85879.79    10.860164 
     500    206.17378   -670.29699    274255.77   -80556.973    5234.8635   -85791.836     12.45367 
     550    208.32193   -569.46893    274544.51   -80358.626    5289.4064   -85648.032     14.30771 
     600    211.38681   -991.14622    275255.03   -80153.963    5367.2253   -85521.189    15.994851 
     650    213.49089   -1195.2893    275667.12   -79944.455     5420.649   -85365.104    17.839299 
     700    217.59295   -1019.3576    275621.96   -79745.859    5524.8025   -85270.661    19.439702 
     750    221.17065   -684.83035    275415.75   -79588.095    5615.6422   -85203.737    21.256494 
     800    227.36451   -841.06161    275588.35   -79399.618    5772.9078   -85172.526    23.184587 
     850     230.7052   -1106.0497    276049.07   -79203.554    5857.7296   -85061.283    25.164541 
     900    229.04327   -1097.7106    276295.93     -79026.1    5815.5324   -84841.633    27.085533 
     950    238.22653   -904.17814    276356.94   -78870.734    6048.7004   -84919.434    29.428106 
    1000    239.08758   -917.58424    276436.06   -78729.852    6070.5627   -84800.415    31.634209 
    1050    239.67164   -950.65835    276470.76   -78606.838    6085.3924   -84692.231    33.835492 
    1100    242.40378   -888.11575     276585.5   -78495.479    6154.7628   -84650.241    36.271726 
    1150    246.71394    -953.6678    276388.69   -78374.862    6264.2001   -84639.062     38.96015 
    1200    242.00901   -740.98105    276346.79   -78272.681    6144.7395   -84417.421    41.573715 
    1250    245.79633   -914.75862    276849.45   -78158.061    6240.9017   -84398.962    44.233348 
    1300    248.18273   -1242.6014    277567.94   -78060.414    6301.4935   -84361.907    47.113168 
    1350    249.33275   -1258.0103    277670.58   -77969.094    6330.6932   -84299.787    49.978994 
    1400    253.17299   -944.65045    277340.24   -77846.474     6428.199   -84274.673    52.662901 
    1450    257.92676   -726.74421    277281.36   -77733.997    6548.8997   -84282.897      55.6215 
    1500    257.84599   -1038.1592    277641.46   -77647.122     6546.849   -84193.971    58.174875 
    1550     257.2833   -1171.9312    277711.26   -77564.507     6532.562   -84097.069    61.228262 
    1600    263.69747   -1014.5546    277575.51   -77484.677    6695.4212   -84180.098    64.105382 
    1650    258.65308   -1018.8516     277639.4   -77410.723    6567.3413   -83978.064    66.608966 
    1700    262.39597   -890.73845    277681.48   -77309.324    6662.3753     -83971.7     69.45568 
    1750    263.59656   -1058.1254    277773.47   -77243.704    6692.8589   -83936.563    72.330511 
    1800    264.43283   -997.45898    278015.47   -77140.109    6714.0924   -83854.201    75.401357 
    1850    267.74282   -1116.5646    278490.92   -77049.139    6798.1349   -83847.274    78.155303 
    1900    269.58247   -1179.2391    278766.86   -76949.609    6844.8444   -83794.454    81.161043 
    1950    269.98961   -1025.4136    278522.32   -76880.569    6855.1819   -83735.751    83.879988 
    2000    271.31691   -876.42201    278450.63   -76787.644    6888.8829   -83676.527    86.517217 
    2050    277.22858   -984.50189    278617.87   -76774.939    7038.9835   -83813.922    89.272694 
    2100    276.71442   -1059.7065     278861.9   -76737.273    7025.9285   -83763.201    92.309079 
    2150    271.18915    -1220.246    278934.43   -76676.732     6885.639   -83562.371     95.41927 
    2200    275.37706    -1020.927     278760.3   -76602.268    6991.9723    -83594.24    98.288716 
    2250    279.56851   -785.80775    278455.23   -76578.952    7098.3956   -83677.348    101.23861 
    2300    276.49736   -619.49949    278624.39     -76488.5    7020.4173   -83508.917    104.58992 
    2350     280.7459   -940.39027    279314.61   -76387.826      7128.29   -83516.116    107.80677 
    2400    277.87078   -1360.5248    279577.18   -76352.536    7055.2891   -83407.825    111.12343 
    2450    284.77668   -838.24697     279272.6   -76307.606    7230.6337   -83538.239    114.23339 
    2500    276.44834   -1129.4789    278974.58   -76230.784    7019.1726   -83249.956    117.96173 
    2550    282.61573   -939.71458     278851.5   -76202.113    7175.7659   -83377.879    121.74392 
    2600    283.13286   -1047.9103    278934.89    -76182.22    7188.8963   -83371.116    125.00924 
    2650     287.7107   -911.59836       279018   -76099.812    7305.1301   -83404.942    127.99699 
    2700    288.50916   -963.43606    279245.32   -76065.752    7325.4035   -83391.155    131.36204 
    2750    281.62116   -827.55487    279447.86   -76072.864    7150.5132   -83223.377    135.02717 
    2800    284.60712   -977.11878    279798.53   -76036.845    7226.3286   -83263.174    138.37307 
    2850    285.69486   -1072.5003    279989.19    -76043.42    7253.9468   -83297.367    141.12513 
    2900     285.5792   -967.56783    280085.19   -76054.255    7251.0102   -83305.266    143.83061 
    2950    287.88476   -1393.0462    279701.27   -76045.784    7309.5496   -83355.334    147.93072 
    3000    289.42477   -936.14885    279028.74   -76012.543    7348.6511   -83361.194    151.16539 
    3050    287.88476   -729.35112    278996.81   -76021.829    7309.5494   -83331.378    154.07168 
    3100    281.16369   -1184.0255    279735.03   -75992.225    7138.8978   -83131.122    157.20181 
    3150    283.23601   -1062.8306    280108.46   -75983.568    7191.5154   -83175.083     160.5833 
    3200    285.55034   -1099.4771    279913.47   -75944.261    7250.2773   -83194.538    163.56199 
    3250    288.52274   -955.61583    279443.67   -75919.105    7325.7483   -83244.853    166.66679 
    3300    293.70828    -614.3771    278974.45   -75886.607    7457.4117   -83344.019    169.13242 
    3350    292.40804   -720.08796     279185.7   -75782.695    7424.3979   -83207.093    172.46875 
    3400    287.95613   -1029.5861    280047.51   -75817.941    7311.3617   -83129.303    176.16969 
    3450    289.91662   -1307.7051     280606.6   -75828.174    7361.1397   -83189.314      179.624 
    3500    287.50622   -1179.7395    280345.74   -75817.607    7299.9381   -83117.545    182.43354 
    3550    290.78515   -1273.9999    279586.43   -75783.043    7383.1919   -83166.234    185.62111 
    3600    292.63609   -708.03312    278931.88   -75811.103    7430.1884   -83241.291    188.52249 
    3650    288.92347   -759.98791    278998.74   -75820.469    7335.9228   -83156.392    192.15562 
    3700    289.69022   -984.70321    279749.26   -75796.095     7355.391   -83151.486    195.77436 
    3750    290.84903   -1187.0376    280452.03   -75811.911     7384.814   -83196.725    199.64098 
    3800    293.01641   -1213.7813     280410.2   -75817.442    7439.8448   -83257.287    203.07597 
    3850    289.81389    -1217.267     279991.3   -75806.794    7358.5312   -83165.325    205.64968 
    3900    293.36412   -870.63274    279243.84   -75832.725    7448.6735   -83281.399    209.32714 
    3950    292.39054   -762.93681    279026.89   -75784.569    7423.9536   -83208.522    212.31825 
    4000    293.00433   -522.84192    279342.17   -75792.094    7439.5381   -83231.632    216.52751 
    4050    295.19759   -1013.1867    280289.74   -75763.309    7495.2263   -83258.535    220.07159 
    4100    286.83851   -1184.4252    280851.56   -75747.994    7282.9846   -83030.979    223.68934 
    4150    294.84552   -1200.2213    280547.82   -75713.495     7486.287   -83199.782    226.84949 
    4200    290.94337   -987.88738    279556.99   -75723.231    7387.2092    -83110.44    229.93498 
    4250    294.88087    -659.3014    278903.75   -75712.771    7487.1845   -83199.955    232.15098 
    4300    293.52656   -834.64553    279111.79   -75724.294    7452.7978   -83177.092    235.09633 
    4350    292.22597   -1146.0158    279758.51   -75730.035    7419.7752    -83149.81    237.81885 
    4400    289.71126   -1002.3953    280179.78    -75711.04    7355.9254   -83066.965    241.00244 
    4450    294.12001   -1050.7038    280436.85   -75645.716     7467.866   -83113.581    243.69593 
    4500    292.43171   -1329.0448    280453.43   -75591.139    7424.9991   -83016.139    246.29903 
    4550    293.92229   -737.41073    280074.01   -75548.214    7462.8456   -83011.059    248.02514 
    4600    295.02493   -1175.6975    279974.75   -75553.663    7490.8422   -83044.505    250.54144 
    4650     296.4139   -936.83021    280006.26   -75480.955    7526.1091   -83007.064    253.17281 
    4700    296.80419   -987.46989    280125.19   -75460.413    7536.0186   -82996.432    255.97999 
    4750    296.44584   -1081.6488    280180.57   -75483.589      7526.92   -83010.509    258.74156 
    4800    297.40381   -1075.0203    280167.11    -75478.49    7551.2433   -83029.734    261.15476 
    4850      297.386   -962.92077    279930.23   -75490.375     7550.791   -83041.166    264.25651 
    4900    303.71362   -1012.1852    279714.79   -75502.662    7711.4529   -83214.115    267.35901 
    4950    291.80284   -898.18754    279771.39   -75501.901    7409.0317   -82910.932     271.1331 
    5000    295.23413   -763.83563    280139.96   -75519.737     7496.154   -83015.891    274.64037 
    5050      296.134   -1283.1038    280402.45   -75530.766    7519.0021   -83049.769    277.54459 
    5100    298.32286   -1082.5949    280314.62   -75544.777    7574.5785   -83119.356    280.73499 
    5150    292.65431   -1005.6112    280181.76   -75568.928    7430.6509   -82999.579    282.61753 
    5200    292.28233   -1174.5353    280074.92   -75565.691    7421.2061   -82986.897    285.46509 
    5250    297.61754   -655.24637    280020.01   -75555.323    7556.6702   -83111.993    288.07881 
    5300    294.25331   -806.07982    280493.32   -75537.028    7471.2504   -83008.279    291.15176 
    5350    293.56516   -792.80745    280865.03   -75493.866    7453.7781   -82947.644    295.11291 
    5400    294.00438    -1015.101    280692.98   -75545.438    7464.9299   -83010.368    298.36525 
    5450    292.54759    -1103.757    280168.24   -75536.083    7427.9413   -82964.024    301.54483 
    5500    300.68881   -868.98601    279626.02   -75546.376    7634.6513   -83181.028    303.75483 
    5550    296.10219   -779.28105    279279.19   -75606.079    7518.1945   -83124.273    305.58013 
    5600    298.17616   -730.53363     279386.5   -75668.907    7570.8537   -83239.761    308.22788 
    5650    291.43701   -1160.6861    280018.07   -75736.969    7399.7431   -83136.713    311.54692 
    5700    294.20808   -1600.2695    280441.18    -75705.48    7470.1021   -83175.582    315.62636 
    5750    294.25741   -1309.4518    280320.24   -75682.708    7471.3544   -83154.062     318.8085 
    5800    296.57098   -1116.1302    279953.19   -75684.765    7530.0974   -83214.862    321.08311 
    5850    292.60465   -704.47871    279503.17   -75627.874    7429.3901   -83057.264     323.4755 
    5900    294.16011   -734.37215    279563.52   -75663.064    7468.8839   -83131.948    326.00627 
    5950    294.90761   -1194.0778    279922.81   -75667.742    7487.8635   -83155.605    328.95914 
    6000    288.73914   -814.69815    280313.63   -75663.837    7331.2427   -82995.079    332.44081 
    6050    297.89594   -1295.8515    280587.44   -75605.927    7563.7389   -83169.666    335.01746 
    6100    295.10819   -1136.6324    280325.79    -75613.77    7492.9562   -83106.726    338.66941 
    6150    297.69893   -997.54842    279675.75   -75612.828    7558.7365   -83171.564    340.80674 
    6200    296.67476   -952.38174    279088.13   -75646.748    7532.7323    -83179.48    343.80975 
    6250    292.52314   -844.08359    279379.64   -75615.628    7427.3206   -83042.948     348.0456 
    6300    297.45556   -1113.0714    280355.28   -75565.097    7552.5573   -83117.654      353.257 
    6350    296.57844   -1174.9363    280999.94   -75524.072    7530.2868   -83054.359    357.42461 
    6400    296.22709   -1332.0548     280813.9   -75584.214    7521.3659    -83105.58    360.94284 
    6450    295.65403    -1123.286    280031.35   -75602.086    7506.8155   -83108.901    364.00435 
    6500     293.3502   -698.52599    279426.99    -75556.55    7448.3201    -83004.87    365.70958 
    6550    294.51617   -512.78109    279391.28   -75537.736    7477.9245    -83015.66    368.38225 
    6600    296.75521   -1092.1459    280180.99   -75544.051    7534.7749   -83078.826    373.12385 
    6650    294.61973   -1248.8521    280535.26   -75580.856     7480.554    -83061.41    377.52751 
    6700    296.68143   -1017.9622    280230.98    -75611.11    7532.9018   -83144.012    380.85733 
    6750      293.487   -786.83625    280002.86   -75637.195    7451.7934   -83088.988    383.81239 
    6800    293.35631   -1253.5966    280057.59   -75605.706     7448.475   -83054.181    387.32811 
    6850    295.16239   -1145.1861    280174.51   -75596.488    7494.3326   -83090.821    390.95148 
    6900    299.65933   -1049.0148    280172.51   -75574.263    7608.5121   -83182.775    393.97166 
    6950    294.96373   -1094.0408    279911.54   -75564.077    7489.2883   -83053.365    398.17907 
    7000    291.72308   -1040.5427    279740.03   -75545.388    7407.0065   -82952.395    401.02009 
    7050    297.88349   -967.66742    279827.13   -75529.166    7563.4226   -83092.589    403.94321 
    7100    294.69274   -1012.6299    280154.32   -75525.531    7482.4077   -83007.939    407.41894 
    7150    292.78038   -1132.8931    280510.93   -75578.796    7433.8519   -83012.648    410.74574 
    7200    297.17064   -1253.7969    280459.48   -75621.617     7545.323    -83166.94    413.27121 
    7250    294.52726   -857.06142    280100.93   -75575.222    7478.2062   -83053.428    415.29762 
    7300    296.86748   -1015.2157    279778.49   -75560.549    7537.6257   -83098.174    417.54143 
    7350    297.88126   -915.81653    279639.33   -75549.986    7563.3661   -83113.352    419.59158 
    7400    295.61514    -960.2887     279850.1    -75511.36    7505.8281   -83017.188     421.8204 
    7450    300.59866   -961.66374    280120.99   -75483.435    7632.3623   -83115.797    424.83596 
    7500    296.82537   -1206.2777    280517.94   -75548.081    7536.5564   -83084.638    427.84337 
    7550    296.51688   -1002.0278    280404.29   -75588.071    7528.7237   -83116.795    430.02521 
    7600    296.73747   -1151.4995     280010.6   -75530.863    7534.3245   -83065.187    433.22061 
    7650    296.70441   -932.17685    279736.72   -75550.157    7533.4851   -83083.642    437.38845 
    7700    297.63917   -1000.9512    279784.88   -75539.214    7557.2194   -83096.433    440.62758 
    7750    294.70043   -1349.3471    280059.02   -75495.774    7482.6031   -82978.377    444.23948 
    7800    291.52014   -968.39491    279888.78    -75530.01    7401.8537   -82931.864    448.10494 
    7850    297.57282   -1105.8125    279729.04   -75509.713    7555.5347   -83065.248    450.72646 
    7900    299.96409   -964.60359    279616.98   -75554.491    7616.2502   -83170.741    453.70009 
    7950    294.35826   -864.11311    279820.74   -75595.875    7473.9153    -83069.79    456.80297 
    8000    296.13161   -1085.6529    280248.33   -75577.351    7518.9416   -83096.293    460.30483 
    8050    294.45376   -1219.9594    280347.42   -75555.214    7476.3399   -83031.554     463.4463 
    8100    299.78591    -726.4332    280045.29   -75602.356    7611.7262   -83214.082    466.25075 
    8150    294.16359   -1119.0874    279820.36   -75547.855    7468.9724   -83016.828    469.24304 
    8200    297.54111   -796.66724    279672.73   -75580.035    7554.7294   -83134.765    470.39362 
    8250     296.5457   -1161.5458    279775.06   -75575.578    7529.4555   -83105.034    473.73704 
    8300    295.51374   -888.63541    280077.69   -75557.921    7503.2534   -83061.174    476.81583 
    8350    293.11864   -1366.5828    280506.31   -75601.798    7442.4405   -83044.238    480.90675 
    8400    295.83152   -932.71478     280150.4   -75609.407    7511.3221   -83120.729    483.11321 
    8450    292.23492   -975.58308    279726.22   -75612.723    7420.0024   -83032.725    487.17014 
    8500    295.77339   -773.08527    279647.93   -75606.382    7509.8461   -83116.228    489.37209 
    8550    295.16453   -806.96866    279950.93   -75631.376    7494.3869   -83125.763    492.82235 
    8600    291.17621   -794.05298    280141.16   -75625.771    7393.1213   -83018.892    497.53852 
    8650    293.07906   -1193.4613    280098.63   -75618.114    7441.4356    -83059.55    500.76424 
    8700    291.07774   -1169.9836     279793.6   -75611.269    7390.6211    -83001.89    502.63208 
    8750    299.29408   -636.23566    279168.84   -75593.428    7599.2384   -83192.666    503.90561 
    8800    293.20903   -665.33936    279280.96   -75618.688    7444.7356   -83063.424    507.07109 
    8850    290.80693   -988.41294    280081.79     -75651.5    7383.7451   -83035.245    511.21537 
    8900    292.89671   -1080.6367    280767.95    -75663.31    7436.8057   -83100.115    515.17675 
    8950    289.89142   -935.29767    280809.43   -75641.019    7360.4996   -83001.518    518.43112 
    9000    291.27112      -989.53     280142.3   -75638.288     7395.531   -83033.819    521.07334 
    9050    295.54649   -1103.3544     279235.7   -75652.018    7504.0849   -83156.103    523.38079 
    9100    290.81924   -713.97465    279109.34    -75713.88    7384.0575   -83097.938    525.43511 
    9150    296.88173   -992.56684    279939.53   -75672.764    7537.9875   -83210.751    529.01555 
    9200    289.99118   -1173.8852    280595.41   -75657.793    7363.0328   -83020.826    533.73645 
    9250    290.08952   -943.50478    280320.48   -75697.238    7365.5295   -83062.767    535.16398 
    9300     288.7123   -999.69826    279839.14   -75748.947    7330.5612   -83079.508    537.22079 
    9350    292.57195   -819.04767     279357.4   -75731.774    7428.5597   -83160.333    540.74487 
    9400    292.19991   -1061.8931    279257.35    -75725.65    7419.1135   -83144.763    542.30248 
    9450    298.62126   -1022.1599    279687.48   -75683.878     7582.155   -83266.033    544.26423 
    9500    292.85928   -1385.2351    280340.88   -75688.966    7435.8552   -83124.822    547.37342 
    9550    292.70545   -1153.8044    280295.46    -75668.95    7431.9495   -83100.899    550.79076 
    9600    293.71684   -1104.9482    279979.63   -75652.863    7457.6291   -83110.492     553.2124 
    9650    289.65814   -1031.8141    279690.48    -75686.82    7354.5767   -83041.397    556.22721 
    9700    291.24336   -713.16664    279684.53   -75687.958    7394.8261   -83082.784    558.47795 
    9750     293.7584   -1016.6856    279952.66   -75690.509    7458.6844   -83149.194    561.62344 
    9800    290.46688   -934.52997    280144.08    -75685.99    7375.1109     -83061.1    563.45734 
    9850    292.75733   -1074.1455    280027.34   -75682.555    7433.2668   -83115.822    566.00385 
    9900    289.57422   -816.61997    279707.67   -75690.802    7352.4458   -83043.248    568.10401 
    9950    296.54719    -836.7792    279751.73   -75672.144    7529.4933   -83201.638    571.95217 
   10000    294.70383    -793.6073    280096.68   -75666.062    7482.6893   -83148.752    574.26919 
   10050    293.86599   -1056.1546    280441.48   -75657.575    7461.4162   -83118.992    577.19571 
   10100    295.57899    -1167.149     280375.1   -75633.459    7504.9101   -83138.369    580.08431 
   10150    292.41749   -1110.8795    280110.46    -75612.92    7424.6381   -83037.558     581.9139 
   10200    293.15374   -834.40444     279521.4   -75603.319    7443.3317   -83046.651     583.5996 
   10250    296.62951   -1007.7744    279294.91   -75616.987    7531.5834    -83148.57     584.9758 
   10300     297.8839   -606.86612     279277.8   -75599.435    7563.4331   -83162.868    587.21542 
   10350    299.76612   -780.24378    279887.51    -75598.82    7611.2236   -83210.044    591.71473 
   10400     291.9956   -1149.2455     280613.9    -75652.43    7413.9259   -83066.356    595.28113 
   10450    295.52748   -1163.3094    280828.03   -75619.364    7503.6022   -83122.966    598.20636 
   10500    297.08417   -992.83886    280409.99   -75623.247    7543.1275   -83166.374    599.57668 
   10550    291.53775   -703.31506    279714.74   -75611.412     7402.301   -83013.713    600.94419 
   10600    296.83147   -766.32728       279147   -75623.718    7536.7114   -83160.429    603.48524 
   10650    301.68362   -905.36989    279338.37   -75605.247      7659.91   -83265.157    605.97617 
   10700    292.91159   -790.24421    279872.37   -75625.075    7437.1834   -83062.259    609.36983 
   10750    293.18982   -1262.7026    280471.02   -75583.516    7444.2477   -83027.764    614.15973 
   10800    297.68076    -1272.144    280465.32    -75606.97    7558.2753   -83165.245     616.2574 
   10850    297.63605   -829.18491     280021.3   -75561.153    7557.1401   -83118.293    617.96999 
   10900    294.80368   -890.20131    279565.02   -75569.729    7485.2246   -83054.954    619.49824 
   10950     297.5358   -779.13618    279286.52   -75591.678    7554.5946   -83146.273    622.53015 
   11000    295.99382   -1050.0609    279460.55   -75632.924     7515.443   -83148.367    626.43261 
   11050    292.48743   -983.33198    279905.33   -75654.931    7426.4138   -83081.345    629.09457 
   11100      292.134   -1073.0862    280253.52   -75617.739      7417.44   -83035.179    633.19739 
   11150    295.92557   -1164.4297    280460.42   -75621.913    7513.7099   -83135.623    636.89468 
   11200    294.14712   -1120.7756    280167.04   -75612.267    7468.5543   -83080.821    639.27369 
   11250    296.45871   -929.07466    279722.49   -75650.035    7527.2468   -83177.281    640.48904 
   11300    293.97589   -970.12074    279743.69   -75637.165    7464.2065   -83101.371    643.87397 
   11350    293.14923   -1050.2322    279822.11   -75670.453    7443.2172    -83113.67     647.3793 
   11400    295.26025   -1352.4491    279977.58   -75672.942    7496.8172   -83169.759    650.58615 
   11450    295.15634   -1356.2693     279868.6   -75728.824    7494.1788   -83223.003    653.82767 
   11500    289.72115   -983.23651    279524.17   -75718.117    7356.1763   -83074.293    656.45887 
   11550    294.83216   -489.54729    279398.41   -75749.819    7485.9478   -83235.767    658.26701 
   11600     296.3874   -989.89114    279797.75   -75728.565    7525.4361   -83254.001    661.75738 
   11650    286.76625   -901.85011    279894.91   -75703.406      7281.15   -82984.556    665.33236 
   11700    293.60029   -1052.9386     279841.4   -75677.081    7454.6698   -83131.751    668.03279 
   11750    291.81189   -1134.9504    279826.33   -75693.377    7409.2614   -83102.638    670.87121 
   11800     296.1338   -1092.9386    279813.37   -75711.049    7518.9972   -83230.046    674.18442 
   11850    295.05776   -1074.4312     279554.2     -75638.4    7491.6758   -83130.075    676.88227 
   11900     293.3923   -621.48862    279404.17   -75723.828    7449.3888   -83173.217    680.46132 
   11950    291.43216   -1080.2675    279891.53   -75708.132    7399.6198   -83107.752    684.53959 
   12000    291.25657   -1142.2557    280202.09   -75706.765    7395.1616   -83101.927    687.46282 
   12050    288.67689   -1032.2396    279921.89   -75691.186    7329.6621   -83020.848      689.767 
   12100    296.54191   -927.74643    279369.78   -75675.007    7529.3593   -83204.367    691.26404 
   12150    296.59363   -653.54007    279163.55   -75668.417    7530.6723   -83199.089    693.38186 
   12200    292.47182   -699.36564    279723.13   -75655.392    7426.0175   -83081.409    696.48727 
   12250    298.04367   -1054.9708    280703.59   -75610.595    7567.4898   -83178.085     699.7017 
   12300    291.68107   -1311.8882    280963.92   -75614.019    7405.9398   -83019.959    702.42314 
   12350    289.50519   -1205.1055     280503.1   -75651.178     7350.693   -83001.871    705.51362 
   12400    290.75481   -753.56469    279570.15   -75700.998    7382.4216   -83083.419    705.57329 
   12450    293.84431   -610.65875    279005.89   -75683.363    7460.8656   -83144.228    706.60216 
   12500    296.08456   -1136.2975    279512.83    -75650.62    7517.7469   -83168.366    708.75941 
   12550    292.46669   -1314.0091    280205.99   -75689.967    7425.8871   -83115.854    713.38488 
   12600    292.49033   -1237.0412    280356.02    -75628.22    7426.4875   -83054.707    715.87469 
   12650    297.05139   -1010.3213    279868.79   -75653.252    7542.2952   -83195.547    717.52808 
   12700    295.70727   -588.20379    279221.31   -75640.647    7508.1672   -83148.814    719.94314 
   12750    293.58892   -790.81338     279324.5    -75688.93    7454.3813   -83143.311    724.78414 
   12800    291.34405   -1189.2035    279868.52   -75704.312    7397.3827   -83101.694    728.28827 
   12850    294.61848   -1313.8942     280021.3   -75685.807    7480.5224   -83166.329    730.70989 
   12900     291.2425   -1026.7696    279818.47   -75671.863    7394.8042   -83066.667    733.76495 
   12950    295.13538   -1039.8343    279674.26   -75680.052    7493.6466   -83173.698    734.99538 
   13000    294.96519   -876.99817    279869.64   -75658.624    7489.3254   -83147.949    737.22527 
   13050    291.96863   -999.93856    280241.33   -75630.041    7413.2413   -83043.282    739.43257 
   13100    291.43705   -1018.0473    280257.85   -75610.983     7399.744   -83010.727    744.02718 
   13150    299.51861   -862.01125    280121.59   -75647.151    7604.9391   -83252.091    747.25456 
   13200    296.45316   -830.61242    279856.05   -75667.407    7527.1059   -83194.513    748.98166 
   13250    295.16346   -1144.8035    279905.56   -75714.376    7494.3596   -83208.736    753.40729 
   13300    293.04631   -916.65348    279959.35   -75708.596    7440.6041     -83149.2    755.99925 
   13350     295.2332    -993.6194    280307.59   -75683.106    7496.1305   -83179.236    759.23239 
   13400    292.37257   -1199.1976    280512.41   -75702.558    7423.4975   -83126.055     762.0131 
   13450    288.85348   -844.15415    280060.38   -75726.695    7334.1458    -83060.84    763.84664 
   13500    295.95017   -1244.5683    279575.32   -75699.536    7514.3346   -83213.871    766.18184 
   13550    292.40931   -1062.6803    279306.53   -75779.738    7424.4303   -83204.169    769.30727 
   13600    292.91103     -1037.39    279453.59   -75782.612    7437.1692   -83219.781    771.88112 
   13650     288.0364   -874.94705    279799.47   -75779.973    7313.3997   -83093.373    775.10254 
   13700    293.22155   -1325.6781    279877.15   -75774.805    7445.0535   -83219.859    777.56983 
   13750     291.2388   -1140.1654    279535.53   -75766.815    7394.7105   -83161.526    779.29132 
   13800    287.80648   -897.12172    279406.66   -75820.975    7307.5618   -83128.537     783.1047 
   13850    289.21036   -794.49205    279724.68   -75808.251    7343.2071   -83151.458    786.86468 
   13900    292.82454   -1154.8475    280126.49   -75769.619    7434.9732   -83204.592    789.56651 
   13950    289.54636   -1024.5818    279908.89   -75786.784    7351.7384   -83138.523    791.00299 
   14000    298.51346   -837.88197    279464.14   -75744.483    7579.4179   -83323.901    792.43212 
   14050    292.85489   -889.26869    279263.71   -75740.433    7435.7437   -83176.177    794.81332 
   14100     293.6027   -801.54456    279412.02   -75735.973     7454.731   -83190.704    798.10831 
   14150    289.64505    -930.0357    279925.04   -75731.718    7354.2443   -83085.962     802.3352 
   14200    296.51476    -1383.375    280233.22   -75725.718    7528.6699   -83254.388    806.20074 
   14250    290.78211    -924.3613    280063.32   -75643.871    7383.1148   -83026.986    807.06868 
   14300    295.19138   -944.55066     279958.7   -75672.507    7495.0687   -83167.575    808.57367 
   14350    293.87375   -1051.1867    279735.09   -75673.596    7461.6132   -83135.209    810.58509 
   14400    295.50853   -793.66077    279419.25   -75649.779     7503.121     -83152.9    813.49321 
   14450    294.83076   -1050.1603    279639.37   -75698.199    7485.9123   -83184.111    816.79835 
   14500    296.35399   -1175.1507    280030.16   -75703.217    7524.5879   -83227.805    818.93954 
   14550    290.89197   -1137.7969    280190.81    -75747.56    7385.9042   -83133.464    821.95609 
   14600    291.02747    -1124.175    279991.97   -75744.194    7389.3447   -83133.539     823.5542 
   14650    286.10744   -691.10741    279321.59    -75760.48    7264.4223   -83024.902    824.94838 
   14700    297.14399   -619.43901    278984.67    -75740.97    7544.6463   -83285.617    825.36759 
   14750    294.76107   -958.98054    279384.11   -75745.543    7484.1426   -83229.685    826.71842 
   14800    288.77084   -1012.9843    279973.88   -75783.507    7332.0475   -83115.555    829.62982 
   14850     289.0269   -1357.3119    280357.26   -75784.608     7338.549   -83123.157    832.93862 
   14900    286.60897   -1012.9261    280045.05   -75789.942    7277.1565   -83067.099     834.2803 
   14950    290.32679   -872.83109    279457.96   -75873.106     7371.554    -83244.66    835.13342 
   15000    292.05726   -911.87064     279083.1   -75872.284    7415.4916   -83287.775     837.9744 
   15050    290.40634   -561.04317    279301.03   -75870.895    7373.5738   -83244.469    841.09781 
   15100    288.31475   -1230.5056    279755.66   -75835.546    7320.4671   -83156.013    845.41215 
   15150     288.1395   -910.17355    279652.55   -75842.308    7316.0174   -83158.325    848.98501 
   15200    294.46835   -698.81278    279459.79   -75839.324    7476.7103   -83316.035       850.12 
   15250    293.38596   -895.88467    279653.45     -75843.8     7449.228   -83293.028    851.43169 
   15300    290.89747   -977.30502    279923.31   -75795.749    7386.0438   -83181.792    854.34295 
   15350    291.46575   -1152.9936    279997.39   -75791.566    7400.4727   -83192.039    856.64153 
   15400    288.17274   -864.27435    279609.42   -75758.984    7316.8614   -83075.846    858.55755 
   15450    291.71658   -951.96419     279431.4   -75765.479    7406.8415   -83172.321     861.0141 
   15500     288.4167   -703.32522    279523.58   -75750.785    7323.0558    -83073.84    864.20604 
   15550    290.50763   -758.43497    279925.87   -75748.911    7376.1455   -83125.057    866.88413 
   15600    292.15392   -1018.3677    280423.12   -75741.872    7417.9457   -83159.818    870.18927 
   15650    290.65478   -1262.2167    280394.62   -75744.057    7379.8817   -83123.939    872.18294 
   15700    293.75333     -1087.76    279590.57   -75734.588    7458.5558   -83193.144    874.04996 
   15750    292.72929   -697.46839    278750.54   -75744.646    7432.5548   -83177.201    876.07476 
   15800    290.32506   -966.53368    278799.26   -75746.177    7371.5101   -83117.687    879.15094 
   15850    294.52814   -973.68376    279550.22   -75714.565    7478.2286   -83192.793    882.64571 
   15900    292.78055   -1083.3016    280361.57   -75708.446    7433.8564   -83142.302    886.57058 
   15950    294.38017   -1060.2712    280656.28   -75674.878    7474.4714    -83149.35    889.89573 
   16000    296.70549   -1303.1145    280264.19   -75656.992    7533.5127   -83190.505    891.82996 
   16050    293.04303   -859.12233     279500.7   -75628.508    7440.5209   -83069.029     893.7443 
   16100    295.53376   -935.37503    279201.81   -75631.858    7503.7617    -83135.62    895.24287 
   16150     295.9384   -784.03967    279446.09   -75639.279    7514.0357   -83153.314    898.91695 
   16200    292.17523   -736.52728    280241.56   -75571.805    7418.4869   -82990.292     903.0599 
   16250    291.75674   -1338.0783    280763.05   -75546.699    7407.8611    -82954.56    907.30534 
   16300     296.8442   -958.02642    280553.55   -75567.761    7537.0347   -83104.796    909.87676 
   16350    296.03448   -1049.5365    280047.82    -75592.68    7516.4754   -83109.155     912.6195 
   16400    290.79334   -769.45599    279510.56   -75574.739       7383.4   -82958.139    912.89862 
   16450    294.89388   -691.24662    279586.85   -75614.398     7487.515   -83101.913    916.30817 
   16500    296.80437   -1211.7033    280160.97   -75572.441    7536.0233   -83108.465     919.7897 
   16550    297.36995    -796.4185    280261.08   -75537.057    7550.3837   -83087.441     923.4037 
   16600    290.88263   -1196.0486    280449.34   -75507.294    7385.6669    -82892.96    926.07977 
   16650    297.34796   -1179.0864    280391.32   -75456.901    7549.8253   -83006.727    929.06536 
   16700    294.21318   -760.58121    280129.37   -75545.107    7470.2314   -83015.338    931.69069 
   16750    294.90434   -938.64716    280134.02   -75567.925    7487.7803   -83055.705    934.89231 
   16800    299.26178    -1104.781     280279.2   -75584.639    7598.4182   -83183.058    938.02036 
   16850    295.93735   -897.56893    280402.52   -75613.403    7514.0092   -83127.413    940.69921 
   16900    295.79548   -892.50307    280190.38    -75616.71     7510.407   -83127.117    942.71827 
   16950    303.82621   -935.65651     279958.7   -75578.497    7714.3114   -83292.809    944.32351 
   17000    291.39851    -860.3042    280075.41   -75606.932    7398.7654   -83005.697     945.7362 
   17050    294.23984   -775.44413     279973.5   -75578.504    7470.9085   -83049.413    948.68974 
   17100    295.93733   -858.87628    279980.32   -75582.116    7514.0086   -83096.125    950.44204 
   17150     296.3557   -1018.4893    280080.47   -75519.535    7524.6313   -83044.166    951.90866 
   17200    298.42457   -1049.9267    280093.99   -75483.006    7577.1609   -83060.167    953.72963 
   17250    295.60618   -944.58666    279919.33   -75485.727    7505.6005   -82991.327    956.65254 
   17300    295.37472   -929.50912    279995.42   -75438.037    7499.7235    -82937.76    960.46763 
   17350     299.2432   -1251.9442    280359.12   -75477.919    7597.9464   -83075.865    963.03711 
   17400    299.86431   -977.21913    280426.67   -75498.985    7613.7167   -83112.701    965.79009 
   17450    298.27615    -907.6998    280227.59   -75464.608    7573.3926   -83038.001      967.231 
   17500    300.01314   -940.43035    280144.75   -75514.406    7617.4958   -83131.902    970.89635 
   17550    297.57581   -1258.7306    280179.69   -75561.003    7555.6104   -83116.614    973.97403 
   17600    297.44098   -1106.4739    280022.52   -75538.088     7552.187   -83090.275    975.90699 
   17650     295.9485    -789.1866    279740.36   -75490.896    7514.2923   -83005.188    977.75768 
   17700    301.65454   -1162.0067    279766.11   -75471.406    7659.1717   -83130.577    980.69314 
   17750    295.47104   -939.37456    280006.13   -75453.093    7502.1692   -82955.263    984.27675 
   17800    294.77303    -933.0466    280279.56   -75451.434    7484.4465    -82935.88    986.16629 
   17850    301.00897   -1038.8517     280245.4   -75484.538    7642.7803   -83127.318    989.85601 
   17900    298.54958   -1039.4219    280004.83   -75523.355    7580.3352    -83103.69    993.18517 
   17950    299.14969   -935.48629    279884.05   -75544.272     7595.572   -83139.844    995.46266 
   18000    293.87365   -885.82991    279757.21   -75606.944    7461.6107   -83068.555    998.30092 
   18050    290.61004   -706.83899    279746.15   -75638.309    7378.7458   -83017.055    1000.3336 
   18100    296.62025   -1354.1999     279907.4   -75672.079    7531.3484   -83203.428    1003.8517 
   18150    293.80398   -1079.1081    279879.22   -75700.495    7459.8417   -83160.337     1004.655 
   18200    291.76449    -883.4106    279838.96   -75638.074    7408.0581   -83046.132    1006.0201 
   18250     293.5423   -1056.9534    279974.64   -75586.381    7453.1975   -83039.578    1011.0319 
   18300    297.32491   -1063.6396    280219.97   -75564.243      7549.24   -83113.483    1014.1086 
   18350    296.35177   -1309.1442    280280.87   -75551.987    7524.5315   -83076.518    1018.6322 
   18400    294.20434   -1191.6223    279980.62   -75560.108    7470.0072   -83030.115    1019.1115 
   18450    294.69292   -702.85959    279593.77   -75595.273    7482.4125   -83077.686    1020.5677 
   18500    291.89904   -657.54232    279510.95   -75564.951    7411.4743   -82976.426    1024.1379 
   18550    296.56807    -945.9517    279930.69   -75532.003    7530.0235   -83062.026    1027.2335 
   18600    299.01964   -907.90415     280398.2   -75491.656    7592.2701   -83083.927    1030.9088 
   18650    297.52922   -1150.1697    280555.68   -75517.097    7554.4276   -83071.525    1034.9868 
   18700    297.93998    -1385.246    280304.69   -75539.705     7564.857   -83104.562    1039.0724 
   18750    297.10739   -956.83462    280019.68   -75467.661     7543.717   -83011.378    1040.2513 
   18800    294.88648   -981.91131    279929.16   -75484.443     7487.327    -82971.77     1043.158 
   18850    294.09949   -989.83202    279879.78   -75514.217    7467.3448   -82981.562    1043.9552 
   18900    298.46968   -1108.3944    279986.68   -75535.536    7578.3063   -83113.842    1046.2353 
   18950    296.41997   -1118.1444    280304.58   -75563.184    7526.2631   -83089.447    1048.1542 
   19000    297.73907   -1230.9658    280456.63   -75532.498    7559.7557   -83092.254    1050.1027 
   19050    297.07225   -1213.1187    280258.34   -75517.156    7542.8249   -83059.981    1050.8049 
   19100    294.27871   -1025.5089    279741.56    -75566.96    7471.8954   -83038.856    1053.6396 
   19150    298.21519   -616.83877    279414.18   -75538.996    7571.8446    -83110.84    1056.5328 
   19200    293.58442   -711.41045    279895.74   -75544.789     7454.267   -82999.056    1060.8244 
   19250    299.97245   -1270.2438    280639.27   -75527.785    7616.4624   -83144.248    1065.2039 
   19300    292.89021   -999.10127    280900.43   -75538.841    7436.6405   -82975.482    1068.0302 
   19350    298.78921   -1241.7658     280686.5    -75570.13    7586.4194   -83156.549    1071.0171 
   19400    292.41012   -1115.3839    280039.69   -75589.238    7424.4509   -83013.689    1072.0574 
   19450      293.585   -754.05249    279405.76   -75623.578    7454.2817    -83077.86    1074.2982 
   19500      297.599   -822.52233    279349.49   -75690.012    7556.1994   -83246.212    1078.3515 
   19550    296.66316    -1125.623    279950.65   -75618.244    7532.4378   -83150.682     1081.144 
   19600    291.02722   -1216.0904    280333.53   -75596.879    7389.3384   -82986.217    1083.4034 
   19650    295.80282   -914.45596    280211.55   -75557.076    7510.5934   -83067.669     1086.312 
   19700    298.42747   -956.74726    280090.21   -75507.171    7577.2346   -83084.406    1088.2814 
   19750    297.60479   -919.72139    280179.54   -75531.858    7556.3463   -83088.205    1090.2729 
   19800    296.65751   -1341.8685    280515.77   -75554.336    7532.2943   -83086.631     1093.122 
   19850      297.505   -851.05183    280416.78   -75531.988    7553.8126     -83085.8    1095.1637 
   19900    296.14437   -762.36624    280123.32   -75473.543    7519.2655   -82992.808    1096.5026 
   19950     297.5628   -756.89509    279729.75   -75480.018    7555.2801   -83035.298    1099.6352 
   20000    297.58589   -1057.1441    279660.88   -75448.217    7555.8664   -83004.083    1101.1075 
   20050    299.11392   -950.92048    279815.33   -75492.543    7594.6639   -83087.207     1103.225 
   20100    298.63237   -1253.1131    280415.91   -75512.686    7582.4371   -83095.123    1107.6236 
   20150    293.50119    -1094.274    280680.83    -75537.53    7452.1537   -82989.684    1110.9913 
   20200    294.48818   -1124.0356     280144.8   -75541.566    7477.2138   -83018.779    1112.0617 
   20250     298.8443   -1071.3476     279472.5   -75575.159    7587.8182   -83162.977    1113.5388 
   20300    300.27612   -1240.6276    279447.62   -75551.758    7624.1729    -83175.93    1114.6307 
   20350    300.12657   -988.63043    279744.28   -75546.662    7620.3757   -83167.037    1117.6099 
   20400    293.70077   -866.13453    280275.66   -75507.505    7457.2212   -82964.726    1120.6082 
   20450    296.70987    -1331.508    280639.41   -75454.737    7533.6239   -82988.361    1122.2504 
   20500     299.1787   -831.66357    280113.52   -75461.614    7596.3087   -83057.922    1124.9377 
   20550    297.13201   -1003.1375    279665.72   -75466.618    7544.3422    -83010.96    1125.0584 
   20600    297.91902   -860.42625    279804.48   -75461.388    7564.3247   -83025.713    1127.4435 
   20650    302.26458   -1111.6649    280306.81   -75404.738     7674.661   -83079.399    1132.1776 
   20700    294.81878    -1194.535    280711.91   -75478.875    7485.6079   -82964.483    1137.2984 
   20750    292.70375   -968.33895    280541.81   -75472.825    7431.9063   -82904.731    1139.6072 
   20800    302.67043   -1192.7488       280065   -75471.596    7684.9656   -83156.561     1140.502 
   20850    297.85744   -705.17821     279575.7   -75479.297    7562.7614   -83042.058    1140.4471 
   20900    299.87087   -997.63328    279573.22   -75409.751    7613.8833   -83023.634    1143.8277 
   20950    296.37914   -935.09153     279930.4    -75468.87    7525.2263   -82994.096     1146.454 
   21000    300.07106   -1112.4004    280100.16   -75495.284    7618.9662    -83114.25    1148.7643 
   21050    301.99533   -1011.8194    280247.44   -75447.932    7667.8245   -83115.757    1152.8145 
   21100    291.80408   -1199.7277    280273.59   -75422.218    7409.0632   -82831.281     1155.962 
   21150    299.16118   -906.06808     280078.3   -75466.782     7595.864   -83062.646    1157.4978 
   21200    298.65043   -914.18752     279825.2   -75486.518    7582.8956   -83069.413    1159.3283 
   21250     302.2352   -834.26568    279668.35   -75530.254    7673.9149   -83204.169    1162.1774 
   21300    298.21338   -980.34155    279921.43    -75519.83    7571.7989   -83091.629    1165.3498 
   21350    295.00671   -1159.6879    280198.52   -75579.595    7490.3797   -83069.975    1168.5764 
   21400    292.19382   -1269.3958    280256.48   -75573.376    7418.9589   -82992.335    1170.6115 
   21450    294.42896   -1080.8993    280129.62   -75558.566    7475.7102   -83034.276     1173.348 
   21500    292.19503   -994.96202    279766.61   -75535.199    7418.9895   -82954.188    1175.0303 
   21550    295.09496   -853.92033    279665.39     -75540.5    7492.6204   -83033.121    1176.8267 
   21600    299.84416   -1253.2581    280194.62   -75583.534     7613.205   -83196.739    1182.3106 
   21650    291.21088   -1092.2877    280494.34   -75585.406    7394.0015   -82979.408    1187.1009 
   21700    296.93491   -1323.6229    280417.94   -75558.324    7539.3378   -83097.662    1188.4386 
   21750    294.90607   -864.06365    279927.16    -75568.79    7487.8244   -83056.615     1189.145 
   21800    293.98657   -916.06182    279543.63   -75587.186    7464.4777   -83051.664    1190.7048 
   21850    296.12395   -747.45521    279740.57   -75578.999    7518.7469   -83097.746    1194.1529 
   21900    297.11218   -1359.1761    280564.97    -75554.21    7543.8386   -83098.048    1198.9831 
   21950    294.33028   -1332.3319    280693.02   -75562.108    7473.2046   -83035.313    1201.3609 
   22000    294.57783   -1384.3844    280126.58   -75520.186    7479.4902   -82999.676    1200.9408 
   22050    295.24809   -928.40806    279441.45   -75519.594    7496.5083   -83016.102    1201.4847 
   22100    293.42568   -875.40323    279370.37   -75507.691    7450.2364   -82957.928    1203.9442 
   22150    290.69487   -961.03508    280053.74   -75485.113    7380.8996   -82866.013     1207.975 
   22200     298.6493   -951.75802     280619.5   -75468.089    7582.8671   -83050.957    1213.1959 
   22250    300.81708   -1339.8763    280756.53   -75478.903    7637.9082   -83116.812    1217.9591 
   22300    299.07654   -1260.7656    280068.04    -75514.34    7593.7149   -83108.055    1218.5373 
   22350    295.29623   -772.14521     279312.3   -75534.804    7497.7307   -83032.535    1216.5262 
   22400    300.76767     -700.793       279347   -75557.055    7636.6535   -83193.708    1218.6715 
   22450    298.64426   -1056.2978    280047.72   -75524.423     7582.739   -83107.162    1223.1999 
   22500    302.34246   -1054.3924    280447.95   -75442.997    7676.6384   -83119.635    1226.7953 
   22550    293.66181   -1311.4245    280423.28    -75476.42    7456.2319   -82932.652    1229.3794 
   22600    301.99518    -1215.682    280004.83   -75515.629    7667.8208    -83183.45    1228.2841 
   22650    298.72403   -974.73096    279528.79   -75506.857    7584.7644   -83091.622    1230.3877 
   22700     295.2627   -940.67124    279602.98   -75526.753    7496.8794   -83023.632    1234.5889 
   22750    300.62683   -1008.9203    279950.11   -75499.403    7633.0776   -83132.481    1237.3053 
   22800    294.69739   -1140.4449    280137.24   -75512.801    7482.5259   -82995.327    1238.3937 
   22850    295.73646   -1122.3249    280232.65   -75509.002    7508.9084    -83017.91    1240.6562 
   22900    300.36183   -978.76078    280154.94    -75457.55    7626.3491     -83083.9    1243.3475 
   22950    297.35929   -902.20865    280094.23   -75469.168    7550.1129   -83019.281    1244.6954 
   23000     302.7043     -1045.55    279885.91   -75543.737    7685.8257   -83229.563    1247.1148 
   23050    297.38783   -881.16465    279939.02   -75528.252    7550.8377    -83079.09    1250.4019 
   23100    290.05686   -880.41358    280236.83   -75570.214    7364.7003   -82934.914    1254.3253 
   23150    294.73729   -1038.7699    280423.86    -75563.66    7483.5391     -83047.2    1258.5605 
   23200    299.87757    -1164.794    280247.57   -75528.438    7614.0533   -83142.491    1260.4154 
   23250    297.19016   -764.99264    279961.55   -75516.646    7545.8187   -83062.465    1260.8658 
   23300     297.9722   -920.52396    279751.68   -75536.542    7565.6751   -83102.217    1259.8954 
   23350    299.30706   -731.83253    279562.09   -75565.349    7599.5679   -83164.917    1261.0568 
   23400    291.87929   -1015.7492    279718.71   -75542.803    7410.9729   -82953.776    1263.4326 
   23450    293.14791   -838.18341    279980.92   -75558.865    7443.1839   -83002.049    1265.3506 
   23500    294.54927   -985.86361    280555.83   -75579.911     7478.765   -83058.676    1270.1021 
   23550    294.45306   -1005.3617    280599.96   -75574.892    7476.3222   -83051.214    1273.7462 
   23600    291.30385   -1252.2265    280306.18   -75582.018    7396.3621    -82978.38    1277.4959 
   23650     297.6752   -786.13045    279577.53   -75631.991     7558.134   -83190.125    1278.9442 
   23700    297.01854    -921.8244    279290.39   -75655.159     7541.461    -83196.62    1279.9376 
   23750    297.00609   -977.22306    279568.22   -75648.362    7541.1451   -83189.507    1282.1593 
   23800     297.8963   -947.69036    280016.02   -75616.757    7563.7479   -83180.505    1286.3376 
   23850     292.5365    -1231.224    280232.78   -75577.108    7427.6597   -83004.768    1291.4543 
   23900    294.61956   -903.83611    280087.11   -75591.951    7480.5497   -83072.501     1294.245 
   23950     297.4948   -1076.8159    279989.91   -75636.391    7553.5535   -83189.944     1296.705 
   24000    294.07283   -996.91486    279892.53   -75615.334     7466.668   -83082.002    1299.7671 
   24050    297.34191   -1064.0701    279666.68   -75608.195    7549.6717   -83157.867     1301.361 
   24100    290.21147   -726.62164    279703.29   -75611.205    7368.6259    -82979.83    1303.8981 
   24150    294.06141   -1202.3302    280173.58   -75567.433    7466.3781   -83033.811    1307.6825 
   24200    295.63155   -1047.6041    280323.04   -75580.337    7506.2447   -83086.581    1311.6786 
   24250    289.96569   -1045.2456    280082.76    -75509.76    7362.3855   -82872.146    1314.1415 
   24300    297.56206   -948.04451    279763.81   -75552.103    7555.2615   -83107.364     1315.845 
   24350     293.6005   -910.93409    279832.93   -75579.754    7454.6753   -83034.429    1316.9355 
   24400    293.66453   -979.02369    279975.83   -75602.319     7456.301    -83058.62    1318.7933 
   24450    292.35332   -1146.5386    280299.35    -75598.59    7423.0087   -83021.599    1323.1401 
   24500    296.39027   -1200.9827    280389.84    -75595.32     7525.509   -83120.829    1327.1739 
   24550    291.05788   -1185.7905    279947.54    -75630.21    7390.1167   -83020.327     1329.477 
   24600    298.30065   -1113.0922    279616.09   -75665.423    7574.0147   -83239.438    1331.8452 
   24650    296.04529   -842.20513    279630.84   -75653.142    7516.7499   -83169.892      1333.91 
   24700    291.87728   -1113.1863    279816.24   -75659.499    7410.9218   -83070.421    1336.0237 
   24750     295.1108   -967.06603    279711.79   -75646.105    7493.0225   -83139.128    1336.7815 
   24800    294.26947   -988.68818     279753.1   -75677.349    7471.6607   -83149.009    1340.0753 
   24850    297.50122   -1283.0695    280035.46   -75675.188    7553.7166   -83228.905    1345.9178 
   24900    294.74819   -1115.7732    280009.22   -75708.144    7483.8157   -83191.959    1348.2093 
   24950    294.05321   -1252.6954    280030.08   -75716.794    7466.1699   -83182.964    1350.9445 
   25000    294.49474   -881.55295    279941.43   -75679.658    7477.3806   -83157.039    1352.8335 
   25050    289.53341   -943.06047    279877.23     -75658.2    7351.4097    -83009.61    1357.7067 
   25100    294.16364   -1214.4766    279890.57     -75686.4    7468.9738   -83155.373    1358.8623 
   25150     293.1013   -1008.4976       279747   -75667.864    7442.0003   -83109.864    1360.3895 
   25200    293.91505    -1085.847    279741.66   -75623.991    7462.6617   -83086.653    1363.3904 
   25250     292.3961   -928.62891    279955.68    -75609.54     7424.095   -83033.635    1366.3944 
   25300    296.87028   -1132.9478    280536.32   -75566.535    7537.6968   -83104.231    1371.2352 
   25350    296.20986    -1104.063    280713.05   -75570.543    7520.9284   -83091.472    1376.1632 
   25400    296.09673   -1205.7407       280286   -75599.643    7518.0558   -83117.699    1377.9079 
   25450    293.32652   -518.96185    279598.04   -75627.752    7447.7188   -83075.471    1380.2126 
   25500      294.524   -856.09071     279197.1   -75654.325    7478.1233   -83132.449    1382.6107 
   25550    296.78849   -839.54722    279371.95   -75652.756    7535.6201   -83188.376    1386.2588 
   25600    288.48498   -765.44766    279841.16   -75655.059    7324.7893   -82979.849    1391.7253 
   25650    290.75897   -1043.9422    280304.83   -75629.037    7382.5273   -83011.564    1396.2605 
   25700    293.69719   -1174.3701    280436.82   -75595.617    7457.1303   -83052.748       1398.4 
   25750    294.34475   -1051.1163    279940.11   -75612.772    7473.5721   -83086.344    1397.9572 
   25800     294.8507   -984.72554     279598.7   -75596.143    7486.4184   -83082.562    1400.3974 
   25850    295.68012   -818.09736     279545.7   -75599.014    7507.4779   -83106.492    1402.4771 
   25900    296.37784   -938.84101    279714.82   -75629.519    7525.1935   -83154.713    1407.1528 
   25950    289.28404   -1056.1471    280067.12   -75633.634    7345.0779   -82978.712    1411.4601 
   26000    291.43511   -1056.7326    280005.03   -75667.352    7399.6948   -83067.047    1413.1021 
   26050    293.04584   -1021.9097    279921.92   -75665.619     7440.592   -83106.211    1416.6938 
   26100    291.67921   -992.53313    279766.08   -75677.759    7405.8925   -83083.651    1419.8356 
   26150    295.20743   -1032.4234    279628.32   -75623.981    7495.4761   -83119.458     1421.431 
   26200    295.95826   -914.55514    279685.05   -75622.466      7514.54   -83137.006    1422.2192 
   26250    294.41363   -785.60817     279927.3   -75587.807    7475.3211   -83063.128    1424.9513 
   26300    294.61831   -1177.7011     280464.9   -75572.486    7480.5179   -83053.004    1430.2416 
   26350    297.85432   -1389.9071    280748.46   -75517.329    7562.6821   -83080.011    1434.2796 
   26400     296.7302   -1053.3959    280568.83   -75519.623    7534.1399   -83053.763    1435.5541 
   26450    292.65331   -891.31259    279970.75   -75561.147    7430.6257   -82991.772    1435.6384 
   26500    297.30499   -1026.3077    279540.27   -75539.585    7548.7343   -83088.319    1436.3062 
   26550    292.18691   -1102.0811    279626.85   -75579.601    7418.7833   -82998.385    1437.0251 
   26600    297.66026   -1030.1538    279906.84   -75566.545    7557.7548     -83124.3    1438.9558 
   26650    295.50923   -1114.8202       280092   -75598.592     7503.139   -83101.731    1442.3703 
   26700    293.34973   -963.65294    279997.65   -75651.378     7448.308   -83099.686    1444.6667 
   26750    290.00989   -1159.1793    280210.69    -75680.76    7363.5076   -83044.267    1448.7939 
   26800    292.77763   -1201.7919    280063.47   -75682.879    7433.7821   -83116.661    1453.2149 
   26850    291.15198    -1236.208     279851.8    -75726.49    7392.5059   -83118.995    1454.7053 
   26900    291.09334   -1164.2128     279663.1   -75756.862    7391.0172    -83147.88    1455.0346 
   26950    295.87995    -870.2473    279453.93   -75763.181    7512.5518   -83275.733     1455.165 
   27000    290.89089    -1088.491    279542.28   -75779.116    7385.8769   -83164.993    1458.7705 
   27050    292.48393   -881.21152    279976.07   -75771.088    7426.3249   -83197.413     1462.568 
   27100    290.33677   -1331.9038    280262.12   -75798.478    7371.8075   -83170.286    1465.7462 
   27150    293.41089   -910.85017    279948.41   -75707.053     7449.861   -83156.914    1468.2707 
   27200    289.91848    -748.8425    279636.15    -75708.73    7361.1867   -83069.917    1470.5166 
   27250    292.54062   -1080.8734     279593.6   -75706.851    7427.7643   -83134.615    1471.7049 
   27300    289.84031   -875.19604     279831.2   -75684.179     7359.202   -83043.381    1473.4815 
   27350    294.25469   -1049.1491    280157.43   -75691.163    7471.2856   -83162.448    1478.8233 
   27400    293.81729   -1229.5142    280226.61    -75649.13    7460.1797    -83109.31    1481.6693 
   27450    299.54215   -902.26155     279892.8   -75614.162    7605.5369   -83219.699    1484.9086 
   27500    297.36056   -1083.8099    279697.33   -75581.416    7550.1451   -83131.562    1486.7695 
   27550     292.9621   -688.30096    279710.32   -75570.712    7438.4659   -83009.178    1488.8688 
   27600    293.26236    -889.1273    280121.38   -75542.417    7446.0896   -82988.506    1493.1932 
   27650    293.53526   -1110.2129    280276.57   -75565.683    7453.0188   -83018.701    1497.0381 
   27700    290.09997   -961.79494    280189.51    -75570.54     7365.795   -82936.335    1499.2525 
   27750     298.1492   -1110.7623    279973.33   -75541.418    7570.1691   -83111.587    1500.8559 
   27800    293.94296   -989.26157    279727.24   -75598.995    7463.3705   -83062.366    1502.1359 
   27850    294.97051    -1029.879    279777.78   -75570.254    7489.4606   -83059.714    1507.1599 
   27900    296.74077   -779.43427     280253.7   -75492.548    7534.4085   -83026.957    1513.0745 
   27950    295.62135   -1234.6895    280717.11   -75489.611    7505.9856   -82995.597    1515.9646 
   28000    293.21508   -1433.0047    280478.22   -75496.923    7444.8892   -82941.812    1517.3743 
   28050    298.37002   -603.01988    279631.11   -75485.709    7575.7759   -83061.485    1515.0467 
   28100    299.20964   -952.57732    279416.14   -75491.839    7597.0944   -83088.933    1517.0171 
   28150    299.17427    -965.5069    279767.67   -75526.371    7596.1962   -83122.567     1518.772 
   28200    295.51456   -973.01447    280516.42   -75542.911    7503.2743   -83046.186    1523.7212 
   28250    295.82149   -1198.2297    280664.91   -75482.022    7511.0674    -82993.09    1527.6499 
   28300    296.47381   -937.67925     280065.2   -75504.783    7527.6301   -83032.413    1528.1724 
   28350     298.5883   -672.41297    279494.07   -75544.262    7581.3183    -83125.58    1526.9986 
   28400    296.79353   -893.46469    279377.45    -75540.86    7535.7481   -83076.608    1528.9687 
   28450    297.52369   -1014.2692    279584.19   -75531.151    7554.2871   -83085.438    1531.9861 
   28500    295.49635   -1048.6595    280255.02   -75478.689     7502.812   -82981.501    1537.0029 
   28550    295.40514   -957.04229    280597.33   -75432.858     7500.496   -82933.354     1540.447 
   28600    300.12399   -880.52616    280355.38   -75400.776    7620.3103   -83021.086     1540.385 
   28650    296.93601   -1192.2435    280176.79   -75415.432    7539.3656   -82954.798    1541.5457 
   28700    302.07689    -894.4798    279672.98   -75380.483    7669.8954   -83050.378    1541.4377 
   28750    299.93363   -1155.0968    279716.71   -75408.117    7615.4768   -83023.594    1543.9923 
   28800    298.50475   -1014.2466    279750.34   -75491.979    7579.1968   -83071.176    1548.1232 
   28850    296.38201   -902.06053    280034.85   -75499.778    7525.2993   -83025.078    1550.8798 
   28900    300.27397   -1026.7734    280382.32   -75501.971    7624.1183   -83126.089    1555.7331 
   28950    295.11061   -1067.9102    280325.66   -75514.735    7493.0176   -83007.753    1558.1478 
   29000    299.25197   -1063.5626    279904.54   -75562.634    7598.1692   -83160.803    1558.7785 
   29050     296.7061   -718.23488    279634.02   -75573.622     7533.528    -83107.15    1558.6457 
   29100    292.47328   -685.39784    279798.24   -75555.235    7426.0546    -82981.29    1561.5748 
   29150     298.1602   -1014.4931    280074.31   -75561.286    7570.4484   -83131.734    1563.8295 
   29200    299.44496   -946.07098    280315.73   -75550.317    7603.0694   -83153.386    1565.9299 
   29250    299.04753   -910.67544    280403.86   -75503.138    7592.9782   -83096.116    1566.5925 
   29300     295.2477   -1272.9894    280342.41   -75542.734    7496.4986   -83039.233    1568.8569 
   29350    295.50448   -992.68788     279809.2   -75583.462    7503.0184    -83086.48    1569.5897 
   29400    295.28869   -985.39593    279394.93   -75606.886    7497.5394   -83104.425    1570.8241 
   29450     294.7131   -936.86181    279469.59   -75611.672    7482.9247   -83094.597    1573.5648 
   29500    294.73398   -1084.0311    279784.44   -75620.541    7483.4548   -83103.996     1576.488 
   29550    292.72439   -890.98811    279958.28       -75587    7432.4303    -83019.43    1578.4066 
   29600    299.27406    -1263.883    280245.23   -75556.722      7598.73   -83155.452    1579.1873 
   29650    295.14362    -958.9595    280212.22   -75538.026    7493.8558   -83031.882     1581.818 
   29700    296.46028   -767.49285    279946.16   -75577.002    7527.2866   -83104.289    1585.6958 
   29750    300.78564     -1021.88    280095.44    -75554.44    7637.1098   -83191.549    1587.1882 
   29800    297.31806   -1088.8421    280212.74   -75529.199    7549.0661   -83078.265    1591.4677 
   29850    297.63303   -988.72644    279944.74   -75525.935    7557.0633   -83082.999    1592.0536 
   29900    299.20372   -770.10062    279811.14   -75491.582     7596.944   -83088.526    1593.9772 
   29950    297.42711   -1118.5827    280120.49   -75474.367    7551.8348   -83026.202     1599.223 
   30000    295.98523   -1239.0572    280261.84   -75505.604    7515.2248   -83020.829    1602.5188 
   30050    297.52047   -1027.5645    280084.04   -75536.761    7554.2054   -83090.966     1605.579 
   30100    297.23392   -1110.7243    279994.09   -75493.135    7546.9298   -83040.065    1607.9589 
   30150    295.48939   -907.79163    280108.92   -75493.706    7502.6352   -82996.341    1610.8003 
   30200    293.14755   -1216.7655    280084.92   -75498.441    7443.1746   -82941.615    1613.7119 
   30250    295.55815   -1075.3686    280130.48   -75509.655     7504.381   -83014.036    1615.4656 
   30300    299.21535   -769.13224    280151.33   -75488.612    7597.2393   -83085.851    1618.3669 
   30350    290.21047   -1290.3299    280293.31   -75496.478    7368.6005   -82865.079    1620.5171 
   30400     296.4059    -958.8346    279699.13   -75581.636    7525.9059   -83107.542    1619.3742 
   30450    295.31982   -530.40993    279259.89   -75618.227    7498.3298   -83116.556    1618.1109 
   30500    296.69758   -968.11568    279737.47   -75566.437    7533.3118   -83099.748     1624.101 
   30550    297.40764   -929.98177    280460.12   -75550.175    7551.3405   -83101.515    1630.1677 
   30600    294.48987   -1490.0535    280934.78   -75564.882    7477.2568   -83042.139    1633.5202 
   30650    294.79073   -1043.2152    280516.82   -75594.583    7484.8958   -83079.479    1632.9687 
   30700    298.37215   -514.65173    279652.06   -75604.278    7575.8299   -83180.108    1630.9133 
   30750    295.34796   -803.84671    279432.96   -75638.964    7499.0441   -83138.008    1632.2214 
   30800    295.21259   -872.08843    279624.76   -75686.202     7495.607   -83181.809    1635.6333 
   30850    290.71385   -1152.9552    280191.86   -75699.122    7381.3816   -83080.504    1641.4123 
   30900     292.4983   -1224.2934    280278.78   -75669.502    7426.6897   -83096.192     1643.665 
   30950    294.92844   -1227.5982    279851.33   -75692.376    7488.3924   -83180.768    1642.5309 
   31000    295.19994   -913.17637    279192.94   -75702.556    7495.2859   -83197.842    1642.8833 
   31050    296.63349   -985.93989    279030.92   -75693.347    7531.6845   -83225.031    1642.7712 
   31100    293.11853   -979.44328     279608.5   -75661.943    7442.4377   -83104.381    1647.1964 
   31150    292.82819   -1063.6834    280317.48   -75617.055    7435.0658   -83052.121     1651.905 
   31200    288.08859   -1545.0614    280753.87    -75589.48    7314.7249   -82904.205    1654.5612 
   31250    287.68304   -721.56744    280141.22   -75589.012    7304.4276   -82893.439    1654.4696 
   31300    291.13231   -753.03484    279348.51   -75599.806    7392.0066   -82991.812    1654.0802 
   31350    296.22007   -856.45247    279398.79   -75622.216    7521.1876   -83143.404    1655.9089 
   31400    294.18819   -1194.6476    279922.26   -75643.733    7469.5969   -83113.329    1662.7854 
   31450    290.08211   -1149.5686     280120.8   -75622.798    7365.3415   -82988.139    1666.3984 
   31500     298.6897   -985.10297    280053.58   -75623.265    7583.8927   -83207.158    1670.6259 
   31550    290.65912   -1046.2555    280027.43   -75634.243     7379.992   -83014.235    1673.1888 
   31600    295.15553   -1286.6069    279848.09    -75651.09    7494.1583   -83145.248    1675.8202 
   31650     292.2302   -871.14137    279510.16   -75594.678    7419.8826   -83014.561    1677.3518 
   31700    296.25284   -876.27913    279342.19   -75599.891    7522.0196   -83121.911    1679.3734 
   31750    293.17106   -805.86765     279638.7   -75592.502    7443.7715   -83036.274    1682.5534 
   31800    295.86216   -1521.6391     280201.1   -75586.869    7512.1001   -83098.969    1686.7017 
   31850    291.63469   -1466.9386    280368.25   -75619.431    7404.7624   -83024.193     1689.457 
   31900    295.37767   -1368.8281    280006.91   -75652.456    7499.7986   -83152.255    1690.5991 
   31950    297.32616   -1055.7428    279414.95    -75623.09    7549.2718   -83172.361    1689.1966 
   32000    294.56829   -887.95841    279344.76   -75648.992    7479.2479    -83128.24     1689.309 
   32050    291.34464   -882.50111    279855.76   -75660.793    7397.3978   -83058.191    1691.7231 
   32100    291.35149   -1143.2163    280499.19   -75635.042    7397.5717   -83032.613    1697.7186 
   32150    289.02943   -1037.8961    280611.76   -75669.792    7338.6133   -83008.405     1700.787 
   32200    294.62172   -1142.2958    280303.01    -75645.79    7480.6045   -83126.394    1702.5488 
   32250    289.85431    -787.4929    279806.02   -75632.528    7359.5575   -82992.086    1704.1278 
   32300      293.229   -900.17146    279667.95   -75657.749    7445.2426   -83102.991    1707.7541 
   32350    293.15099    -1103.542    280030.38   -75654.501    7443.2619   -83097.763     1711.575 
   32400    291.04114   -783.85077     280092.3   -75647.613    7389.6917   -83037.305    1714.5612 
   32450    293.47984   -1180.6801    280162.06   -75676.312    7451.6117   -83127.924    1716.1544 
   32500    291.66005   -1238.0448    279799.83   -75653.527    7405.4061   -83058.933    1716.2234 
   32550    294.50987   -1152.6187     279174.6   -75682.137    7477.7646   -83159.901    1716.0122 
   32600    297.30695   -515.32953    279052.85   -75624.718     7548.784   -83173.502    1715.4076 
   32650    290.53331   -971.07184    279985.02   -75611.622    7376.7977    -82988.42    1720.7735 
   32700    295.01164    -1315.354     280760.7   -75612.436    7490.5048   -83102.941    1725.5346 
   32750     291.4166    -999.9439    280629.73   -75583.474    7399.2248   -82982.699    1725.5371 
   32800    293.82586   -1171.9605    280061.16   -75621.812    7460.3972   -83082.209    1724.2603 
   32850    292.27648   -851.59035    279282.17   -75616.176    7421.0577   -83037.234    1722.2671 
   32900    296.11772   -814.60454    278995.89    -75650.88    7518.5888   -83169.469    1723.6999 
   32950    291.94038   -1061.0952    279464.29   -75690.812     7412.524   -83103.336    1728.3941 
   33000    294.26049   -1076.2115    280043.17   -75628.053    7471.4328   -83099.486    1732.8892 
   33050    294.35241   -992.04222     280459.3   -75627.256    7473.7667   -83101.023    1736.1469 
   33100    292.53265   -1270.1297    280563.15   -75635.499     7427.562   -83063.061    1738.6068 
   33150    297.37574   -849.26322    279871.98   -75657.752    7550.5306   -83208.283    1738.6305 
   33200    291.88529    -854.0937    279367.74    -75688.88    7411.1252   -83100.005    1737.4213 
   33250    291.06699   -819.37311    279401.25   -75701.037    7390.3481   -83091.386    1738.8893 
   33300    293.82317   -950.61794    279865.75   -75687.313     7460.329   -83147.642    1742.3462 
   33350    290.25976   -1115.6979    280257.85   -75710.247     7369.852   -83080.099    1746.8995 
   33400    290.17871   -979.57654    280045.95   -75671.425    7367.7942   -83039.219    1750.0634 
   33450    292.10505   -1190.8129    279766.07    -75651.98    7416.7049   -83068.684    1751.2253 
   33500    293.90454   -613.21221    279582.48   -75683.931     7462.395   -83146.326    1751.7342 
   33550    290.37915   -854.15188    279636.75   -75659.558    7372.8835   -83032.441    1754.0701 
   33600    291.93991   -1083.6501    280089.97   -75666.586     7412.512   -83079.098    1758.6009 
   33650    292.48609   -1148.5439    280458.28   -75666.365    7426.3799   -83092.745    1762.8443 
   33700    293.13047   -1305.0234    280522.64   -75632.428    7442.7408   -83075.169    1765.3226 
   33750    289.62616   -941.74435    279953.31   -75617.757    7353.7647   -82971.522    1767.0558 
   33800    292.84166   -896.32232    279588.67   -75630.363    7435.4079   -83065.771    1768.3668 
   33850     294.0648   -554.42833    279561.58    -75641.57    7466.4642   -83108.034    1770.1293 
   33900    291.61204   -1129.2161    279957.81   -75656.217    7404.1871   -83060.404    1774.1278 
   33950    292.53825   -1227.9004    280348.25   -75659.973    7427.7042   -83087.677    1778.9396 
   34000    296.39098    -1088.528    280049.02   -75628.398     7525.527   -83153.925    1780.7219 
   34050    294.06271    -862.3936    279569.11   -75653.925    7466.4109   -83120.336     1782.533 
   34100    291.99987   -870.55045    279353.92   -75679.623    7414.0343   -83093.657    1786.0444 
   34150     293.4821   -809.99749     279343.7   -75685.962    7451.6689   -83137.631    1788.9188 
   34200    291.44923   -896.25855    279839.31   -75687.766    7400.0533    -83087.82    1794.7184 
   34250     292.1701   -1166.6401    280356.99   -75673.696    7418.3566   -83092.053    1800.1442 
   34300    293.31828    -1092.172    280339.41   -75617.604    7447.5094   -83065.114    1802.3079 
   34350    296.31847   -1108.9724    279948.89   -75648.639    7523.6859   -83172.325    1803.9815 
   34400    290.42864   -831.39577    279614.33   -75697.833    7374.1399   -83071.972    1804.7805 
   34450     290.8782   -866.70326    279752.82   -75654.907    7385.5545   -83040.462     1808.893 
   34500    293.00407   -803.26878    279769.15   -75699.404    7439.5316   -83138.935    1813.6241 
   34550    296.42557   -1017.2159    279950.69   -75748.386    7526.4053   -83274.791    1815.0548 
   34600    292.03542   -1262.1931    279988.54   -75776.151     7414.937   -83191.088    1818.0195 
   34650    293.58186   -897.18099    279613.04   -75751.149    7454.2019   -83205.351     1817.266 
   34700    288.49037   -916.17422    279396.36   -75723.944    7324.9263    -83048.87    1819.8253 
   34750    292.26587   -754.18727    279514.56   -75751.193    7420.7882   -83171.981    1823.3415 
   34800    292.49196     -1024.51       279688   -75711.831    7426.5287    -83138.36    1825.8666 
   34850    290.17339   -923.84246    279733.12   -75742.347     7367.659   -83110.006    1828.0694 
   34900    290.84809   -1092.3156    280177.97   -75743.771    7384.7902   -83128.561    1832.4031 
   34950    290.01205    -929.6998    280400.38   -75687.724    7363.5625   -83051.286    1837.7153 
   35000    287.81763   -1243.3184    280209.32   -75685.735     7307.845    -82993.58    1840.6509 
   35050    292.61555   -1135.1395    279850.23   -75676.917    7429.6667   -83106.584    1840.0015 
   35100    292.42001   -829.71852    279701.85   -75712.354    7424.7019   -83137.056    1840.0238 
   35150     291.6778    -1238.459    280174.62   -75718.327    7405.8567   -83124.184    1844.1592 
   35200    286.21249   -773.44212    280474.34   -75701.368    7267.0897   -82968.458    1847.0659 
   35250     290.6281   -1217.7839    280615.75   -75654.716    7379.2043   -83033.921     1849.774 
   35300    295.73346   -1289.7076    280422.21   -75623.448    7508.8323   -83132.281    1852.2319 
   35350    293.18588   -926.72448    279663.69   -75615.168    7444.1479   -83059.316    1850.9797 
   35400    288.91256    -709.3212    279357.52   -75654.585     7335.646   -82990.231    1850.9163 
   35450    292.93846   -754.74855    279705.51    -75630.79    7437.8657   -83068.655    1854.7579 
   35500    293.56315   -1237.9609    280392.67   -75591.334    7453.7269   -83045.061    1859.9456 
   35550    289.48672   -1036.1472    280383.83   -75635.907    7350.2241   -82986.131    1863.3103 
   35600    298.12428   -1029.7915    279858.57   -75561.561    7569.5365   -83131.097    1864.8099 
   35650    302.22517   -1136.6621    279549.52   -75565.176    7673.6602   -83238.836    1863.6082 
   35700    293.05281   -1054.4663    279639.82   -75614.674     7440.769   -83055.443    1865.0075 
   35750    296.72464   -1033.5095    280018.12    -75611.95    7533.9989   -83145.949    1869.7171 
   35800    293.26155   -1166.2419    280469.77   -75623.554    7446.0691   -83069.623    1874.2417 
   35850    291.76176    -1033.618    280554.79   -75589.007    7407.9886   -82996.996     1877.758 
   35900    295.12687   -958.12809    280430.67   -75588.808    7493.4306   -83082.238    1879.9514 
   35950    293.03235   -1150.5891    280117.02   -75603.703    7440.2496   -83043.952    1881.0364 
   36000    297.01331    -1080.479    279805.13   -75639.356    7541.3283   -83180.685    1883.3677 
   36050    292.87018   -1222.0561    279490.81   -75676.127     7436.132   -83112.259    1885.9847 
   36100    296.19233   -828.91584    279371.53   -75646.011    7520.4831   -83166.495    1887.3009 
   36150    293.99278   -939.29647    279738.22     -75637.6    7464.6354   -83102.235    1888.6758 
   36200    295.26551   -901.93091    280238.89   -75640.974    7496.9506   -83137.925    1890.8426 
   36250    295.32935   -1252.8565    280623.82   -75618.518    7498.5716    -83117.09    1893.5237 
   36300    296.03245   -1215.2047    280217.48   -75676.486    7516.4238    -83192.91     1894.468 
   36350    295.47833   -765.48306    279566.32   -75619.027    7502.3545   -83121.382    1895.9105 
   36400     294.4022   -732.32266    279223.97   -75673.674    7475.0309   -83148.705    1897.8291 
   36450    295.34246   -1075.7518     279419.7   -75636.269    7498.9046   -83135.173    1901.7378 
   36500    295.34661   -806.10227    280031.91   -75634.706    7499.0099   -83133.716    1906.3628 
   36550    290.10538   -1330.1285    280558.97   -75585.122    7365.9322   -82951.054    1910.1528 
   36600    297.97737    -1255.187    280298.66   -75565.399    7565.8064   -83131.205    1909.7633 
   36650    297.66906   -955.62435    279691.74   -75594.854    7557.9781   -83152.832    1907.7457 
   36700    296.02509   -1007.4511    279583.38   -75589.656     7516.237   -83105.893    1909.5235 
   36750    293.89048    -1154.506    279683.31   -75616.615    7462.0379   -83078.653    1911.9669 
   36800    301.98094   -917.75005    279867.32   -75579.804    7667.4591   -83247.263    1915.8005 
   36850    292.91009   -1073.8098    280222.27   -75571.765    7437.1454   -83008.911    1921.0143 
   36900    296.60228   -1227.4748    280148.38   -75591.466    7530.8921   -83122.358    1920.9748 
   36950    294.94755   -1060.7875    279588.16    -75638.08    7488.8776   -83126.958     1921.807 
   37000    294.83477   -785.86782    279240.32   -75670.476     7486.014    -83156.49    1926.0894 
   37050    292.55193   -1109.8993    279387.91   -75678.537    7428.0515   -83106.588    1930.5582 
   37100    298.16337   -776.24636    279568.94   -75633.967     7570.529   -83204.496    1934.0436 
   37150    290.98601   -874.75464    280133.57   -75628.044    7388.2918   -83016.336    1940.6224 
   37200    288.90716   -1373.4859    280580.02   -75633.036    7335.5089   -82968.545     1945.227 
   37250    291.97094   -1053.8446    280343.96   -75627.876    7413.2999   -83041.176    1944.1879 
   37300    293.07897   -808.82319     279698.3   -75650.258    7441.4333   -83091.692    1943.1844 
   37350    291.93704   -893.45181    279557.65   -75646.478    7412.4391   -83058.917    1949.3523 
   37400       302.02   -1424.3885    280203.64   -75637.887    7668.4509   -83306.338    1955.5006 
   37450    290.87084   -1105.6211    280748.18   -75620.556    7385.3678   -83005.924    1960.4671 
   37500    293.23001   -1189.5385    280592.69   -75619.534    7445.2683   -83064.802    1960.3233 
   37550    293.86042   -803.20945    279814.83    -75625.73    7461.2746   -83087.005    1959.2023 
   37600    292.14018    -794.3829    279411.44   -75644.989    7417.5968   -83062.586    1961.7231 
   37650    296.43403   -1100.0896    279602.09   -75635.071    7526.6202   -83161.692    1964.2373 
[...]
   90850    296.77777    -945.1385    279621.87   -75488.994    7535.3479   -83024.342    4600.8345 
   90900    297.94021   -991.95023    279973.98   -75494.359    7564.8629   -83059.222    4604.7213 
   90950    291.55195   -1198.1366    280564.68   -75509.982    7402.6615   -82912.644    4617.4928 
   91000    300.38742   -1147.0508    280727.27    -75491.43    7626.9989   -83118.428    4620.0281 
   91050    298.04771   -1243.8831    280368.02   -75529.094    7567.5923   -83096.686    4615.7458 
   91100    295.91751   -727.73729    279777.86   -75483.851    7513.5055   -82997.356    4611.0808 
   91150    293.85577    -1024.484    279621.66   -75500.982    7461.1568   -82962.138    4612.8611 
   91200    298.11769   -799.85334    279481.83   -75529.795    7569.3691   -83099.164     4612.651 
   91250    298.03553    -842.4706    279621.12   -75544.758    7567.2829   -83112.041    4616.1692 
   91300    298.70562   -1121.0082    280105.82    -75534.92     7584.297   -83119.217    4624.4129 
   91350    295.40041   -1220.1243    280401.32     -75537.5     7500.376   -83037.876    4632.3538 
   91400    296.46508   -1065.4109    280188.56   -75575.713    7527.4085   -83103.122    4630.7824 
   91450    300.43789   -1144.5065    279837.16   -75606.559    7628.2803    -83234.84    4629.9816 
   91500    296.03788   -716.39447    279305.37   -75617.781    7516.5615   -83134.343    4624.4438 
   91550    296.05628    -978.9436    279137.62   -75606.153    7517.0288   -83123.182    4625.1997 
   91600    292.36762   -441.13277    279503.23   -75630.068    7423.3717    -83053.44    4632.0237 
   91650    288.62521   -1050.2358    280543.66   -75678.944      7328.35   -83007.294    4643.1849 
   91700    297.34436   -1417.6303    280755.29   -75690.983    7549.7339   -83240.717     4649.057 
   91750    295.09573   -1079.1349    279927.62   -75651.248      7492.64   -83143.888    4641.3795 
   91800    292.48515   -682.97296    279104.84   -75659.261    7426.3558   -83085.617    4631.9695 
   91850    296.61056   -1188.4237    279412.14   -75687.297    7531.1023   -83218.399    4638.9288 
   91900    295.58875   -971.80224    279779.95   -75668.599    7505.1579   -83173.757    4644.1809 
   91950    292.84832   -1113.2015    280089.26   -75712.623    7435.5771     -83148.2    4644.6512 
   92000    292.77981   -977.49777    280188.48   -75673.576    7433.8374   -83107.413    4647.8951 
   92050    289.96801   -816.60296    280028.64   -75730.975    7362.4445    -83093.42    4648.7371 
   92100    292.12048   -795.04054    279766.28   -75665.395    7417.0968   -83082.492    4645.7619 
   92150    291.31032   -1021.0892    279543.35   -75666.423    7396.5263   -83062.949    4647.1758 
   92200    292.16033   -733.33753    279413.74   -75657.512    7418.1085    -83075.62    4647.8564 
   92250    293.87488   -1192.7448    279751.75   -75634.453    7461.6418   -83096.094    4653.0724 
   92300    299.11238   -1077.7866    279892.91   -75643.913     7594.625   -83238.538    4658.1015 
   92350    296.21313   -1059.2401    279932.77   -75653.176    7521.0112   -83174.187    4658.3138 
   92400    290.20168   -888.11939    280018.42   -75649.198    7368.3773   -83017.576    4664.4041 
   92450    291.94631   -1066.3687    280045.22   -75641.871    7412.6744   -83054.546    4667.7607 
   92500    295.03817   -812.61697    279860.03   -75659.506    7491.1783   -83150.685    4667.1022 
   92550    291.52422   -1226.6569    279861.47    -75666.04    7401.9573   -83067.998    4670.2744 
   92600    294.41913   -1172.7207    279676.19   -75702.494    7475.4608   -83177.955    4673.8981 
   92650    294.36057   -944.34535    279671.44    -75688.49    7473.9739   -83162.464    4674.8375 
   92700    296.50689    -1186.241    279823.56   -75680.829    7528.4701   -83209.299    4679.7205 
   92750    289.13103   -1105.6187    279993.08   -75730.727    7341.1929   -83071.919    4681.1934 
   92800    292.88239   -739.20927    280052.68   -75723.084     7436.442   -83159.526    4681.1635 
   92850     291.0328   -1022.5685    280194.13   -75699.479      7389.48   -83088.959    4688.4017 
   92900    292.53225   -1192.8066    280161.99   -75707.563    7427.5519   -83135.115    4689.5745 
   92950    300.72793   -1290.0557    279963.83   -75702.449    7635.6445   -83338.093    4687.3359 
   93000    294.16906   -749.73678    279678.62   -75664.853    7469.1113   -83133.964    4684.2533 
   93050    295.00035   -906.89618    279856.16    -75642.15    7490.2183   -83132.368    4687.5079 
   93100    292.36919   -1042.3162    280172.41   -75597.322    7423.4117   -83020.733    4695.9848 
   93150    298.54823    -1328.377    280320.11   -75614.957    7580.3007   -83195.257    4700.3158 
   93200    295.56881   -1108.6468    280215.55   -75586.886    7504.6517   -83091.537    4700.1737 
   93250    299.87871   -801.21984    279883.26    -75568.41    7614.0824   -83182.493    4698.9268 
   93300    300.02568   -1307.8965    279837.88   -75601.076     7617.814    -83218.89    4700.3117 
   93350    294.93004   -909.88071    279623.53   -75647.818     7488.433   -83136.251     4701.168 
   93400    295.91057   -995.12312    279683.85   -75656.942    7513.3291   -83170.271    4704.5403 
   93450    291.98392   -1226.0961    280089.99   -75642.029    7413.6294   -83055.658     4710.007 
   93500     298.1671   -1388.6971    280103.62   -75632.927    7570.6237   -83203.551    4712.5855 
   93550    295.84039   -1074.4732    279699.34   -75631.643    7511.5474   -83143.191    4712.9518 
   93600    290.30595    -738.3664     279280.7   -75599.897    7371.0248   -82970.922    4711.6525 
   93650     295.5333   -892.30182    279330.13   -75611.788      7503.75   -83115.538    4714.2272 
   93700    293.44723   -1066.8258     279994.5   -75602.221    7450.7837   -83053.005    4723.5087 
   93750    292.12864   -1142.1578    280489.34   -75578.414    7417.3039   -82995.718     4733.676 
   93800    294.80229   -1137.5951    280547.91   -75566.631    7485.1894    -83051.82    4737.8365 
   93850     290.2722   -1112.0009    280326.83   -75571.965    7370.1678   -82942.133    4741.5773 
   93900    295.27466   -1026.6713    279757.35   -75565.847    7497.1831    -83063.03    4737.6253 
   93950    295.00816   -677.33191    279527.83   -75562.349    7490.4165   -83052.766    4737.8867 
   94000    297.00735   -1018.9644    280009.42   -75542.245    7541.1771   -83083.423    4749.1417 
   94050    292.47116   -1144.5244    280456.68   -75492.425    7426.0007   -82918.426    4759.0581 
   94100    296.20948   -1042.3474    280432.79   -75512.325    7520.9186   -83033.243    4760.6673 
   94150    296.41433   -1065.2065    280172.67   -75508.488    7526.1199   -83034.608    4761.1068 
   94200    300.69701   -1045.8706    279884.34    -75506.36    7634.8594    -83141.22    4761.8164 
   94250    297.39935    -816.2248    279903.86   -75482.662    7551.1302   -83033.793     4760.616 
   94300    297.42018   -1238.0132    280337.21   -75452.937     7551.659   -83004.596    4765.3511 
   94350    295.41342   -679.66596    280615.01   -75461.696    7500.7062   -82962.402    4773.4136 
   94400    298.89026   -1234.8302    280760.54   -75489.075    7588.9851    -83078.06    4778.4711 
   94450    300.08315   -981.44928    280373.87   -75496.446    7619.2733   -83115.719    4774.6181 
   94500    299.57315    -1158.139    279935.64    -75478.43    7606.3241   -83084.754    4771.3901 
   94550    293.73562   -885.72513    279641.71   -75518.412    7458.1061   -82976.518    4770.0165 
   94600    297.82328   -894.88285    279826.95   -75504.558    7561.8939   -83066.452    4773.8806 
   94650    295.06591   -1040.9741    280363.54   -75471.394    7491.8827   -82963.277    4780.0004 
   94700    301.92926    -1214.507    280633.63    -75415.99    7666.1471   -83082.137    4784.1872 
   94750    299.66041    -1260.695    280329.58   -75480.687    7608.5397   -83089.227     4785.502 
   94800     297.4126   -1122.0542    279705.54   -75502.361    7551.4664   -83053.828    4783.4887 
   94850    299.38013   -925.00854    279310.96   -75528.987    7601.4232   -83130.411    4779.5058 
   94900    298.80772   -995.75871    279492.21   -75534.244    7586.8895   -83121.134    4780.0473 
   94950    298.32143   -642.72709    279914.23     -75569.3    7574.5423   -83143.842    4785.0219 
   95000    294.96841     -1161.61    280622.23   -75568.908    7489.4073   -83058.315     4791.488 
   95050    295.64957   -1268.7993    280702.85   -75525.279    7506.7023   -83031.982    4799.9582 
   95100    293.30681   -1145.2509    280205.57   -75549.466    7447.2182   -82996.684    4799.4794 
   95150     296.6745   -1144.2334    279608.05   -75577.213    7532.7258   -83109.939    4795.7397 
   95200    299.43317   -873.42279    279143.41   -75597.222    7602.7699   -83199.992    4793.8613 
   95250    295.78635   -666.86425    279391.97   -75581.978    7510.1752   -83092.153    4802.3537 
   95300    295.66761   -1032.8471    280202.52   -75621.475    7507.1602   -83128.635    4816.8865 
   95350    291.07241    -1359.497    280901.67   -75622.259    7390.4856   -83012.745    4829.8008 
   95400    295.97576   -1228.7121    280515.88   -75577.819    7514.9845   -83092.803    4831.9326 
   95450    296.46083   -996.34105    279612.31    -75611.21    7527.3006   -83138.511    4826.2912 
   95500    296.63607   -1063.9263    279091.87   -75614.615    7531.7501   -83146.366    4822.2489 
   95550    298.51585    -840.5224    279273.67   -75621.375    7579.4787   -83200.854    4823.4224 
   95600    290.86212   -1103.9547    279875.94   -75615.424    7385.1462    -83000.57    4834.9925 
   95650    290.71014   -1007.1311    280135.79   -75638.492    7381.2875   -83019.779    4840.3245 
   95700    293.31691   -1035.1738       280051   -75620.594    7447.4747   -83068.068    4841.6338 
   95750     291.5437   -685.99878    279846.24   -75615.448    7402.4519     -83017.9    4844.5038 
   95800     299.1185   -1371.3168    279776.89   -75649.296    7594.7803   -83244.076    4846.3166 
   95850    294.06311   -957.47794    279546.87   -75627.181    7466.4211   -83093.602    4847.3851 
   95900    291.97568   -730.01969    279638.36   -75627.471    7413.4201   -83040.891    4850.4688 
   95950    294.94525   -1091.4802    279882.48   -75622.259    7488.8192   -83111.079    4854.3492 
   96000    290.33845   -875.57499    280058.73   -75623.022    7371.8501   -82994.872    4858.0372 
   96050    292.55082   -1152.5731    280103.17   -75595.467    7428.0234   -83023.491    4863.5071 
   96100    295.92253    -931.1549    279740.26   -75532.018    7513.6329   -83045.651    4865.0358 
   96150    298.50509   -960.27729    279675.47    -75556.67    7579.2055   -83135.875    4867.5916 
   96200    295.62231    -1140.982    280125.04   -75512.442    7506.0102   -83018.452    4875.2471 
   96250    300.66977   -1399.7644    280733.53   -75492.074    7634.1679   -83126.242    4885.6702 
   96300     299.2233   -1275.4726    280779.25   -75501.095    7597.4411   -83098.536    4892.2261 
   96350    294.46689   -886.69323    280135.85   -75514.548    7476.6734   -82991.222    4889.7457 
   96400    297.87656   -728.25698    279644.02   -75558.547    7563.2466   -83121.793     4886.936 
   96450    293.94521   -825.19946    279603.19   -75522.335    7463.4276   -82985.763    4891.7202 
   96500    297.77861   -814.34557    279545.35   -75528.841    7560.7598   -83089.601    4895.3094 
   96550    294.98911   -1228.7412    279784.46    -75501.21    7489.9328   -82991.143    4903.0747 
   96600    295.87018   -673.13965    280028.45   -75503.396    7512.3036     -83015.7    4909.8288 
   96650    296.60325   -1237.0749    280342.83   -75536.968    7530.9167   -83067.884    4916.4202 
   96700    298.18437   -1157.5351    280272.26   -75545.741    7571.0622   -83116.803    4917.2545 
   96750    293.26288   -1016.8136    279800.62    -75533.81    7446.1029   -82979.913    4910.2636 
   96800    297.28873   -810.64956    279246.53   -75542.701    7548.3215   -83091.023    4903.6168 
   96850    298.91115   -807.55922    279199.36    -75589.49    7589.5154   -83179.005    4905.5969 
   96900    296.59958   -837.34282    279713.97   -75533.168    7530.8236   -83063.991    4913.8313 
   96950    290.47797   -1048.7981    280307.63   -75535.208    7375.3925   -82910.601    4925.7858 
   97000    295.59919   -1049.8633    280364.44   -75542.077    7505.4231   -83047.501    4931.5369 
   97050    297.75591    -956.6788    279978.95   -75532.483    7560.1834   -83092.667    4931.8144 
   97100    300.48637   -859.86274    279682.29   -75580.289    7629.5111     -83209.8    4930.8438 
   97150    295.33398   -939.60223    279692.89   -75584.678    7498.6892   -83083.367    4934.6436 
   97200    300.67882   -1146.1336    279965.74   -75579.185    7634.3975   -83213.582    4938.4254 
   97250    295.66178   -1183.8743     280226.4   -75582.971    7507.0123   -83089.983    4941.2078 
   97300    293.71689   -813.97187       280014   -75609.322    7457.6303   -83066.952    4943.2059 
   97350    295.78095   -827.17745    279778.68   -75634.638    7510.0381   -83144.676    4938.8119 
   97400    298.15793   -827.00051    279603.03    -75665.99    7570.3908   -83236.381    4940.6533 
   97450    295.60666   -1042.5615    279604.24   -75688.013    7505.6127   -83193.625    4945.6103 
   97500    297.24793     -1249.23    279793.93   -75687.376    7547.2856   -83234.662    4950.6375 
   97550    290.31659   -967.76879     279809.4   -75652.258     7371.295   -83023.553    4953.1407 
   97600    293.51263     -945.431    279748.52   -75634.644    7452.4442   -83087.088    4957.4017 
   97650    293.21776   -959.20522    279752.86    -75612.87    7444.9574   -83057.828     4959.953 
   97700    295.62768   -859.87967    279890.85   -75616.283    7506.1464   -83122.429    4968.0463 
   97750    293.80931   -1120.8767    280283.78   -75613.424    7459.9772   -83073.401    4973.6613 
   97800    292.39787   -1110.9856    280102.58   -75645.584    7424.1399   -83069.724    4971.7854 
   97850    292.61775   -959.59871    279589.26    -75678.94    7429.7228   -83108.663    4966.4709 
   97900    291.92534   -1105.6126    279513.19   -75721.177    7412.1419   -83133.319    4967.9422 
   97950    294.15002   -1082.4093    279758.66   -75679.873    7468.6279   -83148.501    4972.1005 
   98000    297.86246   -1039.1717    280089.79   -75694.994    7562.8888   -83257.883    4978.4555 
   98050    288.65442   -1029.2537    280247.02   -75677.536    7329.0917   -83006.628    4982.7526 
   98100     290.4976   -1153.5497    280112.54   -75699.469     7375.891    -83075.36    4982.6759 
   98150    292.07708   -908.85221    279531.99   -75720.606    7415.9947   -83136.601    4974.6481 
   98200    291.83151   -664.74333    278918.51   -75747.709    7409.7596   -83157.469    4968.7061 
   98250    296.39626   -937.07172    279347.68   -75737.027    7525.6611   -83262.688    4977.1913 
   98300     289.9382   -1327.5539    280204.78   -75755.565    7361.6876   -83117.253    4990.7949 
   98350    290.96519   -1373.5825    280521.38   -75750.012    7387.7634   -83137.776    4994.8976 
   98400    291.36262   -1052.5306    280048.33   -75723.858    7397.8543   -83121.712    4991.3373 
   98450    295.15677   -697.23608    279537.61   -75702.698    7494.1897   -83196.888    4988.7421 
   98500    295.22533   -439.71398    279506.25   -75716.993    7495.9305   -83212.923    4991.5734 
   98550    295.39662   -1026.9537    280014.97    -75746.15    7500.2798    -83246.43    4998.3948 
   98600    291.29244   -1442.2114    280510.44   -75740.255    7396.0724   -83136.327    5007.1663 
   98650    286.95047   -1014.5507    280288.64   -75735.957    7285.8274   -83021.785    5008.7045 
   98700     292.7525   -791.17617    279783.38   -75725.339    7433.1439   -83158.483    5006.0063 
   98750     297.6537   -768.50756    279584.48   -75708.315    7557.5881   -83265.903    5004.6582 
   98800    291.00986   -1107.2005    279864.93   -75692.438    7388.8975   -83081.336    5010.1221 
   98850    293.56978   -1309.2999    280131.98    -75674.24    7453.8952   -83128.135    5014.8134 
   98900    294.57451   -981.60179     280147.7   -75683.504    7479.4059    -83162.91    5018.7332 
   98950    291.01732   -1064.3576    280163.11   -75663.197    7389.0869   -83052.284    5022.7263 
   99000    294.40521   -1171.9404    280205.48     -75643.6    7475.1074   -83118.708    5029.7593 
   99050    295.30303    -856.0328    280052.69   -75657.704    7497.9033   -83155.608    5031.4536 
   99100    292.13554     -1168.79    279837.15   -75662.801    7417.4792    -83080.28      5035.94 
   99150    297.03158   -872.58193    279662.69   -75671.297    7541.7923   -83213.089    5037.7408 
   99200      290.617   -878.22741    279363.88   -75690.167    7378.9226    -83069.09    5032.8451 
   99250    292.59105   -994.57006    279224.54   -75722.556    7429.0447   -83151.601    5033.5775 
   99300    293.87622   -676.32316    279129.05   -75759.743     7461.676   -83221.419    5034.4975 
   99350    291.15935   -1237.0366    279725.18   -75771.612    7392.6931   -83164.306    5043.2976 
   99400    295.03887   -1017.2742    280149.76   -75736.008    7491.1963   -83227.205    5052.7513 
   99450    292.55702   -919.03218    280224.18   -75729.322    7428.1808   -83157.503    5058.6179 
   99500    287.45768   -1177.3144    280221.16   -75754.154    7298.7057    -83052.86     5059.826 
   99550    289.42284   -1029.6332     279940.9   -75706.493    7348.6023   -83055.095    5058.6013 
   99600    294.55272   -841.62338    279849.14   -75716.098    7478.8526    -83194.95     5059.926 
   99650      297.386   -1137.6369    279842.23   -75721.923    7550.7911   -83272.714    5062.8742 
   99700    295.26824    -1021.429     279541.2   -75711.148    7497.0202   -83208.169    5067.8146 
   99750    291.17168   -921.95207    279592.33   -75716.029    7393.0062   -83109.036    5072.0618 
   99800    295.52966    -902.2184    279886.21    -75718.98    7503.6576   -83222.638    5081.0797 
   99850    295.70918     -1076.63    280124.56   -75700.221    7508.2157   -83208.436     5086.402 
   99900    294.66177    -989.5555    280097.72   -75720.087    7481.6215   -83201.708    5088.8947 
   99950    289.11992   -1190.7986    279892.69     -75704.6    7340.9108   -83045.511    5090.1691 
  100000    291.57038   -1094.1753    279541.56    -75672.28    7403.1293    -83075.41    5086.8361 
Loop time of 243.437 on 6 procs for 100000 steps with 8519 atoms

Performance: 354.917 ns/day, 0.068 hours/ns, 410.784 timesteps/s
99.4% CPU use with 6 MPI tasks x no OpenMP threads

MPI task timing breakdown:
Section |  min time  |  avg time  |  max time  |%varavg| %total
---------------------------------------------------------------
Pair    | 71.921     | 126.18     | 188.53     | 425.1 | 51.83
Neigh   | 33.354     | 37.393     | 40.701     |  48.5 | 15.36
Comm    | 7.7987     | 73.46      | 131.75     | 589.9 | 30.18
Output  | 0.14892    | 0.15185    | 0.1647     |   1.5 |  0.06
Modify  | 5.1247     | 5.1766     | 5.2334     |   1.4 |  2.13
Other   |            | 1.079      |            |       |  0.44

Nlocal:        1419.83 ave        1462 max        1383 min
Histogram: 1 0 1 1 0 1 1 0 0 1
Nghost:        2006.33 ave        2061 max        1953 min
Histogram: 1 0 1 1 1 0 0 0 1 1
Neighs:        0.00000 ave           0 max           0 min
Histogram: 6 0 0 0 0 0 0 0 0 0
FullNghs:      39218.7 ave       40723 max       37446 min
Histogram: 1 0 0 0 2 1 0 0 1 1

Total # of neighbors = 235312
Ave neighs/atom = 27.622021
Neighbor list builds = 21265
Dangerous builds = 0

# Create data file for import to other simulations
#
write_data data.${NAME}
write_data data.coexist_294K_-1000atm_ML
System init for write_data ...

Total wall time: 0:04:03
