
# Define the lattice
#
variable	    lattice_constant equal 6.36339
lattice		    diamond ${lattice_constant} orient x 0 0 1 orient y 0 1 0 orient z -1 0 0
lattice		    diamond 6.36339 orient x 0 0 1 orient y 0 1 0 orient z -1 0 0
Lattice spacing in x,y,z = 6.3633900 6.3633900 6.3633900

# Define region
# multiples of lattice spacing
#
region 		    simbox block 0 9 0 8 0 8

# Create Atoms
#
create_box          1 simbox
Created orthogonal box = (0.0000000 0.0000000 0.0000000) to (57.270510 50.907120 50.907120)
  3 by 1 by 2 MPI processor grid
create_atoms        1 box
Created 4608 atoms
  create_atoms CPU = 0.001 seconds
mass                1 18.015

# Define potential
#
pair_style          sw
pair_coeff          * * /data/emrosky-sim/Freezing_Simulations/Melting/MLmW_fancy/ML_mW.sw mW
Reading sw potential file /data/emrosky-sim/Freezing_Simulations/Melting/MLmW_fancy/ML_mW.sw with DATE: 2019-02-27

# Add velocity/set timestep
#
velocity            all create ${TEMP} 120598 rot yes dist gaussian
velocity            all create 294 120598 rot yes dist gaussian
timestep            5.0

# Define output
#
compute	            1 all msd
thermo              100
thermo_style        custom step temp press vol etotal ke pe c_1[4]

# Neighbor lists
#
neigh_modify        delay 0 every 1 check yes

# Set fixes
#
fix                 1 all momentum 10 linear 1 1 1 rescale
fix                 2 all nve
fix                 3 all temp/csvr ${TEMP} ${TEMP} 500.0 928347
fix                 3 all temp/csvr 294 ${TEMP} 500.0 928347
fix                 3 all temp/csvr 294 294 500.0 928347
fix                 4 all press/berendsen iso ${PRES} ${PRES} 1000.0 modulus 20000
fix                 4 all press/berendsen iso -1000 ${PRES} 1000.0 modulus 20000
fix                 4 all press/berendsen iso -1000 -1000 1000.0 modulus 20000

# Run 0.5 ns equilibration
#
dump		    1 all custom 1000 eq.${NAME}.dump id type x y z vx vy vz
dump		    1 all custom 1000 eq.ice_294K_-1000atm_ML.dump id type x y z vx vy vz
run                 100000
Neighbor list info ...
  update every 1 steps, delay 0 steps, check yes
  max neighbors/atom: 2000, page size: 100000
  master list distance cutoff = 6.0032907
  ghost atom cutoff = 6.0032907
  binsize = 3.0016454, bins = 20 17 17
  1 neighbor lists, perpetual/occasional/extra = 1 0 0
  (1) pair sw, perpetual
      attributes: full, newton on
      pair build: full/bin/atomonly
      stencil: full/bin/3d
      bin: standard
Per MPI rank memory allocation (min/avg/max) = 4.779 | 4.779 | 4.779 Mbytes
Step Temp Press Volume TotEng KinEng PotEng c_1[4] 
       0          294   -618.79576    148418.52   -51859.802     4037.382   -55897.184            0 
     100    201.42668   -833.50449    148940.46   -50201.153    2766.1104   -52967.263   0.10401415 
     200    229.84918   -914.75574    149285.51   -49218.192     3156.425   -52374.617   0.11811979 
     300    247.79691   -972.23248    149474.78   -48593.544    3402.8938   -51996.438    0.1513584 
     400    268.75242   -964.25655    149613.68   -48181.567    3690.6673   -51872.235   0.15273716 
     500    285.12443   -930.68937    149741.38   -47885.249    3915.4975   -51800.746   0.14247174 
     600    288.37866   -962.42926    149836.74   -47609.819    3960.1865   -51570.005   0.16362758 
     700    290.69979   -1001.4262    149893.17   -47555.778    3992.0615   -51547.839   0.15328568 
     800    289.72955   -1001.2892    149893.52   -47457.393    3978.7377    -51436.13   0.16152899 
     900    292.17643   -1002.0196    149899.93   -47434.693    4012.3396   -51447.033   0.17658358 
    1000    293.88881   -1011.3672    149876.42   -47486.281    4035.8551   -51522.136   0.15442787 
    1100     293.5888   -973.89972     149889.7   -47429.762    4031.7352   -51461.497    0.1611369 
    1200     298.6229   -941.57156    149894.23   -47425.134    4100.8664       -51526    0.1611783 
    1300    291.85373   -1083.1303     149949.6   -47349.714    4007.9082   -51357.622   0.17382391 
    1400    294.95645   -1020.4955    149943.34   -47446.692    4050.5165   -51497.209   0.16712296 
    1500    288.28443   -1021.2263    149943.85    -47476.36    3958.8925   -51435.253   0.15888457 
    1600    296.25131   -997.25224    149917.44   -47401.695    4068.2984   -51469.993   0.17037485 
    1700    291.05532   -1036.5499    149912.07   -47426.635    3996.9439   -51423.579   0.16269783 
    1800    291.26577   -1016.1652    149901.17   -47417.309     3999.834   -51417.143   0.17648573 
    1900    295.44872    -1048.578    149953.13   -47332.811    4057.2767   -51390.088   0.16782439 
    2000      298.766    -995.3628    149967.17   -47279.986    4102.8316   -51382.817   0.16092264 
    2100    292.06496   -1025.2355    149932.33   -47452.039    4010.8089   -51462.848    0.1718713 
    2200     296.4944   -986.35255    149947.74   -47378.653    4071.6366    -51450.29   0.15343366 
    2300    296.96257   -980.58302    149945.19   -47310.464    4078.0658    -51388.53   0.17661165 
    2400     298.4172   -973.07161    149935.27   -47337.019    4098.0416   -51435.061   0.17107452 
    2500    295.88706   -992.99403    149967.38   -47393.491    4063.2962   -51456.788   0.15665705 
    2600    292.24446   -1028.3187    149924.57    -47422.04    4013.2739   -51435.314   0.17843032 
    2700    301.61866   -949.45963     149915.9   -47392.708     4142.006   -51534.714   0.14967935 
    2800    293.72618   -979.19448     149922.7   -47289.553    4033.6217   -51323.175   0.17812127 
    2900    300.20463   -986.94972    149947.56   -47312.834    4122.5877   -51435.422   0.16697094 
    3000    291.90865   -988.72829    149926.15   -47371.348    4008.6624   -51380.011   0.17459649 
    3100    292.69387   -1013.0623    149947.28   -47342.621    4019.4455   -51362.066   0.16647956 
    3200    295.35584   -1008.9553    149920.45   -47454.836    4056.0012   -51510.837   0.16058298 
    3300    291.21165   -969.55261    149884.36   -47517.018    3999.0908   -51516.109   0.15386756 
    3400    294.27351   -1026.6712    149905.03   -47451.812     4041.138    -51492.95   0.15927316 
    3500    292.66381   -999.99694    149898.13   -47418.837    4019.0327    -51437.87   0.17060695 
    3600    293.21573   -1009.4846    149893.27   -47429.694     4026.612   -51456.306   0.16362534 
    3700    292.16781   -963.55056    149916.13   -47389.158    4012.2213   -51401.379   0.15907227 
    3800     294.9112   -1033.1338    149938.67   -47384.219    4049.8951   -51434.114   0.17403604 
    3900     300.5669   -1021.0268    149922.51     -47383.1    4127.5626   -51510.663   0.16298583 
    4000    291.92647   -1012.8398    149903.44   -47431.544    4008.9071   -51440.451   0.16161021 
    4100    293.92582   -972.21654     149886.1   -47442.418    4036.3634   -51478.781   0.16722761 
    4200    292.76835   -958.32118    149938.95   -47403.557    4020.4682   -51424.025   0.14799971 
    4300     287.1197   -1017.5831    149889.54   -47536.959    3942.8977   -51479.857   0.16983205 
    4400    297.10704   -1014.0159    149943.93   -47429.605    4080.0498   -51509.655   0.14933827 
    4500    294.73523   -1046.1842    149925.62   -47490.415    4047.4786   -51537.894   0.16810028 
    4600    292.43275   -981.70427    149904.83   -47520.847    4015.8596   -51536.706   0.15182663 
    4700    292.36559   -1023.9045    149914.36   -47420.144    4014.9373   -51435.081   0.16220867 
    4800    296.40828   -1021.4807    149954.52   -47318.453    4070.4539   -51388.907   0.16341916 
    4900    298.98335   -984.86117    149984.59   -47287.255    4105.8164   -51393.071   0.16558057 
    5000    295.61194   -989.10959    149962.51   -47421.284    4059.5182   -51480.802   0.16091432 
    5100    295.56619   -995.41664    149973.57   -47346.246    4058.8899   -51405.136   0.15794816 
    5200    295.45274   -997.89415    149959.53   -47416.448    4057.3319    -51473.78   0.16928037 
    5300    292.40139     -942.307    149917.38   -47520.585    4015.4289   -51536.014   0.15195081 
    5400    291.41821   -987.23814    149909.82   -47486.878    4001.9274   -51488.805   0.15288755 
    5500    290.83631   -994.75057    149919.85   -47450.859    3993.9364   -51444.795   0.16641543 
    5600    293.13666   -1009.1975    149909.95   -47493.907    4025.5261   -51519.433   0.15219008 
    5700    292.05683    -1017.848    149902.29   -47483.679    4010.6973   -51494.377    0.1558608 
    5800    292.79079   -983.37426    149900.08   -47423.895    4020.7764   -51444.671   0.16355299 
    5900    290.89558   -1026.0698     149911.3   -47502.904    3994.7503   -51497.655   0.15475192 
    6000    294.11335   -992.00913    149903.29   -47476.684    4038.9386   -51515.623   0.16085212 
    6100    291.56971   -988.88863    149903.67   -47558.098    4004.0079   -51562.106   0.15442056 
    6200    290.43998   -1032.6272    149878.54   -47528.157    3988.4937    -51516.65   0.16343737 
    6300    293.59226   -1013.1786    149945.23   -47413.954    4031.7827   -51445.737   0.16271429 
    6400    295.44459     -991.159    149957.29   -47463.696    4057.2199   -51520.916   0.15314422 
    6500     288.1771   -1035.2636     149921.4   -47480.474    3957.4186   -51437.892   0.16150961 
    6600    294.68717   -1032.8752    149921.26   -47488.999    4046.8186   -51535.818   0.15469365 
    6700    287.98037   -1020.7037    149893.94   -47537.709    3954.7169   -51492.426    0.1624797 
    6800    292.38535   -1069.0467    149910.34   -47495.022    4015.2086    -51510.23   0.16646006 
    6900    296.69919   -984.57846    149936.66    -47410.33    4074.4489   -51484.778   0.15688485 
    7000    290.63473   -983.35776    149917.94   -47407.452    3991.1681   -51398.621   0.16910833 
    7100     292.7273   -995.16689    149950.49   -47419.492    4019.9045   -51439.397   0.14777386 
    7200    287.87197   -964.27838     149928.3   -47529.759    3953.2284   -51482.987   0.16679781 
    7300    286.11637   -1002.4084     149927.7     -47580.9    3929.1193   -51510.019   0.15154626 
    7400    292.65999   -986.61396    149934.33   -47474.325    4018.9802   -51493.305   0.15848394 
    7500    296.66465    -955.9386    149952.45   -47401.692    4073.9746   -51475.667   0.16453922 
    7600     290.9519   -982.52699    149972.27   -47370.876    3995.5237   -51366.399   0.15854828 
    7700      289.794   -993.55438    149939.97   -47467.458    3979.6227   -51447.081   0.16793307 
    7800    285.43387    -993.9933    149924.58   -47538.211    3919.7469   -51457.958   0.16234666 
    7900    294.74633    -1031.728    149923.07   -47480.843    4047.6311   -51528.474   0.15878348 
    8000      297.905   -1009.5389    149924.86   -47379.725    4091.0079   -51470.733   0.15864857 
    8100    295.66523   -1006.6981    149938.28   -47342.474      4060.25   -51402.724   0.16645885 
    8200    298.72826     -995.037    149932.94    -47369.63    4102.3133   -51471.943   0.16247924 
    8300     293.0321   -999.49346    149908.87   -47324.035    4024.0903   -51348.125   0.17225424 
    8400    298.95465   -1016.2308    149939.73   -47305.485    4105.4222   -51410.908   0.16659268 
    8500    296.38984   -994.71056     149897.5   -47391.313    4070.2008   -51461.514   0.16647338 
    8600    295.58871   -965.68714    149903.72   -47402.599    4059.1991   -51461.798   0.15046815 
    8700    296.17435   -958.96243    149892.19   -47369.167    4067.2415   -51436.409   0.17329461 
    8800    296.01028   -993.85186    149908.81   -47415.669    4064.9884   -51480.658   0.15523956 
    8900    291.68565   -996.57917    149890.27   -47481.744    4005.5999   -51487.344   0.16778123 
    9000    294.65746   -994.52014    149919.62   -47400.331    4046.4106   -51446.742   0.15849586 
    9100    294.39214   -991.54978    149896.71   -47453.105    4042.7671   -51495.872   0.15448483 
    9200    294.52964   -977.70778    149929.76   -47346.613    4044.6554   -51391.269   0.17472371 
    9300    288.42955    -987.1945    149920.56   -47503.669    3960.8853   -51464.554   0.15788289 
    9400    294.67468   -1000.2432    149932.43   -47470.308    4046.6472   -51516.955   0.16074286 
    9500     293.8791    -1002.139    149925.42   -47515.773    4035.7217   -51551.494   0.16133323 
    9600    292.12622   -982.22159    149910.38   -47503.683    4011.6501   -51515.333   0.15383667 
    9700    295.61062   -985.50922    149919.72   -47374.199    4059.4999   -51433.699   0.16118746 
    9800    298.62636   -985.30135    149954.59   -47329.203    4100.9139   -51430.117   0.16964218 
    9900    296.84257   -962.76883    149984.77    -47361.05    4076.4179   -51437.468   0.16309788 
   10000     293.3122    -1028.786    149975.79   -47422.934    4027.9367    -51450.87   0.16018477 
   10100    295.67102   -969.43848    149979.64   -47369.951    4060.3295    -51430.28   0.16091581 
   10200    294.50324   -1030.0925    149975.82   -47336.684    4044.2928   -51380.976   0.16672735 
   10300    300.33558   -1030.8975    149992.94   -47344.237     4124.386   -51468.623   0.16377027 
   10400    295.09085    -999.9567    149979.75   -47347.285    4052.3622   -51399.647   0.17070321 
   10500    292.03888   -1023.8193    149956.61   -47396.145    4010.4507   -51406.596   0.15359202 
   10600     298.5798   -935.32092    149950.94   -47418.853    4100.2745   -51519.128   0.15973749 
   10700    290.58689   -975.67305    149904.31   -47434.599    3990.5111    -51425.11   0.15762912 
   10800    288.46479   -1023.4517    149890.87   -47572.555    3961.3693   -51533.924    0.1593663 
   10900    288.26592   -1016.0819    149871.91   -47556.069    3958.6383   -51514.707   0.16853644 
   11000    286.76228   -1014.5672    149869.44   -47571.537    3937.9893   -51509.527   0.16243819 
   11100    291.81703   -1020.4301    149888.52   -47475.944    4007.4042   -51483.348   0.15548357 
   11200    286.60154   -981.15503    149884.01   -47582.198    3935.7819    -51517.98   0.15856069 
   11300    291.25845   -977.80835    149911.69   -47500.124    3999.7335   -51499.858   0.15089263 
   11400    290.16596   -1007.0831    149930.43   -47477.583    3984.7307   -51462.314   0.16541167 
   11500    297.20605    -980.8647    149956.45   -47375.614    4081.4094   -51457.024   0.15788423 
   11600    295.74769   -968.19643    149962.54   -47380.762    4061.3824   -51442.144   0.15967584 
   11700    298.43461   -993.25922    149992.21   -47245.849    4098.2806    -51344.13   0.16403217 
   11800    299.62564   -947.72467     149959.8   -47310.512    4114.6367   -51425.148   0.16353383 
   11900    296.03497   -994.48746    149922.61   -47358.878    4065.3274   -51424.206   0.16333788 
   12000    297.74178   -997.05295    149936.06   -47321.393    4088.7664   -51410.159   0.16389168 
   12100      295.978   -1001.0624     149939.3    -47379.96     4064.545   -51444.505   0.16544718 
   12200    296.90899   -974.24173       149940   -47382.756      4077.33   -51460.086   0.15098949 
   12300     295.1717   -975.65216    149919.21   -47438.002    4053.4725   -51491.475   0.16354239 
   12400    293.51165   -1014.6546       149935   -47433.692    4030.6757   -51464.367   0.16571975 
   12500    292.64428   -1029.2471    149945.94   -47363.084    4018.7644   -51381.848   0.16915765 
   12600    300.09634    -987.6563    149981.13   -47329.568    4121.1006   -51450.668   0.16473339 
   12700    298.05209   -1022.4339    149979.88   -47408.671    4093.0278   -51501.699   0.16157311 
   12800    296.87413   -984.81928    149964.71   -47387.468    4076.8513   -51464.319   0.15605471 
   12900    292.65396   -1000.0122    149941.85   -47454.008    4018.8974   -51472.905   0.16949584 
   13000    290.06303   -977.90065    149943.99   -47419.312    3983.3172    -51402.63    0.1543788 
   13100     292.9967    -1029.931    149938.33   -47501.367    4023.6041   -51524.971   0.16385343 
   13200    289.75802   -1022.3065     149905.8   -47527.432    3979.1287   -51506.561   0.15877242 
   13300    288.45225    -994.6401    149886.64   -47609.229     3961.197   -51570.426   0.15975359 
   13400    288.98768   -984.57698    149883.19   -47595.819    3968.5499   -51564.369   0.15996347 
   13500    295.74789   -991.40286    149923.43   -47510.824    4061.3851   -51572.209   0.16318213 
   13600    296.77512   -1009.7056    149933.22   -47457.828    4075.4916   -51533.319   0.15937526 
   13700    289.27528   -1011.1187    149937.95    -47485.41    3972.4993    -51457.91   0.15381112 
   13800     293.4841   -969.06561    149937.99   -47434.335    4030.2974   -51464.632   0.16334309 
   13900    293.56173   -1000.5666    149939.19   -47428.414    4031.3634   -51459.778   0.15727447 
   14000    298.92291   -971.75465    149951.15   -47311.647    4104.9863   -51416.634   0.16145485 
   14100    293.20276   -1002.6841    149932.19   -47402.914    4026.4339   -51429.347   0.16551455 
   14200    291.76868   -984.92739    149927.36   -47411.247    4006.7402   -51417.988   0.16096215 
   14300    298.26843   -1031.5671    149939.96   -47449.714    4095.9986   -51545.713   0.16476091 
   14400    295.23069   -993.60463    149917.97   -47503.668    4054.2826    -51557.95   0.15686745 
   14500    290.46944   -1023.1269    149895.44   -47520.204    3988.8983   -51509.103    0.1614534 
   14600    290.41069    -969.4833    149888.99    -47464.54    3988.0916   -51452.632   0.16362036 
   14700     291.2742   -985.18442    149934.08   -47422.896    3999.9497   -51422.846   0.16266817 
   14800    296.58093   -1010.5018    149950.17   -47399.039    4072.8249   -51471.864   0.16368528 
   14900    290.57037   -1019.2096    149945.47   -47409.618    3990.2843   -51399.902   0.16081631 
   15000    297.16407     -970.836     149931.8   -47474.244    4080.8329   -51555.077   0.16335645 
   15100    290.73231    -983.2375    149904.66   -47490.146    3992.5081   -51482.654   0.15679479 
   15200     289.3189   -1014.5109    149940.43   -47418.139    3973.0983   -51391.237   0.16491652 
   15300    291.07683   -994.99132    149938.38   -47505.089    3997.2393   -51502.328    0.1579458 
   15400    291.92422   -985.36344    149926.36   -47497.702    4008.8762   -51506.578    0.1544457 
   15500    291.52376    -972.7876    149914.28   -47427.582    4003.3768   -51430.959   0.16162183 
   15600    295.77136   -991.11436    149959.02   -47305.118    4061.7074   -51366.825   0.17172602 
   15700     297.6151   -992.00845    149968.42   -47321.231    4087.0268   -51408.258   0.15843959 
   15800    296.90847     -1014.42     149962.2   -47326.988    4077.3228   -51404.311     0.173342 
   15900    292.34227   -1010.5912     149969.2   -47347.625    4014.6171   -51362.242   0.16166114 
   16000    295.19735   -987.51116    149936.59   -47395.104    4053.8248   -51448.929   0.16010911 
   16100    297.03946    -954.9496    149913.27   -47429.527    4079.1217   -51508.648    0.1583933 
   16200    296.33583   -977.67615    149926.83   -47445.822     4069.459   -51515.281   0.15335015 
   16300     291.8366   -1016.5442    149901.23   -47457.887    4007.6729    -51465.56   0.16556812 
   16400    290.00251   -1003.1345    149917.79   -47466.846    3982.4862   -51449.332   0.16183968 
   16500    295.31743   -985.26569    149911.16   -47380.305    4055.4737   -51435.779   0.16390582 
   16600    296.66614   -984.21188    149945.01    -47306.46     4073.995   -51380.455   0.16341091 
   16700    293.48379   -1004.0405     149920.8   -47347.733    4030.2931   -51378.026   0.17617536 
   16800    290.50228   -1026.0184     149940.4   -47407.929    3989.3492   -51397.278   0.15893363 
   16900    295.21829   -999.04252    149928.08   -47436.128    4054.1122    -51490.24   0.16667148 
   17000    290.39426   -1014.6221    149908.99     -47480.3    3987.8658   -51468.166   0.15724718 
   17100    292.19732    -997.7871    149941.14   -47427.003    4012.6266   -51439.629   0.15838669 
   17200    288.76518   -1002.0185    149935.26   -47497.989    3965.4944   -51463.484   0.16019366 
   17300    287.18966   -1011.6521    149894.13   -47591.594    3943.8585   -51535.452   0.16051254 
   17400    288.24868    -1022.721    149887.18   -47581.906    3958.4015   -51540.308   0.15451622 
   17500    291.12991   -1019.0529    149891.38    -47473.37    3997.9682   -51471.338   0.16387943 
   17600    291.98989   -978.29828    149915.46   -47485.276     4009.778   -51495.054   0.15523612 
   17700    294.93042   -969.73977    149887.15   -47547.305    4050.1591   -51597.464   0.15551921 
   17800    293.21877   -995.29923    149857.88   -47489.098    4026.6537   -51515.752   0.16603427 
   17900    296.70158   -972.84898    149895.21   -47433.661    4074.4817   -51508.143   0.15896005 
   18000    298.70547    -1002.684    149883.72   -47336.795    4102.0003   -51438.795   0.16594984 
   18100    296.64495   -1000.6801    149905.68   -47349.829    4073.7041   -51423.534   0.16909094 
   18200    299.21537   -1001.6639    149913.92   -47396.642    4109.0025   -51505.644   0.16056538 
   18300    295.81576    -1041.587    149921.95   -47407.192    4062.3172   -51469.509   0.16424066 
   18400    292.37533   -1035.5243    149910.74   -47505.781    4015.0711   -51520.852   0.16506806 
   18500    294.38034   -987.10293    149892.17    -47438.59     4042.605   -51481.195   0.15523497 
   18600    293.85279   -996.70221    149905.89   -47387.996    4035.3605   -51423.356   0.16387759 
   18700     293.3205   -980.39651    149896.54   -47404.709    4028.0508    -51432.76   0.16218533 
   18800    299.63957   -989.59284    149896.59   -47422.458     4114.828   -51537.286   0.15503717 
   18900    296.75951   -985.61575    149913.83   -47384.949    4075.2773   -51460.226   0.16781552 
   19000    293.79078   -1011.2523     149910.4   -47414.031    4034.5089    -51448.54   0.16488923 
   19100    294.78147   -976.04548    149918.06   -47325.836    4048.1136    -51373.95   0.16377015 
   19200    290.85528   -992.75313    149899.47   -47351.902    3994.1968   -51346.099   0.17945692 
   19300    298.65192   -991.85024    149928.96   -47240.792    4101.2649   -51342.057   0.15687544 
   19400    300.35084   -995.88967    149924.53   -47311.119    4124.5955   -51435.715   0.17169734 
   19500    299.93702   -970.80595    149922.49   -47307.245    4118.9127   -51426.158   0.15948529 
   19600      296.359   -968.00236    149950.88   -47300.465    4069.7772   -51370.242    0.1682431 
   19700    297.52651   -1008.9334    149965.63    -47349.46    4085.8101   -51435.271   0.16040941 
   19800    298.54092   -1030.2084    149921.89   -47301.194    4099.7406   -51400.934   0.16851393 
   19900    293.42095   -1033.8758    149927.94   -47389.199    4029.4302    -51418.63   0.16636107 
   20000    293.83721    -1028.615    149921.79   -47419.439    4035.1464   -51454.585   0.16669175 
   20100    291.05302   -990.33098    149899.66   -47464.713    3996.9123   -51461.625   0.16183092 
   20200    295.90467   -998.05923    149888.32   -47435.583     4063.538   -51499.121   0.15857652 
   20300    297.36764   -974.06248    149900.52   -47394.192    4083.6284   -51477.821   0.16482498 
   20400    287.62832   -1052.2249    149894.46   -47456.518    3949.8823     -51406.4   0.16581892 
   20500     286.3254    -1040.213    149865.54   -47497.551    3931.9899   -51429.541   0.16943435 
   20600    292.31556   -993.65258    149887.19   -47519.135    4014.2503   -51533.385   0.15695874 
   20700    292.19393    -1032.101    149876.24   -47459.164      4012.58   -51471.744   0.16667276 
   20800    301.87444    -989.9703    149908.34   -47320.799    4145.5185   -51466.318   0.15421896 
   20900    298.01507   -1003.4077    149874.75   -47424.953    4092.5193   -51517.472   0.16823204 
   21000    292.34531   -1002.0789     149906.5   -47441.973    4014.6588   -51456.632    0.1554923 
   21100    297.18003   -981.59373    149941.08   -47321.845    4081.0521   -51402.897   0.16671775 
   21200    298.72799   -982.56701    149921.47   -47337.695    4102.3096   -51440.004    0.1602455 
   21300    294.23853    -982.0148    149970.62   -47333.097    4040.6576   -51373.755   0.16592637 
   21400    295.78453   -1025.5701    149914.31   -47372.478    4061.8882   -51434.367   0.16604508 
   21500    298.36275   -985.90468    149929.35   -47281.609    4097.2939   -51378.903   0.16554662 
   21600    300.99259   -976.13499    149933.77   -47282.359    4133.4084   -51415.767   0.16767826 
   21700    293.96048    -1000.119    149911.09   -47417.768    4036.8393   -51454.607   0.15956095 
   21800    293.29157   -1011.1801     149923.6   -47450.643    4027.6535   -51478.297   0.15827431 
   21900    292.17659   -1001.1646    149907.97   -47424.625    4012.3419   -51436.967    0.1617322 
   22000    292.29865   -988.05654    149898.31   -47457.227    4014.0181   -51471.245   0.15433252 
   22100    294.96677   -998.88342    149889.64   -47508.402    4050.6582    -51559.06    0.1622754 
   22200    291.38597   -991.51047    149860.04   -47588.315    4001.4846   -51589.799   0.15351552 
   22300    293.33793   -995.57458    149888.64   -47473.584      4028.29   -51501.874   0.15914736 
   22400    291.42566    -999.8824    149937.23   -47424.957    4002.0296   -51426.987    0.1652486 
   22500    298.18166    -993.9904    149914.37   -47374.492    4094.8071   -51469.299   0.16119145 
   22600    297.24967   -1012.6578    149906.98   -47411.566    4082.0085   -51493.574   0.16127925 
   22700    292.16924   -1032.9025    149912.39    -47473.78    4012.2409   -51486.021   0.15936942 
   22800    295.88767   -1020.0356    149933.94   -47391.926    4063.3046    -51455.23   0.16057487 
   22900    292.98393    -997.9437    149918.85    -47430.81    4023.4288   -51454.239    0.1536285 
   23000    293.47791   -987.71904    149922.88   -47507.378    4030.2124   -51537.591   0.16022532 
   23100    291.58587   -987.98392    149937.82   -47446.206    4004.2297   -51450.435   0.15066672 
   23200    291.47206   -1022.7796    149934.58   -47389.646    4002.6668   -51392.312   0.16740852 
   23300    301.12311   -986.92817    149946.27    -47392.28    4135.2008   -51527.481   0.15562282 
   23400    290.24505   -987.98118    149931.48   -47435.663    3985.8168    -51421.48   0.15872271 
   23500    298.48535   -997.51739    149973.85    -47325.49    4098.9775   -51424.468    0.1623021 
   23600    286.18162   -1045.1673    149952.98   -47342.872    3930.0154   -51272.887   0.17337236 
   23700    297.85367   -1013.7958    149945.03   -47336.182    4090.3029   -51426.485   0.15650449 
   23800    298.51978   -1013.6257    149940.22   -47347.283    4099.4504   -51446.733   0.17192804 
   23900    293.91174   -994.90869    149912.77   -47432.323      4036.17   -51468.493   0.15403174 
   24000    295.73544   -995.53644    149941.93   -47383.237    4061.2141   -51444.451   0.16261019 
   24100    291.54579   -961.92496    149923.13   -47306.354    4003.6794   -51310.033   0.17000305 
   24200    294.81017   -980.62231    149918.49   -47436.243    4048.5077    -51484.75   0.15500682 
   24300     290.4879   -977.24247    149914.86   -47477.676    3989.1518   -51466.828    0.1582446 
   24400     293.8401   -966.83923    149885.45   -47502.748    4035.1861   -51537.934   0.15443821 
   24500    293.11142   -982.28604    149888.08   -47455.072    4025.1795   -51480.252      0.16192 
   24600    286.30242   -998.43892    149899.32     -47504.9    3931.6743   -51436.574   0.16026244 
   24700    289.81334   -1020.1073    149896.42    -47506.18    3979.8884   -51486.068   0.16580207 
   24800    294.70185   -1010.9437     149902.5   -47446.152    4047.0203   -51493.172   0.15490627 
   24900    293.78328   -996.09705    149885.38   -47502.984    4034.4059    -51537.39   0.16309918 
   25000     292.4355   -1009.7916    149894.07   -47489.721    4015.8973   -51505.618   0.16226493 
   25100    288.37447   -988.16625    149862.03   -47540.353    3960.1289   -51500.481    0.1583435 
   25200    285.62897    -1002.408    149841.31   -47683.798     3922.426   -51606.224   0.15598577 
   25300    291.50983   -977.26898    149844.05   -47511.379    4003.1855   -51514.564   0.16172279 
   25400    289.34143   -1000.7896    149875.07   -47551.782    3973.4078   -51525.189   0.14969242 
   25500    293.90798   -980.27357    149883.18   -47434.221    4036.1183   -51470.339   0.17106782 
   25600    300.34861   -987.93565    149918.27   -47354.299    4124.5648   -51478.864   0.15418409 
   25700    289.21516   -1020.3311    149925.01   -47457.817    3971.6737   -51429.491   0.16333362 
   25800    300.11705   -1007.0642    149927.01   -47303.588     4121.385   -51424.973   0.16909712 
   25900    295.21268   -1007.0839    149941.33     -47331.7    4054.0352   -51385.735   0.15925015 
   26000    295.15053   -1024.8917    149941.03   -47376.055    4053.1817   -51429.237   0.16635527 
   26100    295.88501   -990.03081    149951.12   -47359.418    4063.2681   -51422.686   0.16253415 
   26200    298.15773   -964.94939    149938.87   -47470.065    4094.4784   -51564.543   0.15209208 
   26300    289.97077   -980.36123    149914.45   -47424.203    3982.0503   -51406.254   0.16508137 
   26400      291.422   -994.57571    149924.08    -47489.45    4001.9794   -51491.429   0.15482297 
   26500    296.73298   -1000.5371     149925.7   -47399.099    4074.9129   -51474.012   0.16075951 
   26600    297.37101   -1008.6604     149923.9   -47345.165    4083.6748    -51428.84   0.16666464 
   26700    295.13795   -1027.9856    149953.32   -47349.027     4053.009   -51402.036   0.15835711 
   26800     297.7145    -1035.795    149985.42    -47401.96    4088.3918   -51490.351    0.1621253 
   26900    300.26492    -962.5686     149975.9   -47338.337    4123.4156   -51461.752   0.15560816 
   27000     293.4848   -1022.0054    149958.89   -47366.593     4030.307     -51396.9   0.16808733 
   27100    300.77349   -1007.5583     149983.4   -47316.922    4130.3996   -51447.321   0.15758336 
   27200     295.8067   -1015.5983    149963.28   -47387.127    4062.1927   -51449.319   0.16969123 
   27300    300.06288   -996.24275    150002.95   -47218.556    4120.6411   -51339.197   0.16286496 
   27400    295.00741   -1040.0011    150004.24   -47346.509    4051.2163   -51397.725   0.16373164 
   27500     295.8091   -996.52177    149957.93   -47451.973    4062.2256   -51514.199   0.15647343 
   27600    292.47724    -992.1999    149928.06    -47503.22    4016.4706   -51519.691    0.1585365 
   27700    294.66206   -1002.3221    149970.07   -47395.789    4046.4739   -51442.263   0.15884689 
   27800    299.10406   -1027.8976    149997.71   -47378.658     4107.474   -51486.132   0.16248683 
   27900    297.30721   -977.54011    149970.14   -47438.168    4082.7986   -51520.966   0.15338962 
   28000     295.2979   -1033.9169    149945.83   -47517.623    4055.2056   -51572.829   0.16119514 
   28100    293.55386   -1007.2597    149942.65   -47485.634    4031.2553    -51516.89   0.15620448 
   28200    294.42197   -999.88715    149966.16   -47459.513    4043.1767    -51502.69   0.16048374 
   28300    292.39696   -981.01874    149955.86     -47475.9    4015.3681   -51491.268   0.15576905 
   28400    288.95245   -1017.2458    149966.19   -47412.059    3968.0661   -51380.125   0.15913917 
   28500    290.06209   -985.55195    149944.95   -47439.048    3983.3044   -51422.352   0.16036076 
   28600    297.67698   -967.71023     149944.6   -47444.987    4087.8765   -51532.864   0.15163845 
   28700    296.67896   -986.64058    149965.47   -47445.059     4074.171    -51519.23   0.15910696 
   28800     297.0165   -1008.0942    149966.71   -47490.613    4078.8064   -51569.419   0.15193993 
   28900    295.99915   -987.12642    149966.91   -47459.511    4064.8355   -51524.347   0.15595073 
   29000    299.27031   -1008.3606    149981.04   -47400.511     4109.757   -51510.268    0.1548375 
   29100    294.79257   -1041.3683    149977.93   -47390.851     4048.266   -51439.117   0.16695491 
   29200    295.45167   -1012.9396    149992.14   -47323.171    4057.3171   -51380.488   0.16075013 
   29300    295.17255    -997.0174    149974.87   -47316.248    4053.4841   -51369.732   0.16858704 
   29400     297.6904    -973.3101    150001.64   -47336.672    4088.0607   -51424.733   0.15474948 
   29500    294.17342   -1011.5351    149986.54   -47380.927    4039.7635    -51420.69   0.16688434 
   29600    298.80008   -993.55745    149974.09   -47347.819    4103.2995   -51451.118   0.16366381 
   29700    294.33142   -979.76246    149947.12   -47423.128    4041.9333   -51465.062   0.16016603 
   29800    292.98181   -974.19512    149925.16   -47520.088    4023.3996   -51543.487   0.15321353 
   29900    294.35972    -982.0131    149916.71    -47507.14    4042.3219   -51549.462   0.15781122 
   30000    294.39315   -1019.6539     149902.8   -47468.132     4042.781   -51510.913   0.15191276 
   30100    293.18392   -1021.1912    149925.04   -47442.878    4026.1751   -51469.054   0.16130935 
   30200    296.55905   -978.80483    149910.11   -47449.099    4072.5244   -51521.624   0.15653046 
   30300    293.73066   -985.97896    149935.01   -47442.852    4033.6832   -51476.535   0.15226524 
   30400    288.61309   -1004.6314    149914.16   -47474.633    3963.4058   -51438.039   0.16705228 
   30500    293.96319   -1016.5665    149881.41   -47573.736    4036.8765   -51610.613   0.15199707 
   30600    296.42444    -975.3716    149918.64   -47450.018    4070.6759   -51520.694   0.16282496 
   30700    292.87884   -1032.8203     149921.2   -47479.487    4021.9856   -51501.473    0.1593479 
   30800    296.38659   -998.27811    149939.29   -47409.963    4070.1562   -51480.119   0.14932055 
   30900    297.82373   -1022.3754    149978.58   -47394.376    4089.8917   -51484.268   0.16065196 
   31000     293.3178   -1002.6595    149953.41   -47423.927    4028.0137   -51451.941   0.15540275 
   31100    297.56958   -1005.5479    149940.52   -47441.013    4086.4016   -51527.414   0.15608345 
   31200    296.02823   -985.20287    149945.29   -47380.681    4065.2349   -51445.916   0.16152318 
   31300    293.18177   -1004.7307    149983.21   -47321.649    4026.1456   -51347.795   0.16004017 
   31400    297.46979   -983.24212    149982.76   -47440.106    4085.0312   -51525.137   0.15466703 
   31500    294.11881   -1015.9908    149979.33   -47389.003    4039.0136   -51428.017   0.15728406 
   31600    295.19677    -996.5684    149952.34   -47412.646    4053.8168   -51466.463   0.16072351 
   31700    300.98678   -972.35467     149986.2   -47385.122    4133.3286   -51518.451   0.14727787 
   31800     297.7319    -1015.641    149981.94   -47449.299    4088.6306    -51537.93   0.16009918 
   31900     292.2999   -990.64776    149975.62   -47437.652    4014.0352   -51451.687    0.1542159 
   32000    294.24113   -962.17196     149958.4   -47382.159    4040.6933   -51422.853   0.15661524 
   32100    297.32368   -979.68504    149966.08   -47425.026    4083.0247    -51508.05   0.15619813 
   32200    291.45778   -1003.7997    149949.71   -47548.995    4002.4708   -51551.466   0.15124724 
   32300    292.91614   -1024.5418    149929.97   -47492.618    4022.4977   -51515.116   0.15059131 
   32400    290.59103    -1007.536    149930.12   -47586.959     3990.568   -51577.527   0.16032588 
   32500    291.21976   -975.10775     149956.5   -47439.279     3999.202   -51438.481   0.14784821 
   32600    297.67342   -988.56192    149936.93   -47392.285    4087.8276   -51480.113   0.16341895 
   32700    290.34935    -1015.612    149925.55   -47482.184    3987.2491   -51469.433   0.15568236 
   32800    295.69268   -984.48465    149967.47   -47356.952    4060.6269   -51417.579   0.15424436 
   32900    297.51891   -995.52616    149956.82   -47424.717    4085.7057   -51510.422    0.1608272 
   33000    296.07216   -992.58051    149961.39   -47412.529    4065.8381   -51478.367   0.14986398 
   33100    299.16233    -997.0278    149918.68   -47445.754    4108.2742   -51554.028   0.15998632 
   33200    293.20912   -1055.1318    149949.02   -47426.568    4026.5212    -51453.09   0.15610398 
   33300    295.69455   -1011.7782     149943.7   -47427.748    4060.6526     -51488.4   0.15577093 
   33400    295.22015   -992.78781     149933.1   -47447.868    4054.1378   -51502.006   0.15221906 
   33500    291.28315   -1011.1817    149906.45   -47467.007    4000.0727    -51467.08   0.15952681 
   33600    291.51231   -1005.8649    149911.97   -47477.819    4003.2196   -51481.039   0.15533427 
   33700    297.04649   -998.05279    149925.74   -47373.123    4079.2183   -51452.342   0.15971946 
   33800    298.20546   -1045.9204    149960.91   -47266.271    4095.1339   -51361.405   0.16567751 
   33900    298.13573   -1032.3743    149952.42   -47290.737    4094.1763   -51384.913   0.15989889 
   34000    292.21757   -978.77855    149924.75   -47434.362    4012.9046   -51447.267   0.15587309 
   34100    294.98039   -1009.9329    149889.14   -47452.695    4050.8453    -51503.54   0.15952354 
   34200    293.29591   -1025.1702    149894.11   -47454.364    4027.7131   -51482.077   0.15410372 
   34300    292.75271   -979.41776    149902.89   -47489.718    4020.2535   -51509.972   0.15352087 
   34400    295.42616    -983.9231    149899.41   -47410.031    4056.9669   -51466.998   0.15567837 
   34500    296.48862   -1000.7115     149929.9   -47339.228    4071.5572   -51410.785   0.15899494 
   34600    300.19016   -1017.2246     149961.4   -47337.468    4122.3889   -51459.857   0.16276285 
   34700    295.18869   -1009.4704    149941.51   -47453.325    4053.7059   -51507.031   0.15856275 
   34800    288.65544    -1018.164    149933.55   -47446.167    3963.9873   -51410.154   0.15875291 
   34900    290.05647   -1026.3963    149927.32   -47432.007    3983.2272   -51415.235   0.16150128 
   35000    295.96903   -1003.0067    149955.02   -47409.793    4064.4219   -51474.215   0.15560638 
   35100    294.69748    -1002.943    149951.87   -47422.898    4046.9603   -51469.858   0.15950533 
   35200    293.73064   -977.55945    149963.31   -47363.437     4033.683    -51397.12     0.161368 
   35300    293.91559   -987.42288    149950.77    -47446.49    4036.2228   -51482.713    0.1571234 
   35400    295.32357   -1004.9297    149939.03   -47444.543    4055.5581   -51500.101   0.15256645 
   35500    291.87178   -977.00069    149911.73   -47426.877     4008.156   -51435.033   0.15550168 
   35600    291.20464   -980.24123    149916.64   -47396.184    3998.9945   -51395.178   0.16082168 
   35700     293.0306   -995.98473    149963.84   -47419.523    4024.0697   -51443.592   0.15531659 
   35800    302.07671   -1031.8045    150001.03   -47250.974    4148.2962    -51399.27   0.16871704 
   35900    296.44307   -984.52176    149976.56    -47370.86    4070.9318   -51441.792   0.15629581 
   36000    296.72428   -975.58791    149941.39   -47424.704    4074.7934   -51499.497   0.15795466 
   36100    288.99513   -999.37951    149916.01    -47463.36    3968.6521   -51432.012   0.15842723 
   36200    290.02575   -1050.6104    149921.26    -47500.92    3982.8053   -51483.725   0.16142614 
   36300    294.14559   -998.67851    149901.04   -47432.749    4039.3813   -51472.131   0.15879314 
   36400     291.8894   -1014.0725     149881.8   -47483.469    4008.3981   -51491.867   0.16004127 
   36500    291.60883   -987.10698    149909.93   -47463.293     4004.545   -51467.838   0.15758594 
   36600    296.12945   -999.45611    149897.77   -47458.633    4066.6248   -51525.258   0.15593054 
   36700    292.45363   -1030.0729    149907.16    -47498.47    4016.1464   -51514.616   0.16005888 
   36800    287.34429   -1034.1296    149906.15   -47576.065    3945.9819   -51522.047   0.15787788 
   36900    289.59961   -973.75933    149898.25    -47488.88    3976.9533   -51465.834   0.15673441 
   37000     290.8536   -1016.4014    149942.96   -47473.405    3994.1738   -51467.579   0.16367553 
   37100    287.56661   -1027.7485    149923.55   -47523.107    3949.0349   -51472.142   0.15542542 
   37200    291.75115   -971.63439    149942.37   -47529.639    4006.4995   -51536.138   0.15391985 
   37300    294.46369   -986.09532    149918.52   -47520.875    4043.7496   -51564.624   0.15846266 
   37400    288.51621   -991.39702    149902.57   -47530.484    3962.0754    -51492.56   0.14974405 
   37500    293.04072   -1031.1165    149925.63   -47507.386    4024.2086   -51531.595   0.16172466 
   37600    292.31432   -1044.0009    149920.39    -47552.94    4014.2333   -51567.173   0.14779192 
   37700    287.04505   -993.51149    149890.09   -47633.589    3941.8725   -51575.462    0.1527756 
   37800     286.1767    -1000.519    149881.83   -47654.472    3929.9479    -51584.42   0.15438329 
   37900    295.15786    -957.5793    149907.13    -47558.15    4053.2824   -51611.433   0.14673645 
   38000    297.05642   -1005.5104    149926.25   -47495.216    4079.3545    -51574.57   0.15685676 
   38100    294.09747   -977.97829    149923.49   -47426.236    4038.7205   -51464.957   0.15386208 
   38200    298.32268    -1019.479    149924.24   -47393.922    4096.7436   -51490.665   0.16039822 
   38300    294.50578   -1007.3525    149930.95   -47447.207    4044.3277   -51491.535   0.15762002 
   38400    294.77719   -982.27556    149942.71   -47376.336    4048.0548   -51424.391   0.15840838 
   38500    289.68405   -1025.9052    149955.16   -47442.831    3978.1129   -51420.944   0.16165984 
   38600    292.88021   -969.85475    149936.94   -47399.343    4022.0043   -51421.348   0.14962916 
   38700     293.6973   -966.94979    149945.78   -47367.046    4033.2252   -51400.271   0.16400309 
   38800    295.58897   -980.07081    149932.09    -47399.87    4059.2027   -51459.073   0.15374149 
   38900    296.23158   -1008.9944     149978.4   -47348.152    4068.0273   -51416.179   0.15665196 
   39000    294.67103   -998.11292    149976.58   -47403.337    4046.5971   -51449.934   0.16489128 
   39100    291.48358    -1020.955     149957.9   -47423.523     4002.825   -51426.348    0.1506669 
   39200    285.03436   -1036.6332    149931.09   -47557.673    3914.2605   -51471.934   0.16779772 
   39300    288.83795   -990.33261    149917.11   -47562.229    3966.4937   -51528.723   0.14936974 
   39400    294.55976    -1014.174    149949.26   -47435.141     4045.069    -51480.21   0.15412878 
   39500    294.29559   -990.15431    149937.99   -47417.401    4041.4413   -51458.843   0.16274492 
   39600    296.00407   -991.10638    149987.13   -47423.685     4064.903   -51488.588   0.14756816 
   39700     294.0356    -1013.685    149971.43   -47401.622    4037.8709   -51439.493   0.16163049 
   39800    292.74437   -997.97406    149943.48   -47422.454    4020.1389   -51442.593    0.1572011 
   39900    293.02702   -1003.3773    149962.05   -47383.842    4024.0205   -51407.862    0.1569785 
   40000    290.87752   -1023.7516    149939.12   -47453.655    3994.5023   -51448.157   0.16167616 
   40100     293.7386   -980.36964    149950.63   -47468.759    4033.7923   -51502.551   0.15034238 
   40200    291.59794   -978.16999    149954.39   -47443.874    4004.3955   -51448.269   0.16016512 
   40300    294.99767   -930.40213    149949.31   -47451.434    4051.0826   -51502.516   0.14868418 
   40400    291.13333   -1000.6968    149949.86   -47544.125    3998.0152    -51542.14   0.15783061 
   40500    296.26379   -980.38945    149964.34   -47398.259    4068.4698   -51466.729   0.15932258 
   40600    295.03794   -988.50227    149969.39   -47478.815    4051.6356    -51530.45   0.15617516 
   40700    290.76784   -1016.5862    149920.63   -47479.495    3992.9961   -51472.491   0.16175672 
   40800    295.96343   -1009.1563    149927.19   -47456.665    4064.3451    -51521.01   0.15333672 
   40900    294.77221   -977.44238    149924.69   -47442.062    4047.9865   -51490.048   0.15915817 
   41000    293.99756   -1000.1515    149920.13   -47507.374    4037.3485   -51544.723   0.15747103 
   41100    288.73941   -976.44676    149900.57   -47470.398    3965.1405   -51435.538   0.15797159 
   41200    299.10986   -981.24766    149937.89   -47356.195    4107.5537   -51463.748   0.16339924 
   41300    294.23617   -982.33238    149933.16    -47443.06    4040.6253   -51483.685    0.1566497 
   41400    297.65722   -970.74338    149933.76   -47386.813    4087.6051   -51474.418   0.15722475 
   41500    294.87066   -1013.6971       149953   -47402.699    4049.3384   -51452.038   0.16167687 
   41600    296.78914   -1006.7853    149927.94   -47412.803    4075.6842   -51488.487   0.15935787 
   41700    285.08482    -1031.059    149918.37    -47522.23    3914.9535   -51437.184   0.16453588 
   41800    291.56989    -1005.881    149952.95   -47439.555    4004.0104   -51443.565   0.15513263 
   41900    288.66873   -999.35884    149921.98   -47523.109    3964.1698   -51487.279   0.16112725 
   42000    291.61631   -966.26497    149930.02   -47487.015    4004.6477   -51491.662   0.14792023 
   42100    292.67876   -988.68274    149887.95   -47560.167     4019.238   -51579.405   0.15871844 
   42200    292.14987   -1004.2398    149890.07   -47518.589    4011.9749   -51530.564   0.15343014 
   42300    291.67214   -1001.9348    149907.68   -47482.396    4005.4145   -51487.811   0.15709715 
   42400     293.6473     -1026.97     149919.8   -47507.522    4032.5386    -51540.06    0.1614052 
   42500    293.36776   -1006.7275    149919.88   -47464.749    4028.6997   -51493.449   0.15376604 
   42600    296.66741   -1018.3227    149909.08   -47503.406    4074.0125   -51577.418   0.16270577 
   42700    289.74642   -1025.7283    149918.44   -47576.348    3978.9694   -51555.318   0.15646211 
   42800    292.62936   -1055.5996     149921.2   -47487.128    4018.5596   -51505.688   0.16296399 
   42900    289.24866   -996.79484     149942.4   -47507.795    3972.1338   -51479.929   0.15758161 
   43000    285.36617   -966.96947    149949.32   -47523.896    3918.8172   -51442.713   0.15389805 
   43100    297.38607    -982.8987    149950.07   -47449.588    4083.8816   -51533.469   0.16031547 
   43200    292.02093   -985.81144    149966.44   -47458.002    4010.2043   -51468.207   0.15111507 
   43300    296.51353   -970.78958    149965.88    -47453.34    4071.8993    -51525.24   0.15654083 
   43400    295.48153   -970.64176    149964.01   -47384.861    4057.7273   -51442.588   0.15745478 
   43500    292.84133   -1019.6132    149993.16   -47441.368    4021.4704   -51462.838   0.15345503 
   43600    288.29218   -1045.2567    149948.62   -47487.651    3958.9988    -51446.65   0.16620968 
   43700    291.98401   -985.77068    149932.89   -47532.094    4009.6973   -51541.791    0.1492372 
   43800    287.64986   -985.21222     149915.4   -47563.481    3950.1781   -51513.659   0.16239811 
   43900    292.31498   -996.32819    149928.11   -47478.932    4014.2423   -51493.175   0.15699408 
   44000    289.13104   -996.48241    149910.17   -47564.386    3970.5186   -51534.904   0.14799769 
   44100    291.87311   -1012.0506    149931.13     -47523.6    4008.1743   -51531.775   0.16903516 
   44200    291.83046   -953.92206    149938.67    -47476.89    4007.5887   -51484.479   0.14746695 
   44300     291.6664   -1011.5709    149958.71   -47487.179    4005.3356   -51492.515    0.1578208 
   44400    295.29223   -995.57616    149943.95   -47493.806    4055.1277   -51548.934   0.15562904 
   44500    294.99515   -967.26055    149960.31   -47501.856    4051.0481   -51552.904   0.14405937 
   44600     291.2895   -1030.5644       149950    -47509.57    4000.1598    -51509.73   0.16206049 
   44700    294.74387   -968.96285    149960.41   -47492.415    4047.5973   -51540.013   0.14385738 
   44800    292.68613   -1010.3811    149951.02   -47449.609    4019.3392   -51468.949   0.16023355 
   44900    286.80682   -1023.0644    149946.71   -47429.843     3938.601   -51368.444   0.16257735 
   45000    288.31498   -1007.7287    149938.21   -47472.759     3959.312   -51432.071   0.15945073 
   45100    297.73278   -1001.0555    149953.29   -47361.316    4088.6428   -51449.958   0.16230271 
   45200    297.28532   -997.26871    149963.57   -47398.897     4082.498   -51481.395   0.14901468 
   45300     295.6094    -1007.548    149968.62   -47423.498    4059.4833   -51482.981   0.15859289 
   45400     293.9541   -1052.8707    149958.75   -47484.544    4036.7517   -51521.295   0.15280934 
   45500    295.07669   -996.11625     149947.7   -47425.133    4052.1677   -51477.301   0.15731737 
   45600    295.55516    -949.6321    149968.38    -47416.63    4058.7384   -51475.369   0.15747322 
   45700    298.60224   -956.64287    149964.91   -47371.024    4100.5828   -51471.607   0.14736735 
   45800    294.55136   -978.87593    149947.51   -47448.289    4044.9537   -51493.243     0.156806 
   45900    303.96901   -959.92801    149959.63   -47309.582    4174.2824   -51483.865   0.15513741 
   46000    299.63382   -1017.3441    149974.86   -47377.081     4114.749    -51491.83   0.15798623 
   46100     301.4553    -1014.874    149998.33    -47285.66    4139.7627   -51425.423   0.16742075 
   46200    297.28164   -999.71739    150010.97   -47341.338    4082.4474   -51423.785   0.15158961 
   46300    297.82312   -998.56877    149985.52   -47329.124    4089.8834   -51419.007   0.16347601 
   46400    296.00283   -1019.7394    149955.57   -47373.491     4064.886   -51438.377    0.1589161 
   46500    296.94032    -1010.589    149954.49   -47343.098    4077.7602   -51420.858   0.15973314 
   46600    292.58119   -1005.6306    149968.19    -47400.75    4017.8981   -51418.649   0.15784124 
   46700    296.52837   -1012.4002    149983.05   -47331.412    4072.1031   -51403.515   0.15649303 
   46800    299.14194   -943.40766    149975.31   -47345.789    4107.9942   -51453.783   0.15889715 
   46900      299.938   -995.08529    150001.62   -47407.988    4118.9262   -51526.914   0.15012561 
   47000    289.54608   -1004.9002    149967.46   -47438.549    3976.2181   -51414.767   0.16024617 
   47100    298.30024   -971.38783     149944.5   -47446.503    4096.4355   -51542.938   0.15436351 
   47200     294.3876   -960.03327    149955.63   -47409.142    4042.7048   -51451.847    0.1511762 
   47300    286.82623   -1024.7375       149901   -47532.887    3938.8676   -51471.755   0.16017803 
   47400    287.61335   -1026.0617    149930.18   -47473.311    3949.6767   -51422.987   0.16018903 
   47500    291.46152   -986.44519    149920.26   -47473.454    4002.5221   -51475.976   0.15618363 
   47600    296.63873   -991.21998    149926.88   -47472.303    4073.6187   -51545.921   0.15188968 
   47700    296.21785   -944.07636    149924.77   -47389.784    4067.8389   -51457.623   0.15445932 
   47800    294.19397   -989.64044    149947.97   -47454.319    4040.0457   -51494.365   0.15576159 
   47900    291.27428   -1019.2239    149935.87   -47508.529    3999.9508    -51508.48   0.15414116 
   48000    290.74312   -1023.6318       149944   -47463.223    3992.6566    -51455.88    0.1552427 
   48100    294.91812   -971.24433    149912.93   -47505.326    4049.9902   -51555.316    0.1536313 
   48200    292.21373   -1042.8604    149925.37   -47497.276    4012.8519   -51510.128   0.16099512 
   48300    296.63549   -990.52467    149949.95   -47448.071    4073.5742   -51521.645   0.15037463 
   48400    294.68785   -1001.9146    149953.97    -47489.79     4046.828   -51536.617   0.15389929 
   48500    288.70597   -1012.0309    149946.51   -47579.939    3964.6813    -51544.62   0.15473108 
   48600    293.89414   -1009.4861    149936.75   -47576.906    4035.9284   -51612.834   0.15140397 
   48700    289.66658   -1035.8359    149950.22   -47464.354     3977.873   -51442.227   0.16610404 
   48800    297.91159   -951.94917    149956.95   -47448.396    4091.0984   -51539.495    0.1506167 
   48900    295.28438   -973.53946    149971.42   -47472.245    4055.0198   -51527.265   0.14946533 
   49000    293.07274   -1004.6742    149959.55    -47510.07    4024.6484   -51534.718   0.15711605 
   49100     294.4845     -1020.62    149990.43   -47419.882    4044.0355   -51463.917   0.15065418 
   49200      293.524   -977.21584    149988.11    -47461.22    4030.8453   -51492.066   0.15793353 
   49300     294.6721   -983.05367    149975.46   -47526.714    4046.6118   -51573.325   0.14863236 
   49400    289.43153   -1017.5385    149957.88   -47546.965    3974.6451    -51521.61   0.15715533 
   49500    295.10577   -975.93498    149942.92   -47475.878    4052.5671   -51528.445    0.1591587 
   49600    298.05361   -960.38467    149942.91   -47474.333    4093.0486   -51567.382   0.15424889 
   49700    293.41016   -998.22315    149934.06   -47479.921     4029.282   -51509.203   0.16151648 
   49800    297.00429   -990.31206    149955.95   -47492.499    4078.6387   -51571.138   0.14640038 
   49900    292.21566   -979.30035    149942.03    -47467.65    4012.8784   -51480.528   0.15755497 
   50000    291.49292   -992.64672    149947.04   -47478.194    4002.9534   -51481.148   0.15352698 
   50100    299.54016   -1008.1037     149979.9   -47334.657    4113.4627    -51448.12   0.15543826 
   50200     297.6892   -992.56751    149973.53   -47408.239    4088.0443   -51496.284   0.15868309 
   50300    295.49189   -1016.6657    149950.13   -47421.671    4057.8695   -51479.541   0.14526053 
   50400    292.85075   -997.17279    149938.06   -47443.482    4021.5999   -51465.082   0.15878994 
   50500    297.37827   -1016.5495    149942.66   -47347.305    4083.7744    -51431.08   0.15906241 
   50600    301.41505   -977.88547    149986.45   -47270.169    4139.2099   -51409.379    0.1552699 
   50700    291.09874   -1033.3439    149924.37   -47513.132    3997.5403   -51510.672   0.16712002 
   50800    290.29412   -1036.5923    149903.11   -47496.458    3986.4907   -51482.949   0.14993725 
   50900    290.34395    -993.1525    149915.62   -47524.643    3987.1749   -51511.818   0.15789838 
   51000    290.91498   -1020.4568     149918.2   -47477.351    3995.0167   -51472.368   0.15810257 
   51100    293.42431   -1025.4988    149926.28   -47488.772    4029.4764   -51518.248   0.15444795 
   51200    292.25395    -1020.908    149904.45   -47549.816    4013.4042    -51563.22   0.16232951 
   51300     293.2574   -972.49203    149907.59   -47559.375    4027.1841   -51586.559   0.14300218 
   51400    291.88296   -995.73188    149909.74    -47498.08    4008.3096    -51506.39   0.15800905 
   51500    288.51087    -1018.533    149887.81   -47552.994     3962.002   -51514.996   0.15464875 
   51600    293.90673   -992.17501    149900.04   -47472.164    4036.1011   -51508.266   0.15120791 
   51700    293.58947   -954.21575    149915.13   -47365.656    4031.7444     -51397.4   0.16467735 
   51800    292.90895   -1012.7206     149941.7   -47419.006    4022.3991   -51441.405   0.15224494 
   51900    290.95509   -997.66224    149907.23   -47479.901    3995.5675   -51475.469   0.16188195 
   52000    291.11287   -980.64224    149922.37   -47462.747    3997.7342   -51460.481   0.15065739 
   52100    292.31939   -996.64355    149908.77   -47544.339    4014.3029   -51558.642   0.15683033 
   52200    290.04031   -1027.5627    149904.41   -47600.689    3983.0051   -51583.694   0.15636702 
   52300    292.26558    -985.8441    149908.77    -47577.23     4013.564   -51590.794     0.146789 
   52400    285.00034   -1013.1381    149872.21   -47663.797    3913.7933    -51577.59     0.155879 
   52500      290.249   -924.92508    149918.73   -47506.645    3985.8711   -51492.516   0.14873133 
   52600    291.47968   -1024.0677    149931.52       -47471    4002.7714   -51473.771   0.16062046 
   52700    294.15324   -981.47101     149950.5   -47410.836    4039.4864   -51450.322    0.1586787 
   52800    297.74573   -983.42725    149967.03   -47385.381    4088.8207   -51474.202   0.15522882 
   52900    295.57817   -996.50012    149968.76   -47408.993    4059.0544   -51468.047   0.15863066 
   53000    296.40291    -1030.965    149963.89   -47355.962    4070.3802   -51426.342   0.15891516 
   53100     292.7402   -983.37285    149920.52   -47494.608    4020.0817    -51514.69   0.15748456 
   53200    286.38771    -1003.831    149892.53   -47542.281    3932.8456   -51475.126   0.15738945 
   53300     290.6411   -1005.5311     149919.1   -47507.728    3991.2556   -51498.983   0.15159265 
   53400    292.19028   -984.38218     149932.6   -47434.066    4012.5299   -51446.596   0.16129437 
   53500     291.1499   -985.91579     149962.4   -47426.511    3998.2427   -51424.754   0.15064774 
   53600    291.47213   -983.32838    149932.55   -47491.436    4002.6678   -51494.104   0.15553786 
   53700     290.7174   -1009.7303    149973.02   -47476.323    3992.3034   -51468.626   0.15507186 
   53800    287.14296   -989.58636    149938.37   -47503.128    3943.2171   -51446.345    0.1548379 
   53900    287.84111   -1012.6852    149929.59   -47505.495    3952.8045     -51458.3   0.16096565 
   54000    295.78976   -1003.6686    149949.84   -47517.768    4061.9601   -51579.728   0.14785911 
   54100    293.02389   -1036.7954    149926.28   -47484.522    4023.9774   -51508.499   0.16787749 
   54200    291.29121   -1024.5419    149966.66   -47437.648    4000.1833   -51437.831   0.16027594 
   54300    291.85397   -1012.9802    149966.25   -47354.128    4007.9115    -51362.04   0.16310358 
   54400    305.06612   -995.84239    149999.09   -47281.048    4189.3486   -51470.397   0.15467588 
   54500    298.42003   -967.21872    149961.84   -47351.877    4098.0805   -51449.958   0.15291676 
   54600    292.92464   -1022.4066    149934.47   -47365.104    4022.6146   -51387.719   0.16334179 
   54700    292.76069   -1031.2198    149949.76   -47432.891    4020.3631   -51453.254   0.15635147 
   54800    298.21042   -1024.6895    149949.55   -47358.936     4095.202   -51454.138   0.16225839 
   54900    298.12728   -996.91042    149951.77   -47375.489    4094.0603    -51469.55   0.15210299 
   55000    295.66374   -999.31726    149967.15   -47411.154    4060.2295   -51471.383   0.15292018 
   55100    291.63849   -1018.3076    149935.22   -47420.683    4004.9524   -51425.635   0.16480585 
   55200    291.25801   -1020.9188    149925.87   -47539.777    3999.7274   -51539.504   0.14971664 
   55300    287.77153   -1006.1914    149911.69   -47586.284     3951.849   -51538.133   0.16079575 
   55400     291.6483   -1008.8002    149924.84    -47550.24    4005.0871   -51555.327    0.1539107 
   55500    290.67457   -1001.6857    149925.05   -47508.289    3991.7153   -51500.004   0.15557811 
   55600    294.46939   -971.28564     149929.6   -47396.943     4043.828    -51440.77   0.16259085 
   55700    295.99937   -978.50692    149945.73   -47360.658    4064.8385   -51425.497   0.15341425 
   55800    297.10771   -1029.2583    149971.51   -47356.642     4080.059   -51436.701   0.16542135 
   55900      295.907   -980.52273    149964.19   -47365.968    4063.5701   -51429.538   0.15626259 
   56000    294.11581   -1035.3454    149947.83   -47376.116    4038.9725   -51415.088   0.15725835 
   56100     297.3453   -1045.3484    149910.78   -47361.451    4083.3216   -51444.772   0.16660153 
   56200    296.95375    -992.6891    149914.59   -47397.211    4077.9446   -51475.156   0.15270944 
   56300    292.01986   -1026.1016    149885.16   -47464.463    4010.1895   -51474.652   0.16544111 
   56400    289.70985   -1009.4831     149872.6   -47512.968    3978.4671   -51491.435    0.1515927 
   56500    284.94255   -997.02845    149842.56   -47562.838    3912.9997   -51475.838   0.15876613 
   56600    287.54628   -1002.4775    149857.27   -47620.234    3948.7558   -51568.989   0.15507599 
   56700    288.15556   -1033.8371    149856.37   -47600.103    3957.1228   -51557.226    0.1515094 
   56800    288.43412   -1005.2956    149867.31   -47481.852    3960.9481     -51442.8   0.16757775 
   56900    288.41591   -996.50666    149892.64   -47583.958     3960.698   -51544.656   0.14461887 
   57000    293.48174   -969.85588    149860.62   -47561.835    4030.2649     -51592.1   0.15399477 
   57100    290.95146   -1006.8978    149914.83    -47483.66    3995.5177   -51479.178   0.15195339 
   57200    297.05865   -996.69273    149926.68   -47440.351    4079.3852   -51519.736   0.15038177 
   57300     289.4229   -1006.4099    149890.22   -47569.329    3974.5266   -51543.856   0.16110586 
   57400     296.7345   -1002.8432    149897.66   -47450.695    4074.9338   -51525.628   0.14892072 
   57500     296.5655   -1008.1127    149908.86    -47419.39     4072.613   -51492.003   0.15886184 
   57600    291.61692   -995.86168    149880.26   -47525.036    4004.6561   -51529.692   0.15298491 
   57700    293.25484   -979.87117    149888.52   -47440.864     4027.149   -51468.013   0.14993657 
   57800    298.79999   -994.71872    149905.78   -47388.324    4103.2983   -51491.623    0.1625579 
   57900    296.67219   -990.71823    149926.64   -47431.319    4074.0781   -51505.397   0.15121482 
   58000    294.59129   -991.60811    149936.61   -47381.048     4045.502    -51426.55     0.160099 
   58100    297.07535   -995.79573    149949.57   -47436.238    4079.6145   -51515.853   0.15464947 
   58200    296.23736   -1005.5654    149963.17   -47330.046    4068.1068   -51398.153   0.15762783 
   58300     292.0086    -1024.855    149939.84   -47397.242    4010.0349   -51407.277   0.16391755 
   58400     292.3148   -983.92977    149943.61   -47442.669    4014.2398   -51456.908   0.15288539 
   58500    296.20084   -1003.2976     149946.5    -47449.24    4067.6053   -51516.845   0.15452305 
   58600    290.99025   -1014.5111    149937.44   -47488.799    3996.0503    -51484.85   0.15183358 
   58700    291.10966   -964.93591    149924.13   -47438.876    3997.6902   -51436.567   0.15513371 
   58800    295.90257   -973.02001    149899.24   -47480.221    4063.5093   -51543.731   0.15354081 
   58900    295.68128     -1014.76    149942.82    -47404.08    4060.4703    -51464.55   0.15353494 
   59000    296.51975   -1009.5064    149928.82   -47362.023    4071.9848   -51434.008   0.16143227 
   59100    300.67082   -969.29209    149952.53   -47327.043    4128.9897   -51456.033    0.1531984 
   59200    292.89046     -1027.96    149949.92   -47451.697    4022.1452   -51473.842   0.15676306 
   59300    295.04453   -989.38859    149949.22   -47432.779    4051.7261   -51484.505   0.15495219 
   59400    294.56103   -969.71626    149964.26   -47416.052    4045.0864   -51461.139   0.14786059 
   59500    290.91024   -999.22883    149923.53   -47522.244    3994.9515   -51517.195   0.14910299 
   59600    288.44029   -998.08005    149937.51   -47498.625    3961.0329   -51459.657   0.15217987 
   59700    295.21323   -1027.1431    149943.33    -47424.49    4054.0428   -51478.533   0.15579786 
   59800    286.66546   -988.84155     149934.9   -47542.943    3936.6597   -51479.603   0.15201895 
   59900     290.5475   -966.12212    149946.69   -47539.254    3989.9703   -51529.224   0.14901346 
   60000    291.90098   -993.02801    149933.21   -47504.175     4008.557   -51512.732   0.15474496 
   60100    294.00167   -982.55298    149944.35   -47466.187     4037.405   -51503.592   0.15272232 
   60200    293.65697   -999.33097    149937.15   -47434.095    4032.6714   -51466.767   0.15669221 
   60300    293.71132   -1014.2565    149955.14   -47392.844    4033.4176   -51426.262   0.15652797 
   60400    294.47273    -994.3233    149964.72   -47339.598    4043.8738   -51383.472   0.15815757 
   60500    294.25233   -1040.6134    149930.11   -47365.118    4040.8471   -51405.965   0.16209307 
   60600    296.14228   -1013.8348    149934.91   -47428.457    4066.8011   -51495.258   0.15270282 
   60700    299.08192   -967.57036    149957.64   -47249.934      4107.17   -51357.104    0.1588517 
   60800    300.81777   -1013.7364    149946.46   -47271.605    4131.0077   -51402.613    0.1573708 
   60900    294.24197   -1035.2185    149952.63   -47370.359    4040.7048   -51411.064   0.16060218 
   61000    293.03298   -999.47398    149934.52   -47406.871    4024.1023   -51430.973   0.15748076 
   61100    295.72822    -1008.255    149943.93   -47398.933    4061.1149   -51460.048   0.15824513 
   61200    299.08633   -1025.1391    149956.67   -47336.574    4107.2305   -51443.804    0.1613299 
   61300    291.99084   -1009.4095    149919.16   -47427.431    4009.7911   -51437.222   0.15726636 
   61400     292.1607   -1032.3635     149914.8   -47481.419    4012.1236   -51493.542   0.15537797 
   61500    292.58116    -981.9965    149902.69   -47417.324    4017.8977   -51435.222   0.15513203 
   61600    296.72321   -1018.8342    149920.64   -47467.914    4074.7788   -51542.693   0.15222006 
   61700    287.82448   -1019.3156    149917.63   -47530.551    3952.5761   -51483.127   0.15321281 
   61800    289.19993     -1025.15    149908.96   -47520.446    3971.4646   -51491.911   0.14980905 
   61900      291.375   -1000.3392    149941.19   -47415.669     4001.334   -51417.003   0.15942889 
   62000    297.29607    -991.7432    149940.99   -47429.217    4082.6456   -51511.863   0.15234713 
   62100    294.00156   -1014.2933     149902.7   -47498.794    4037.4034   -51536.198   0.15155502 
   62200     300.3077    -993.0912    149925.63     -47388.6    4124.0031   -51512.604   0.15791019 
   62300    295.33433    -988.5787     149900.9    -47431.57    4055.7058   -51487.276    0.1500672 
   62400    291.37748   -1049.9475     149903.1   -47487.198     4001.368   -51488.566   0.16050626 
   62500    293.42195   -1014.0936    149878.44   -47466.868    4029.4439   -51496.312   0.15587444 
   62600    286.64456   -1019.0917    149898.94   -47499.955    3936.3727   -51436.328   0.15389612 
   62700    288.62528   -1000.0803    149887.28   -47535.828    3963.5732   -51499.401   0.15888451 
   62800    289.42323    -1000.859    149874.08   -47504.355    3974.5311   -51478.887   0.15496193 
   62900    296.33645    -996.8967    149895.71   -47414.051    4069.4675   -51483.519   0.16011338 
   63000    295.30365   -944.40199    149902.07   -47441.167    4055.2846   -51496.452   0.14792512 
   63100    289.57304   -1023.9932    149875.53   -47519.459    3976.5884   -51496.047   0.15229055 
   63200     291.2068   -1006.9292    149886.59   -47391.705    3999.0242    -51390.73   0.16147948 
   63300    290.69954   -1035.0096    149889.84   -47500.801    3992.0582   -51492.859    0.1555859 
   63400    290.20325   -1023.2716     149865.4   -47583.866    3985.2428   -51569.109     0.154544 
   63500    288.24449   -1031.7672    149871.12   -47559.635    3958.3439   -51517.979   0.14940032 
   63600    287.93272   -1001.9872    149864.22   -47613.924    3954.0625   -51567.987   0.15412723 
   63700    292.08161   -977.57095     149860.5   -47575.735    4011.0375   -51586.773   0.14853707 
   63800    281.35949    -1030.106     149848.1   -47647.396    3863.7951   -51511.191   0.15187194 
   63900    289.93191   -1023.9419    149871.45   -47535.809    3981.5166   -51517.326   0.15733448 
   64000    294.99088   -1011.9476    149901.53   -47451.621    4050.9893    -51502.61   0.15019638 
   64100    296.34465   -996.41991    149931.87   -47400.956    4069.5802   -51470.536   0.15250694 
   64200     297.1106   -967.20746    149965.81   -47387.737    4080.0987   -51467.836   0.15526202 
   64300    295.83995   -972.31464    149937.68   -47430.575    4062.6493   -51493.224   0.14802689 
   64400    288.14769     -1029.35    149921.61   -47485.476    3957.0146   -51442.491   0.15838966 
   64500    290.32439   -1025.6957    149932.86   -47477.594    3986.9064   -51464.501    0.1529027 
   64600    292.82489   -1017.5711    149940.32    -47510.65    4021.2447   -51531.895   0.15118783 
   64700    290.27523   -1018.1767    149923.72   -47518.317    3986.2312   -51504.548   0.15547153 
   64800    295.04872   -977.12811    149904.97    -47456.91    4051.7837   -51508.694    0.1491304 
   64900    293.49984   -960.89952     149914.9   -47363.643    4030.5135   -51394.156   0.15610561 
   65000    294.53737   -1022.8161    149918.67   -47355.728    4044.7615   -51400.489   0.15910663 
   65100    293.99898   -1019.1734    149897.95    -47422.18     4037.368   -51459.548   0.15633748 
   65200    291.15097   -996.04695    149896.06   -47440.593    3998.2575   -51438.851    0.1557096 
   65300    298.13002   -960.91787    149930.46   -47375.119    4094.0979   -51469.217    0.1538397 
   65400    295.26454     -964.091    149910.18   -47415.972    4054.7474    -51470.72   0.15458255 
   65500    298.21049   -1010.7108    149951.35   -47351.389     4095.203   -51446.592   0.15579341 
   65600    296.03572   -1039.8599    149945.78   -47374.444    4065.3377   -51439.782   0.15749576 
   65700     297.4569   -981.82014    149947.65   -47330.649    4084.8542   -51415.503   0.15390866 
   65800    293.68094   -992.47095     149945.1   -47406.089    4033.0004    -51439.09   0.15540848 
   65900     291.3431   -1023.8191    149950.49   -47419.012    4000.8958   -51419.907   0.16033017 
   66000    294.10178   -1003.9399    149966.97   -47430.277    4038.7797   -51469.056   0.15064017 
   66100    295.66064   -975.78503    149979.14   -47397.816    4060.1869   -51458.003   0.15398675 
   66200     288.6207   -990.32213    149945.99   -47531.013    3963.5103   -51494.524   0.14706503 
   66300    293.78655   -975.55186    149923.75   -47454.476    4034.4508   -51488.926   0.14739373 
   66400    284.56835   -1013.7464     149935.6   -47463.784     3907.861   -51371.645   0.15771462 
   66500    290.33076    -1041.053    149935.81   -47504.325    3986.9938   -51491.319    0.1561907 
   66600     290.5538   -1025.2905    149904.39   -47505.079    3990.0568   -51495.136    0.1540562 
   66700    290.67231    -978.1651    149911.65   -47488.913    3991.6842   -51480.597   0.14973067 
   66800    293.19513   -1016.9633    149920.88    -47513.68     4026.329   -51540.009   0.14891519 
   66900    289.77486   -1023.6491    149899.12   -47525.379    3979.3598   -51504.739   0.15429754 
   67000    288.78166   -1002.9408     149893.6   -47634.923    3965.7207   -51600.644   0.14836433 
   67100    294.51883   -1010.8632    149923.38   -47464.417    4044.5069   -51508.923   0.15388325 
   67200    289.97799   -1041.1902    149923.51   -47566.669    3982.1494   -51548.819    0.1517669 
   67300    291.79721   -1011.4607    149938.73   -47494.518     4007.132    -51501.65   0.15262906 
   67400    294.12617   -1000.6168    149949.31   -47466.974    4039.1147   -51506.089   0.15301416 
   67500    298.12407     -964.976    149976.43   -47457.941    4094.0162   -51551.958   0.14966593 
   67600    300.10731   -1003.9451    150003.12    -47315.22    4121.2512   -51436.471   0.15656629 
   67700    294.83905   -1035.9797     149971.8   -47383.997    4048.9043   -51432.901   0.15101167 
   67800    300.29938   -982.73713    149958.18    -47427.33    4123.8888   -51551.219   0.15455668 
   67900    290.59511   -1037.4002    149976.25   -47461.572     3990.624   -51452.196   0.15541927 
   68000    291.76776   -1029.9201    149957.65   -47500.474    4006.7276   -51507.201   0.15538667 
   68100     295.8891   -1015.3045    149949.09   -47504.801    4063.3243   -51568.126   0.15201378 
   68200    292.86261   -1015.8369    149945.28    -47467.51    4021.7627   -51489.272   0.14837356 
   68300    293.66736   -1029.5559     149953.4   -47412.337     4032.814   -51445.151   0.15860807 
   68400    299.86995   -971.14604     149971.1   -47376.296    4117.9917   -51494.288   0.15114077 
   68500    293.99076   -992.73546    150006.96   -47376.856    4037.2552   -51414.111   0.15608028 
   68600    295.86867   -999.62792    149957.48   -47466.916    4063.0437    -51529.96   0.15240717 
   68700    295.50653   -986.97905    149960.74   -47442.955    4058.0706   -51501.026   0.14625583 
   68800    292.04495   -1039.0202    149957.02   -47440.639    4010.5341   -51451.173   0.15876652 
   68900    293.56218   -985.61509    149936.45    -47439.92    4031.3697    -51471.29   0.15000715 
   69000    287.28006   -1001.3423    149941.75   -47440.432    3945.0998   -51385.531   0.15809411 
   69100    293.13778   -953.34368    149905.48   -47502.672    4025.5415   -51528.214   0.15034725 
   69200    291.86496   -1006.8896    149912.06   -47516.331    4008.0624   -51524.393   0.15393661 
   69300    288.46611   -1000.3814    149933.02    -47547.62    3961.3874   -51509.008   0.15503485 
   69400    290.73681    -1000.449    149917.13   -47599.963      3992.57   -51592.533   0.14537485 
   69500    290.75213   -977.34369    149916.68   -47456.947    3992.7803   -51449.727   0.15453242 
   69600    297.49794   -981.76386    149935.53   -47342.044    4085.4178   -51427.462   0.15820732 
   69700    296.39511    -1012.931    149950.98   -47447.537    4070.2731   -51517.811   0.15602439 
   69800    301.46755   -991.37819    149946.29   -47443.425    4139.9309   -51583.356   0.15620026 
   69900    294.44704   -1014.1762    149937.77   -47541.962     4043.521   -51585.483   0.14862885 
   70000    290.33765   -970.13459    149951.43   -47471.004    3987.0885   -51458.093   0.15824123 
   70100    285.01512   -1047.2236    149935.37   -47594.333    3913.9963   -51508.329   0.15391124 
   70200    294.60436   -1005.3027    149966.41   -47434.691    4045.6814   -51480.373   0.15521376 
   70300    297.95094   -994.74498    149965.43   -47441.402    4091.6387   -51533.041    0.1549689 
   70400    300.38544   -975.50932    149966.65   -47330.555    4125.0706   -51455.626   0.15308248 
   70500    300.20955   -1006.8251     149952.6   -47404.466    4122.6552   -51527.121   0.15708485 
   70600    296.92107   -976.29174    149938.33   -47459.813    4077.4959   -51537.309   0.15206933 
   70700    289.27588   -988.24362    149923.28    -47432.96    3972.5077   -51405.467   0.15954608 
   70800    295.84203   -1043.5974    149919.14   -47468.919    4062.6779   -51531.597   0.15573086 
   70900    295.20303   -1000.6916    149920.66   -47459.332    4053.9028   -51513.235   0.15128453 
   71000    291.56925   -1014.5139    149924.93   -47476.939    4004.0016   -51480.941    0.1574969 
   71100     292.4319   -992.18044     149923.4   -47465.886     4015.848   -51481.734    0.1549779 
   71200    292.40045   -1023.1044    149932.11   -47506.072    4015.4161   -51521.489   0.15669962 
   71300    289.39498   -1016.2063    149918.51   -47558.842    3974.1432   -51532.985   0.15296526 
   71400    290.67484   -1015.6583    149936.62   -47501.259     3991.719   -51492.978   0.15507945 
   71500    290.45548   -1004.6965    149950.56    -47445.94    3988.7066   -51434.647   0.16051317 
   71600    293.55501   -1003.8373    149963.67   -47464.893    4031.2712   -51496.164   0.15631104 
   71700    293.38137   -1013.8501    149981.65   -47456.644    4028.8866   -51485.531   0.15375115 
   71800    290.19814   -1025.2183     149955.4   -47634.017    3985.1726   -51619.189    0.1508853 
   71900    289.23013   -1009.9261    149939.36    -47572.32    3971.8793     -51544.2   0.15282931 
   72000    294.99198   -963.75123    149965.98   -47538.055    4051.0044   -51589.059   0.14952573 
   72100    294.49742   -990.64076    149995.85   -47401.626    4044.2129   -51445.839   0.15743317 
   72200    297.52533     -973.722    150020.91   -47290.854    4085.7939   -51376.648   0.15727291 
   72300    307.04149   -1023.6088     150046.9   -47271.744    4216.4755   -51488.219   0.15528302 
   72400     297.9188   -1008.1796    150014.77   -47396.246    4091.1973   -51487.443   0.15822595 
   72500    297.53847   -943.07679    150015.81   -47387.215    4085.9744    -51473.19   0.15253178 
   72600    296.44168   -990.17298    150019.65   -47324.704    4070.9126   -51395.616   0.15721969 
   72700    295.35018   -1004.8308     149972.9   -47484.945    4055.9235   -51540.868   0.15569249 
   72800    292.13685   -980.48007     149950.6   -47410.881    4011.7962   -51422.677   0.15339675 
   72900    295.02956   -1009.6965    149946.26   -47423.039    4051.5205   -51474.559   0.15887808 
   73000    290.04281    -1023.882    149941.59   -47434.355    3983.0395   -51417.394   0.16464994 
   73100    298.42971   -985.80354    149964.41   -47394.114    4098.2134   -51492.328   0.15345386 
   73200    294.96087   -1016.4456    149973.22   -47377.747    4050.5772   -51428.324    0.1589094 
   73300    293.20212   -992.01946    149979.83   -47350.224    4026.4251   -51376.649   0.15789394 
   73400    296.16293    -995.4181       149973   -47331.207    4067.0847   -51398.292    0.1608383 
   73500    296.16893   -1029.2898    149990.15   -47340.245    4067.1671   -51407.412   0.16351595 
   73600     289.0933   -1005.1673    149951.65   -47382.433    3970.0003   -51352.434   0.15646616 
   73700    294.80628   -997.56813    149951.12   -47443.315    4048.4543   -51491.769   0.15422866 
   73800    287.57892   -1007.1947     149929.5   -47539.147    3949.2039   -51488.351   0.15704707 
   73900    286.74919   -1029.9243    149925.77   -47515.474    3937.8096   -51453.283   0.15724989 
   74000    294.56752   -992.99202    149921.34   -47435.831    4045.1755   -51481.007   0.15307633 
   74100    301.53685   -996.52939     149956.6   -47269.772    4140.8825   -51410.654   0.16085472 
   74200    296.93463   -988.63106    149954.33   -47432.815    4077.6821   -51510.497   0.15103194 
   74300    295.03692    -990.0902    149948.33   -47440.568    4051.6217    -51492.19   0.15537575 
   74400    292.32886   -996.85635    149943.46   -47472.933    4014.4329   -51487.366    0.1642666 
   74500    292.20048   -990.94196    149940.91   -47491.402      4012.67   -51504.072    0.1529061 
   74600    292.27825   -1012.6711    149949.16   -47496.602     4013.738    -51510.34   0.15640961 
   74700    296.87567   -1027.2785     149941.4   -47403.135    4076.8724   -51480.007   0.15618758 
   74800    291.10559   -1021.0508    149926.92   -47463.218    3997.6343   -51460.852   0.15586995 
   74900    293.14477   -992.83702    149930.62   -47461.464    4025.6375   -51487.101   0.15805526 
   75000    294.00802   -964.87895    149918.68   -47438.752    4037.4922   -51476.244   0.15434496 
   75100    291.50548   -985.27937    149981.79    -47377.86    4003.1258   -51380.986   0.15779453 
   75200    294.58774   -1001.8635    149972.65   -47421.739    4045.4532   -51467.192   0.15641257 
   75300    292.32772   -1014.1615    149949.55   -47475.198    4014.4172   -51489.615   0.15550206 
   75400    292.18607   -976.63364    149919.57   -47483.844    4012.4721   -51496.316   0.15683615 
   75500    294.04543   -1006.4234    149930.71   -47482.211    4038.0058   -51520.217   0.15806332 
   75600     299.0208   -997.02003    149944.37    -47413.12    4106.3306   -51519.451   0.15695827 
   75700    295.64391   -1022.8587    149948.26   -47369.098    4059.9571   -51429.055   0.16166919 
   75800    296.13128   -1042.9378    149955.92   -47389.079      4066.65   -51455.729   0.15918764 
   75900    295.32081   -999.18987    149953.32   -47403.398    4055.5202   -51458.918   0.16023332 
   76000    291.08345   -1011.8587    149946.21   -47411.561    3997.3302   -51408.891   0.16491222 
   76100    292.93524   -1002.8177    149931.69   -47501.208    4022.7601   -51523.968   0.16039412 
   76200    291.83227   -961.49677    149914.58   -47546.848    4007.6135   -51554.462   0.15066856 
   76300     290.9156   -1039.6554    149923.44    -47487.76    3995.0252   -51482.786   0.15640072 
   76400    295.68166   -990.06416    149933.38   -47485.639    4060.4756   -51546.114   0.15528048 
   76500      294.264   -990.32907    149932.47   -47473.803    4041.0074    -51514.81   0.15149997 
[...]
   81900    289.67055   -1024.0901    149928.55   -47513.339    3977.9275   -51491.267   0.15452579 
   82000    292.26776   -960.81828    149967.03   -47422.231    4013.5939   -51435.825   0.15848755 
   82100     298.8713   -978.60941    150008.83    -47371.32    4104.2776   -51475.597   0.15382265 
   82200    296.48187    -1031.358    149980.85   -47387.574    4071.4646   -51459.038   0.16107859 
   82300    291.42131   -1010.9364    149946.72   -47461.551      4001.97   -51463.521   0.15952495 
   82400    295.09433    -966.6646    149977.85   -47336.033      4052.41   -51388.444   0.15771746 
   82500    299.10635   -985.66752    150003.41   -47234.022    4107.5054   -51341.527   0.16330601 
   82600    296.12632     -1009.18    150004.74   -47341.383    4066.5819   -51407.965   0.15812263 
   82700     300.8549   -1006.6076    149970.53   -47424.317    4131.5176   -51555.834    0.1585694 
   82800    293.70594    -989.1967    149967.26    -47430.12    4033.3439   -51463.464   0.15286166 
   82900    294.58412   -1003.8561    149988.39   -47389.571    4045.4036   -51434.975   0.16350579 
   83000    296.92433   -991.44351    150018.73   -47326.274    4077.5406   -51403.815    0.1582569 
   83100    299.03141   -983.38454    150011.28   -47368.161    4106.4763   -51474.638   0.15662416 
   83200    293.12112   -1041.8138    149994.37   -47402.749    4025.3127   -51428.062   0.16333318 
   83300    299.83861   -1003.6835    149990.62   -47390.317    4117.5613   -51507.879   0.15303583 
   83400    290.12049   -1053.4446    149953.73    -47469.52    3984.1063   -51453.626   0.16103413 
   83500    295.18285   -941.90871    149929.21   -47575.451    4053.6256   -51629.076   0.15115285 
   83600    289.02712   -976.98391    149935.59   -47517.202    3969.0915   -51486.294   0.15391865 
   83700     290.1186   -1005.1801    149941.41    -47550.58    3984.0804    -51534.66   0.15240727 
   83800    292.77946   -975.59228    149936.77   -47505.839    4020.6209    -51526.46   0.15183558 
   83900     291.4148   -1041.7766    149936.11   -47512.281    4001.8805   -51514.162   0.15912688 
   84000    287.42334   -979.88249    149906.63   -47525.539    3947.0674   -51472.607   0.15874966 
   84100    287.57399   -954.91256    149936.07   -47454.633    3949.1362   -51403.769   0.15641773 
   84200     291.3496   -1016.8474    149936.09   -47406.847    4000.9852   -51407.833   0.16266379 
   84300    291.69422   -992.71424    149920.83   -47456.586    4005.7176   -51462.304   0.15494091 
   84400    294.06685   -991.45228    149919.97    -47456.87    4038.3001    -51495.17   0.16138022 
   84500     291.8912   -1003.6478    149918.36   -47512.773    4008.4227   -51521.196   0.15380773 
   84600    292.65267   -991.96878    149928.69   -47421.968    4018.8797   -51440.848   0.16017916 
   84700    292.95877   -1034.0845    149943.17   -47431.595    4023.0832   -51454.678   0.16199005 
   84800    293.18189   -988.23734    149947.87   -47430.826    4026.1473   -51456.974   0.15497812 
   84900    294.61219   -993.78204     149948.3   -47343.065     4045.789   -51388.854    0.1664459 
   85000    296.23628   -994.32945    149941.62   -47420.951    4068.0919   -51489.043   0.15533787 
   85100    293.41128   -1024.2225     149950.1   -47443.229    4029.2973   -51472.526   0.15821915 
   85200    295.08222   -994.40866    149932.55   -47481.003    4052.2438   -51533.247   0.15585687 
   85300    290.66983   -1021.1758    149925.24   -47490.324    3991.6502   -51481.974   0.15472156 
   85400    289.70738   -998.18047    149927.89   -47523.436    3978.4332   -51501.869   0.15659177 
   85500    290.39542   -987.63685    149915.59   -47462.227    3987.8818   -51450.109   0.15648271 
   85600    288.48234   -1013.0449    149909.84   -47498.819    3961.6103   -51460.429   0.16181222 
   85700    292.73293   -980.01887    149926.02   -47439.359    4019.9818   -51459.341    0.1543499 
   85800    289.64915    -991.5832    149960.26   -47435.243    3977.6336   -51412.877   0.16365632 
   85900     293.0209   -1010.1198     149966.1    -47400.35    4023.9365   -51424.287   0.16187213 
   86000    292.35953   -998.62853    149943.13   -47449.656    4014.8542    -51464.51   0.15402521 
   86100    295.87423   -1009.7955    149944.95   -47427.209    4063.1201   -51490.329   0.16405064 
   86200    296.94513   -980.68261    150006.31   -47386.634    4077.8262    -51464.46   0.15265903 
   86300     296.3471   -1006.7467    149966.89   -47436.677    4069.6138   -51506.291    0.1549774 
   86400    292.01115   -1047.6278    149939.33   -47494.947    4010.0699   -51505.016   0.16273007 
   86500    289.56753   -1012.2523    149917.14   -47525.372    3976.5128   -51501.885   0.15799795 
   86600    298.98825   -1004.3767    149958.05   -47369.881    4105.8837   -51475.764   0.16339323 
   86700    296.48366   -1022.4199    149969.54    -47367.58    4071.4892   -51439.069   0.16200484 
   86800    294.53981      -1043.4    149948.71   -47487.525     4044.795    -51532.32   0.15587807 
   86900    291.87744    -959.6166    149937.42   -47468.281    4008.2338   -51476.515   0.15502288 
   87000    290.35557   -981.31702    149953.91   -47448.271    3987.3345   -51435.605   0.15742944 
   87100    298.41828    -984.6024    149953.59    -47421.53    4098.0564   -51519.587   0.15613969 
   87200    299.24732   -974.33386    149958.93   -47354.864    4109.4414   -51464.305   0.16098266 
   87300    294.93488   -1006.5995    149962.59   -47370.311    4050.2203   -51420.532    0.1646157 
   87400    297.11817    -1000.917    149960.29   -47422.113    4080.2026   -51502.315   0.15249906 
   87500    297.48599   -980.68521    149957.03   -47401.053    4085.2537   -51486.306   0.16635249 
   87600    295.58671   -1001.9248     149940.8   -47425.264    4059.1717   -51484.436    0.1574693 
   87700    296.71431   -975.44832    149965.56   -47393.104    4074.6566   -51467.761   0.15266859 
   87800    289.25915   -1016.3044    149946.94    -47477.31    3972.2778   -51449.588    0.1625182 
   87900    290.68415   -986.68926    149935.82   -47501.856    3991.8468   -51493.703   0.15161222 
   88000    285.67213   -1003.6177    149926.39   -47465.324    3923.0187   -51388.343   0.16473053 
   88100    294.10795   -999.90846    149942.33   -47433.985    4038.8644   -51472.849   0.16195995 
   88200    288.07612   -1005.6227    149918.96   -47535.552    3956.0318   -51491.584   0.15144498 
   88300    298.71308   -978.31308    149931.37   -47482.401    4102.1048   -51584.506   0.15790068 
   88400    299.65423   -995.03562    149943.16    -47414.54    4115.0292    -51529.57   0.15607552 
   88500    292.22277   -1016.8682    149925.42   -47483.183    4012.9761   -51496.159   0.15541697 
   88600    294.11469   -979.26468     149931.4   -47469.426     4038.957   -51508.383   0.16164225 
   88700    295.07901   -1018.5181    149932.17   -47441.119    4052.1997   -51493.319   0.15431044 
   88800    292.96058   -997.33829    149948.61    -47507.02     4023.108   -51530.128   0.15913088 
   88900    295.49278   -961.36641    149927.58   -47441.112    4057.8817   -51498.994   0.15096854 
   89000    295.16082   -992.67253    149932.91   -47407.921    4053.3231   -51461.244   0.16529367 
   89100    292.91331    -1000.565    149923.15   -47455.441    4022.4589     -51477.9   0.15782309 
   89200    291.59245   -1028.4476    149935.31   -47406.726    4004.3201   -51411.046   0.16710827 
   89300    288.81318    -1037.944    149919.29   -47531.976    3966.1536   -51498.129   0.16205863 
   89400    292.57324   -1011.2057    149961.94   -47436.429    4017.7889   -51454.218   0.15407963 
   89500    292.67035    -1008.395    149938.89   -47534.855    4019.1225   -51553.977   0.16212036 
   89600    288.93478   -1017.7753    149918.04    -47562.41    3967.8234   -51530.233   0.14889516 
   89700    294.02646   -983.78734    149924.16    -47475.96    4037.7453   -51513.705   0.16336522 
   89800    295.04466   -955.61285    149954.42   -47410.619    4051.7279   -51462.347   0.16309782 
   89900     296.4556   -990.03847    149965.28   -47398.845    4071.1037   -51469.949   0.15596908 
   90000    296.02154   -1040.4648    149953.54   -47417.498     4065.143   -51482.641   0.16282517 
   90100    293.23797   -1043.9144    149964.39    -47397.51    4026.9174   -51424.427   0.16096469 
   90200    297.76948    -1005.562    149951.31   -47477.114    4089.1467   -51566.261   0.15736084 
   90300    293.82048   -952.08596    149939.57   -47444.105    4034.9168   -51479.021   0.16211779 
   90400    300.45863   -999.57247    149960.58    -47437.37    4126.0757   -51563.445   0.15346179 
   90500    296.82549   -953.48941    149946.57   -47445.798    4076.1833   -51521.981   0.15794254 
   90600    294.48017   -1004.8095    149954.43   -47475.395     4043.976    -51519.37   0.15725292 
   90700    289.22866   -1015.1509    149947.66   -47503.368    3971.8592   -51475.227   0.15623475 
   90800    292.25901   -1004.6803     149948.1   -47522.417    4013.4737   -51535.891   0.16017137 
   90900    296.64373   -1029.6103    149953.42   -47498.963    4073.6872    -51572.65   0.15339947 
   91000    293.90447   -983.14184    149940.53   -47510.162    4036.0702   -51546.232    0.1553803 
   91100     289.5443    -990.9802    149912.96   -47622.776    3976.1938    -51598.97    0.1527828 
   91200    288.29809   -976.66489    149905.15   -47559.567      3959.08   -51518.647   0.15692406 
   91300    293.33702    -997.8772    149929.92   -47489.479    4028.2776   -51517.756   0.16020499 
   91400     292.6175   -1009.1481    149919.13   -47460.731    4018.3966   -51479.128   0.15498784 
   91500    293.65738   -996.24212    149982.26   -47298.095    4032.6769   -51330.772   0.16649177 
   91600    295.95223   -1000.7385    149998.31   -47370.251    4064.1912   -51434.443   0.15170211 
   91700    289.02613    -998.8278    149975.07   -47441.131    3969.0779   -51410.209   0.16293493 
   91800    293.31838   -980.01029    149970.17   -47411.472    4028.0216   -51439.494   0.15746425 
   91900    293.33901   -1034.7679    149979.82   -47407.657    4028.3049   -51435.962   0.16142121 
   92000    290.56647   -1022.7561    149965.34   -47453.509    3990.2308   -51443.739   0.16190109 
   92100    294.40422   -1005.2371    149974.94    -47441.57     4042.933   -51484.503   0.15646817 
   92200    293.20497   -986.46029     149938.8   -47471.092    4026.4642   -51497.556   0.16123377 
   92300    287.75446   -995.98988    149962.22   -47339.383    3951.6146   -51290.997   0.15864073 
   92400    290.82891   -996.93136    149970.45   -47393.144    3993.8347   -51386.979   0.16651379 
   92500    291.89148   -987.32855    149947.54    -47381.61    4008.4266   -51390.037   0.16278096 
   92600    302.42701   -976.63876    149968.09   -47293.689    4153.1066   -51446.796   0.16183331 
   92700    294.36037   -976.94254     149946.7   -47422.002    4042.3309   -51464.333   0.15958929 
   92800    294.66382   -1009.0434    149933.19   -47429.607    4046.4981   -51476.105   0.16064702 
   92900    291.73519   -1033.6761    149949.92   -47473.795    4006.2802   -51480.075   0.15632787 
   93000     294.1118   -994.03133    149926.46   -47476.912    4038.9173   -51515.829   0.16138577 
   93100     297.4319   -963.08532    149933.27   -47391.657    4084.5109   -51476.168   0.15795583 
   93200    294.88761   -1004.2648    149936.48   -47453.457    4049.5712   -51503.028   0.15837529 
   93300    290.52074    -1009.663    149915.48   -47498.462    3989.6028   -51488.065   0.16255407 
   93400    288.39263   -999.38728     149914.9   -47559.264    3960.3782   -51519.642   0.15475474 
   93500    286.73491   -996.74171    149918.63   -47560.446    3937.6135    -51498.06   0.16301879 
   93600    294.27242   -984.41874    149923.15   -47509.851     4041.123   -51550.974   0.15407295 
   93700    292.23135   -995.26532    149934.13   -47484.542    4013.0938   -51497.636   0.15842741 
   93800    289.96714   -1017.8582     149949.1    -47491.28    3982.0003    -51473.28   0.16132418 
   93900    293.75477   -988.52802    149917.77   -47567.256    4034.0143    -51601.27   0.15656601 
   94000    288.25778   -992.65015    149925.26   -47536.499    3958.5264   -51495.025   0.15629248 
   94100    292.68723   -1034.3006    149963.48   -47416.294    4019.3543   -51435.649   0.16417599 
   94200    293.85212   -998.27385    149949.76   -47404.264    4035.3513   -51439.615   0.15743082 
   94300    292.61918    -1007.072    149949.74   -47419.104    4018.4198   -51437.524   0.15640766 
   94400    297.28878   -973.83043    149943.47   -47408.011    4082.5455   -51490.556   0.16685957 
   94500    290.85366   -1017.7945    149973.62   -47418.342    3994.1746   -51412.517   0.16009432 
   94600    294.93978   -989.51908     149945.8   -47421.564    4050.2877   -51471.852   0.15915817 
   94700     296.6156   -977.15606    149934.79   -47459.856     4073.301   -51533.158   0.15758085 
   94800    290.99483   -1041.4719    149920.95   -47504.541    3996.1133   -51500.654   0.15524661 
   94900    286.75387   -1014.1154     149870.8   -47522.891    3937.8739   -51460.765   0.16644805 
   95000    289.67078   -1007.6996    149883.32    -47486.06    3977.9306    -51463.99   0.15870302 
   95100    292.46217   -981.18069    149899.57   -47445.672    4016.2637   -51461.936   0.15958861 
   95200    290.10063   -990.73834    149915.35   -47475.406    3983.8336    -51459.24   0.16108461 
   95300    294.68504   -981.23634    149912.61   -47424.221    4046.7895   -51471.011    0.1581922 
   95400    298.28165   -1015.4708    149942.92    -47399.94    4096.1802    -51496.12   0.15753401 
   95500    297.25889   -991.16687    149936.31   -47421.446     4082.135   -51503.581   0.16082547 
   95600    294.88442   -978.75009       149933    -47400.39    4049.5275   -51449.917   0.15766819 
   95700    294.23447   -1013.2591    149937.72   -47443.395    4040.6018   -51483.997   0.15592056 
   95800    299.46591    -1024.049    149956.92    -47382.57    4112.4432   -51495.014   0.16305011 
   95900    293.02723   -971.05103    149944.95   -47402.396    4024.0233   -51426.419   0.15933987 
   96000    298.84327   -969.01548    149978.47    -47370.19    4103.8926   -51474.083   0.15522995 
   96100    297.59609   -988.08663    149964.11   -47315.586    4086.7657   -51402.352      0.16618 
   96200    296.70378   -988.51854    149989.57   -47349.963    4074.5119   -51424.474   0.15570533 
   96300    295.21916   -1025.1012    149961.26   -47361.618    4054.1243   -51415.742   0.16029938 
   96400    293.98087   -1030.5409    149915.32   -47408.628    4037.1193   -51445.747   0.16550182 
   96500    297.74738   -1017.4797    149944.88   -47413.764    4088.8432   -51502.608   0.15486946 
   96600    296.04394   -1049.3203     149905.1   -47455.967    4065.4507   -51521.417    0.1677617 
   96700     292.0657   -1021.6027    149910.92    -47433.22     4010.819   -51444.039   0.16092798 
   96800     295.6599   -995.66113    149910.61   -47449.183    4060.1768   -51509.359    0.1582646 
   96900      295.153   -964.04476    149886.66   -47455.019    4053.2158   -51508.234   0.16132569 
   97000    285.17388   -1017.1861    149882.79   -47525.308    3916.1765   -51441.484   0.15505269 
   97100    291.49165   -1028.9922    149902.07   -47499.699    4002.9359   -51502.635   0.16406237 
   97200    292.03808   -999.66481    149931.09   -47441.787    4010.4398   -51452.227   0.15894773 
   97300    297.86304   -997.07587    149961.76   -47328.929    4090.4316   -51419.361   0.15894589 
   97400    294.09677   -1027.1895    149956.25   -47429.215    4038.7109   -51467.926   0.16404085 
   97500    295.50302   -987.89945    149952.08   -47396.022    4058.0223   -51454.045   0.15273954 
   97600    300.20438   -999.63922    149943.01    -47333.93    4122.5843   -51456.514   0.16453482 
   97700    299.82252   -1009.1693     149951.7   -47296.734    4117.3403   -51414.074   0.15802935 
   97800    291.62494   -995.05831    149938.88   -47404.788    4004.7663   -51409.554   0.16175973 
   97900    293.20595   -1002.6153     149944.9    -47362.45    4026.4777   -51388.928   0.16526268 
   98000    289.54808   -1012.4023    149935.62   -47457.136    3976.2457   -51433.381   0.15824176 
   98100    291.73667   -1002.9062    149926.65   -47433.683    4006.3006   -51439.983   0.16561336 
   98200    293.86839    -1000.696    149935.74   -47433.196    4035.5747   -51468.771   0.15486688 
   98300     292.3322    -1013.176    149969.06    -47372.05    4014.4789   -51386.529   0.16181996 
   98400    292.57944   -1024.8197     149970.1   -47409.255    4017.8741   -51427.129   0.15893774 
   98500     295.6053   -1020.8909    149943.71   -47388.284    4059.4269   -51447.711   0.15828611 
   98600    296.46277   -993.16229    149949.73    -47396.17    4071.2023   -51467.373   0.16047401 
   98700     297.0647   -982.32564    149955.68    -47368.11    4079.4683   -51447.578   0.15838461 
   98800     296.1496    -1035.459    149974.89   -47376.235    4066.9016   -51443.137   0.15919581 
   98900    292.97222   -956.12536    149947.57   -47437.142    4023.2679    -51460.41    0.1600048 
   99000    295.26976   -1005.7141    149934.07   -47430.611    4054.8191    -51485.43    0.1572488 
   99100    293.28881   -972.62524    149904.07   -47491.024    4027.6155   -51518.639   0.15972241 
   99200    288.10687   -1043.7018    149935.52   -47501.558     3956.454   -51458.012   0.15940598 
   99300    293.80388   -1012.7931    149920.76   -47422.603    4034.6888   -51457.291   0.16166991 
   99400    291.09862   -991.48045    149905.21   -47463.866    3997.5386   -51461.405   0.16259772 
   99500    295.95742   -1006.1353    149912.31   -47416.566    4064.2625   -51480.828   0.16112998 
   99600    292.91681   -1042.4545    149906.31   -47410.882     4022.507   -51433.389   0.16988332 
   99700    295.26398    -961.9488    149920.29   -47454.635    4054.7397   -51509.374   0.15054164 
   99800    294.05485   -993.08808    149912.23   -47466.077    4038.1353   -51504.213   0.15983785 
   99900    290.44917   -1018.3909       149916   -47529.853    3988.6199   -51518.473    0.1569236 
  100000    293.77939   -1008.6253    149918.77    -47435.71    4034.3525   -51470.062   0.15625803 
Loop time of 51.3056 on 6 procs for 100000 steps with 4608 atoms

Performance: 842.014 ns/day, 0.029 hours/ns, 1949.106 timesteps/s
97.8% CPU use with 6 MPI tasks x no OpenMP threads

MPI task timing breakdown:
Section |  min time  |  avg time  |  max time  |%varavg| %total
---------------------------------------------------------------
Pair    | 37.614     | 37.954     | 38.225     |   3.2 | 73.98
Neigh   | 5.2848     | 5.4209     | 5.6396     |   6.2 | 10.57
Comm    | 4.9582     | 5.2142     | 5.6354     |  11.4 | 10.16
Output  | 0.17416    | 0.17526    | 0.18016    |   0.5 |  0.34
Modify  | 1.8586     | 1.9086     | 1.9466     |   2.3 |  3.72
Other   |            | 0.633      |            |       |  1.23

Nlocal:        768.000 ave         777 max         755 min
Histogram: 2 0 0 0 0 1 0 0 1 2
Nghost:        1395.50 ave        1405 max        1383 min
Histogram: 1 0 1 0 1 0 0 1 0 2
Neighs:        0.00000 ave           0 max           0 min
Histogram: 6 0 0 0 0 0 0 0 0 0
FullNghs:      21838.3 ave       22143 max       21447 min
Histogram: 2 0 0 0 0 1 0 0 2 1

Total # of neighbors = 131030
Ave neighs/atom = 28.435330
Neighbor list builds = 6351
Dangerous builds = 0

undump              1
unfix               2
unfix               3
unfix               4




################################################
#######         Run Simulation         #########
################################################

reset_timestep      0
log                 log.run_${NAME}
log                 log.run_ice_294K_-1000atm_ML
