LAMMPS data file via write_data, version 29 Oct 2020, timestep = 200000

4608 atoms
1 atom types

-0.04961854930327192 57.32012854930119 xlo xhi
-0.04410537715746088 50.951225377157954 ylo yhi
-0.04410537715746088 50.951225377157954 zlo zhi

Masses

1 18.015

Atoms # atomic

29 1 4.867588594860612 1.2797616857865264 1.581290574297642 0 0 0
79 1 0.01894077613071521 12.924171838868151 13.063844468572157 0 0 0
135 1 0.1180401280714517 25.493354553610892 18.85899416986821 0 0 0
285 1 11.331444602431455 1.5115827079747783 1.617622514854984 0 0 0
541 1 17.14539489696308 1.929025714179211 1.7433767237701898 0 0 0
30 1 1.3611102152634025 4.405366473163286 2.1064084737529387 0 0 0
282 1 6.285081816088287 3.2544624587052424 3.1272350357801937 0 0 0
286 1 8.10974370395505 4.97203616551844 1.5677455705853034 0 0 0
542 1 13.891513168475559 5.050930728801874 1.495226844244842 0 0 0
538 1 12.474106139831344 3.6318901964829977 3.1503028652255707 0 0 0
569 1 15.560545989628352 6.438296318397511 3.5652076446141296 0 0 0
61 1 4.9755110149187765 7.57308108258008 1.6733722966095517 0 0 0
90 1 0.03434196549301305 15.833798751237504 3.3182451342862938 0 0 0
317 1 11.305746624907423 8.350364140132287 2.3752136008559854 0 0 0
573 1 17.297321327266506 8.016064682839916 1.87281932223638 0 0 0
62 1 1.6298742483669892 10.791320755291844 1.7486425933332184 0 0 0
740 1 17.6036924128056 48.9823711052172 23.741154601608585 0 0 0
314 1 6.42284973314956 9.031589532206258 3.1844142591540674 0 0 0
1023 1 0.06656429827459931 44.63383445581508 25.093677691086842 0 0 0
318 1 7.959850494433059 11.144062246710092 1.6151085773788092 0 0 0
574 1 14.564076522187081 11.341917290686096 1.4945413333060742 0 0 0
601 1 15.840006347355708 12.942838969315947 3.268847046581027 0 0 0
55 1 -0.03402049468958926 6.242903033141642 6.37668351509414 0 0 0
93 1 4.599363838817091 14.420548672087468 1.4475549126221254 0 0 0
146 1 0.3149351489717889 28.615124591252865 9.652870844564234 0 0 0
346 1 6.314439789747673 15.85162785745561 3.3196550210477316 0 0 0
349 1 11.23078569278777 14.181185020501532 1.774879597291324 0 0 0
605 1 17.54323661667081 14.341058043257439 1.7379798445294934 0 0 0
94 1 1.6245101331425802 17.28758222782276 1.7000348484170236 0 0 0
350 1 7.429064102265512 17.519662361515486 1.5502191469783801 0 0 0
194 1 0.07853708494487247 41.24985006471289 21.86591538080608 0 0 0
606 1 14.48871819000519 17.677888120257165 1.556010116353176 0 0 0
633 1 16.146910383205192 19.322511470564194 3.077764474183293 0 0 0
607 1 12.708629725135333 12.76506138795813 0.03208408708244084 0 0 0
121 1 2.8446183305305843 18.78388102920272 3.3937495953019083 0 0 0
125 1 4.567931149133489 20.28858952932019 1.4249838244644704 0 0 0
381 1 11.310700672904899 20.724882336880427 1.569317184603406 0 0 0
637 1 17.37103173468076 21.084786622446007 1.396073881958076 0 0 0
126 1 1.5156727759952529 23.92550853755051 1.6050056399742818 0 0 0
382 1 8.121570521296102 23.266164718469827 1.342235380256576 0 0 0
511 1 6.17601746724422 44.58961267102879 0.05950962967488149 0 0 0
638 1 14.359799473418448 23.958386859420035 1.5732432654533557 0 0 0
1439 1 12.536686177705153 25.428350950433536 25.236544487388436 0 0 0
119 1 0.0864664222469175 18.947291894931706 6.477277028901197 0 0 0
320 1 9.589793746520563 9.637827810477113 0.435088733075298 0 0 0
157 1 5.100332248669853 26.878943297215613 1.4847101748655265 0 0 0
413 1 11.539392887510902 26.962977702543895 1.3202945695249584 0 0 0
351 1 6.244611593215103 12.74037475267092 0.1504910078889932 0 0 0
665 1 15.784813358604136 25.55365059682585 2.973780645078286 0 0 0
669 1 17.49093257014768 27.225032269793598 1.524776735170357 0 0 0
158 1 1.5308438865255125 30.214470925921994 1.589447646534706 0 0 0
1119 1 6.751498807225443 11.895964839275868 24.83536382714921 0 0 0
410 1 6.562850615871539 28.19716913160435 3.435272408821726 0 0 0
414 1 7.62573972776096 30.183466548445566 1.7425627523388718 0 0 0
441 1 9.610208912540706 31.67709418774105 3.3984488722136663 0 0 0
670 1 14.40289486241596 30.437906074349655 1.3369313154754816 0 0 0
666 1 12.794192975264057 28.673850760637503 3.023735452310121 0 0 0
1151 1 6.576962891678623 18.81433573908206 25.07553088380611 0 0 0
738 1 12.903176076042463 47.730497590959914 22.219536964049755 0 0 0
189 1 4.328323237625324 33.20641122580716 1.3694154088990484 0 0 0
445 1 10.970105678811274 33.3684824793055 1.4762431074465938 0 0 0
1183 1 6.160078206630227 25.458481203980785 25.25990644346197 0 0 0
701 1 17.420124045423243 33.89458658024694 1.4385907807437446 0 0 0
190 1 1.364740086224491 36.20762476124948 1.3993226960618856 0 0 0
446 1 8.212634348559837 36.46447127429762 1.1910398317362554 0 0 0
1088 1 9.687567080660457 9.08823695135616 25.155610397332303 0 0 0
702 1 13.795808703750568 36.55823508072285 1.6024836205983541 0 0 0
183 1 0.16869125476757754 31.893321582111902 6.22879744275632 0 0 0
257 1 9.33228277042641 -0.031403525407867505 22.41238278253878 0 0 0
221 1 4.579356947222567 39.3195874431709 1.5244948099081062 0 0 0
477 1 10.865173459387568 39.84903506036582 0.9347547915579311 0 0 0
143 1 0.25541901413958723 25.522148585398305 12.872445017795227 0 0 0
733 1 17.666379018633336 40.011194672283594 1.8547108698135633 0 0 0
1311 1 12.417320594941781 50.94132016594672 25.320371227991878 0 -1 0
512 1 9.12192813438439 47.71213302827901 0.07663703954871261 0 0 0
222 1 1.7580109548764389 42.71384701138081 1.4889261177691226 0 0 0
478 1 8.112316831500522 42.865730347258335 1.561293271491725 0 0 0
226 1 0.15481598307157976 47.77762074231312 21.927955422148777 0 0 0
734 1 14.13722894354929 43.14366121238278 1.4160777461456782 0 0 0
162 1 0.18027366062783481 34.950490269840685 22.105251135525346 0 0 0
253 1 4.643686528505976 46.08974193783018 1.6853959425349148 0 0 0
509 1 11.086214865303724 46.31196675187728 1.8348247271977989 0 0 0
765 1 17.418047826787934 46.6001759015782 1.7082779979970102 0 0 0
23 1 -0.004501640612255373 50.75769677193037 6.756309517838333 0 -1 0
254 1 1.5619004403973389 49.18586588699594 1.5845605505440468 0 0 0
510 1 7.659212075303019 49.243715740317015 1.8441798422011462 0 0 0
1184 1 10.029508323073866 28.641039445210428 25.162454567874764 0 0 0
766 1 14.197116763139828 49.78521708593583 1.8297559714196752 0 0 0
537 1 15.628300946280532 0.48992917165834593 3.249365395351136 0 0 0
27 1 1.510267715928287 1.4978335600206658 5.018532973157462 0 0 0
283 1 7.652933304369836 1.4368376933685791 4.6512756130518085 0 0 0
280 1 8.848594354394656 3.125498937815016 6.26407725993123 0 0 0
281 1 9.231670648756303 0.006784789978896873 3.108915853383579 0 0 0
539 1 13.960443280912214 1.996814008872903 4.919434991560986 0 0 0
7 1 -0.03231217726697366 0.01318556673554383 18.97594751530581 0 0 0
28 1 4.580816694413158 4.5446198206027075 4.939914994237681 0 0 0
313 1 9.4916729345389 6.462285300908842 3.276515943545528 0 0 0
284 1 10.727470694947986 4.795495866984847 4.973212310180943 0 0 0
540 1 17.405343063945356 4.924304848304793 4.800949436689897 0 0 0
536 1 15.699391880142318 3.5269957651165518 6.306785109361425 0 0 0
57 1 3.1096715326372286 6.186787972061614 3.212522166648669 0 0 0
59 1 1.6399236741815408 7.743754760075708 4.774872626602638 0 0 0
315 1 7.893574601257862 7.770601481820568 5.0830758533396985 0 0 0
570 1 13.248939013170528 9.911008544618436 3.612350209670653 0 0 0
571 1 13.75222488105592 7.800390342215342 5.157664119871677 0 0 0
247 1 -0.026638793829131646 44.69345953763259 6.405033347227442 0 0 0
89 1 2.92288599098272 12.555002531870427 3.207765264673586 0 0 0
60 1 4.73498748779548 10.870097385885709 4.691102879338941 0 0 0
345 1 9.468464099848442 12.484819668618004 3.1957583148640945 0 0 0
316 1 11.370708858009046 11.302842180352847 4.92200548801153 0 0 0
114 1 0.1010440212713773 21.955391797353197 9.626377242295506 0 0 0
572 1 16.97250953216455 11.049565621037432 4.855069127896298 0 0 0
91 1 1.4480436605682427 14.065594847549354 4.802012166107002 0 0 0
347 1 7.683264258224184 14.20675836534596 4.84852394701713 0 0 0
602 1 12.61064901470535 16.474592634017878 3.0704420599202056 0 0 0
603 1 13.976357506564957 14.659291498060195 4.764701121885688 0 0 0
600 1 15.721425989476586 15.979781994150116 6.405991656861888 0 0 0
138 1 0.30491090691205613 28.499956166955663 16.025543333393948 0 0 0
92 1 4.305585156722792 17.343256166947384 5.070946682648041 0 0 0
375 1 6.122157299665009 19.13595673097897 6.418417543925893 0 0 0
348 1 10.948421459923768 17.700985829418755 4.62316941996363 0 0 0
604 1 17.790173581834438 17.37087445976877 4.9114118051941125 0 0 0
123 1 1.6681330553726985 20.606441891583476 4.805651695981713 0 0 0
378 1 6.481361074229806 21.836462634190468 2.9075800747666665 0 0 0
379 1 7.721458662740633 20.6857172464836 4.8283747722655805 0 0 0
377 1 9.343049149896647 19.13129436858915 2.982244519472625 0 0 0
635 1 14.453102472086846 20.853057237183716 5.009910612226793 0 0 0
484 1 10.96431925140796 48.973881964667754 24.05640173645907 0 0 0
1536 1 15.61218034389783 47.511324237091586 25.4245438243361 0 0 0
124 1 4.94079085840843 23.770621334289032 4.331660261986138 0 0 0
407 1 6.5169731962455355 24.920861527052928 6.18051793827804 0 0 0
634 1 12.819093374976836 22.228413902681858 3.3155543564595806 0 0 0
380 1 10.978184431128705 23.74244601053928 4.4402956021840465 0 0 0
632 1 16.338658307013223 22.061572283876384 6.375547256704982 0 0 0
636 1 17.437896192649607 24.096478398159295 4.532155799037468 0 0 0
153 1 3.285081073163632 25.534206354083818 3.1129763743104624 0 0 0
155 1 1.6246294425891863 27.173009541806234 4.949699089099163 0 0 0
411 1 7.985346979292995 26.470426405345158 4.956122300335381 0 0 0
409 1 9.724100165767249 25.29714003399644 2.550389641758538 0 0 0
667 1 14.45793382452925 27.307782131955904 4.849834158357108 0 0 0
664 1 16.373435802970803 28.983701066100508 6.359828811599156 0 0 0
122 1 0.10644599183419245 22.332785373245688 3.1575466473372624 0 0 0
156 1 4.930925062528911 30.031657799865282 4.543914004249669 0 0 0
152 1 3.417440470740169 28.676441949091384 6.167894088748558 0 0 0
412 1 11.46729379635542 29.95052833661421 4.813526968563484 0 0 0
668 1 17.61512756554204 30.676930210351834 4.429502343631982 0 0 0
187 1 1.8920520872682516 33.5599280873942 4.46864968592311 0 0 0
185 1 3.2837321326222395 31.540402015838804 3.061167242031435 0 0 0
439 1 6.305107300738369 31.776101901864447 6.203103056902478 0 0 0
442 1 6.542942463641502 34.757619837327525 2.7453050023319485 0 0 0
443 1 8.054842610875728 33.44156622499368 4.708815303099214 0 0 0
695 1 12.920206600402677 31.730327170080226 6.6758591673218906 0 0 0
699 1 14.168746155882735 33.61226612909675 5.013628801369483 0 0 0
697 1 15.536815115863236 32.22406662770683 2.9268633526616847 0 0 0
217 1 3.035727373273937 37.6581327253495 3.1847697695879162 0 0 0
188 1 5.082021124993007 36.369713695114626 4.677663545634267 0 0 0
473 1 9.418448213338323 38.259946564360135 2.8387000186688467 0 0 0
440 1 9.640483453453207 35.072469885341306 6.119039596269477 0 0 0
444 1 10.940557198736457 36.85578641955975 4.4913833197264355 0 0 0
698 1 12.348696595322734 34.81157202567668 3.0779383272052923 0 0 0
700 1 17.066900785384544 36.8780647878683 4.641590215936461 0 0 0
219 1 1.6720739453436502 39.03294154176392 4.989737574822897 0 0 0
216 1 2.8483204780946014 40.91205844789273 6.604406314874212 0 0 0
474 1 6.042494578758837 41.41074310513618 2.990510712003015 0 0 0
475 1 7.740011821875051 39.731087880453785 4.42675912895631 0 0 0
730 1 12.40402926525902 41.427443141918275 2.617301547374478 0 0 0
731 1 13.91542470232097 40.15127906362247 4.852335898241348 0 0 0
729 1 15.584351166780843 38.69417609011684 3.016703325823513 0 0 0
1120 1 9.661766491564348 15.366982884884566 25.320272241156697 0 0 0
249 1 3.124674733950278 44.34556767145014 3.112920154208918 0 0 0
220 1 4.600491871448541 42.90985207611013 4.949986369255867 0 0 0
505 1 9.252742271825841 44.776892420724536 3.2859739739464833 0 0 0
503 1 6.060757338955235 44.31493712791463 6.465645818802791 0 0 0
476 1 10.865198731084705 42.88190199246367 4.375981933026385 0 0 0
761 1 15.631446160144742 44.77293995288083 3.0266451678622017 0 0 0
732 1 17.328394540896426 43.32948661889236 4.573988665752283 0 0 0
251 1 1.3097563109927848 45.95960080441783 4.597419607047485 0 0 0
228 1 4.762135446475007 49.54965765453397 23.789052697239185 0 0 0
506 1 5.87886511232465 47.7642771402772 3.3081058207959764 0 0 0
507 1 7.570429468238982 46.16041754141578 5.194746427284834 0 0 0
504 1 9.561201531735854 47.535460539097215 6.763036099791015 0 0 0
759 1 12.491645061930654 43.960181041177236 6.221594014843638 0 0 0
762 1 12.673645640717483 48.00630911531144 3.322278823210736 0 0 0
763 1 14.14134142076952 46.11598030757864 4.8134650323254435 0 0 0
864 1 3.2303117233339136 15.446410530424265 24.81142011242797 0 0 0
737 1 16.06084745728785 44.36348405418279 22.30750280287831 0 0 0
25 1 2.9034518372174123 0.05359941749740926 2.9182604031222685 0 0 0
252 1 4.339441597281259 49.502209459286334 4.982293933144821 0 0 0
279 1 6.397846273097958 50.71636076267205 6.543923055053268 0 -1 0
508 1 11.09664207312948 49.55314985909612 4.967128342460123 0 0 0
535 1 12.416923829956865 0.20109936505347836 6.478650498852103 0 0 0
764 1 17.426814274528542 49.70291465945472 4.557511557125765 0 0 0
767 1 12.47568040240077 44.76968989464976 0.05751397027993019 0 0 0
24 1 3.3126540822027972 2.9650022982713478 6.615238031456126 0 0 0
21 1 4.912856588298602 1.346688420260251 8.209439112157256 0 0 0
277 1 10.698308669622243 1.8322720914857396 7.920918305514087 0 0 0
533 1 17.02818493566705 1.665540094795135 7.645576844389012 0 0 0
22 1 1.796407664519929 4.7181889224522315 8.188124165989453 0 0 0
278 1 7.685083358769635 4.856450119163547 7.712348475474137 0 0 0
534 1 14.299634318957313 4.747728810299437 8.086207772441504 0 0 0
567 1 12.392761079005993 6.252524082841691 6.7459906349743815 0 0 0
53 1 4.513688970567308 8.030793627732505 8.337924952971065 0 0 0
311 1 5.866213526354909 6.5452448832948225 6.392569871592443 0 0 0
312 1 9.605629578026495 9.60141970885558 6.6516936084118825 0 0 0
309 1 11.044338404106712 7.898643433052293 8.210581746427058 0 0 0
568 1 15.36805420533604 9.461406081487722 6.547402206244418 0 0 0
565 1 17.39667979700022 8.193889180449972 7.974473519621766 0 0 0
54 1 1.5788838567927668 11.155569290900422 7.932736352990509 0 0 0
81 1 3.1769724529189536 12.666866958054731 9.806149114835735 0 0 0
56 1 3.200508405997633 9.454992332693196 6.1886071781365315 0 0 0
343 1 6.054841741845709 12.589378027054805 6.322165252782168 0 0 0
310 1 7.5624265532994945 10.827119221764836 7.991636427634971 0 0 0
599 1 12.897425024752522 13.01567023751999 6.554211245285939 0 0 0
566 1 13.978130919459979 11.040324663644366 8.411494519970045 0 0 0
85 1 4.605902066478118 14.05117308487042 8.14868308611982 0 0 0
341 1 10.513416764368479 13.921007195436186 8.060670383991766 0 0 0
597 1 17.34715921194387 14.30479144891733 7.694983997812578 0 0 0
88 1 2.868023964601957 15.584396467874514 6.444311628870182 0 0 0
86 1 1.4710453211105898 17.289952644118173 8.066473665066233 0 0 0
113 1 3.1423296423819735 18.71732018529415 9.658248282079432 0 0 0
342 1 7.787861314651154 17.58575252955892 7.7070406176682695 0 0 0
344 1 9.420878215714087 15.837740772446756 6.370897938796285 0 0 0
598 1 14.250548783583497 17.130486775349826 8.12035581961304 0 0 0
594 1 12.528757562163351 15.492115861679443 9.641683852216648 0 0 0
117 1 4.478216449374997 20.47870630659303 7.9738792257782425 0 0 0
120 1 3.4491052908149236 22.112531970611542 6.347718090287167 0 0 0
370 1 6.531308399660181 21.86981288643581 9.322001376775484 0 0 0
373 1 11.476769928426284 20.389387557464648 7.6608656830188355 0 0 0
631 1 13.133525114768906 18.82223408136628 6.321059547047345 0 0 0
625 1 16.05481661991751 18.928870192429912 9.6344175684246 0 0 0
629 1 17.74054865906216 20.598430739486165 8.043285864132198 0 0 0
739 1 14.095865365298112 45.62671765651622 23.762347640966585 0 0 0
481 1 9.64054466336324 44.77570721220145 22.71605681377857 0 0 0
118 1 1.4716771773654362 23.74854101590503 7.715339717362637 0 0 0
374 1 8.187646816433846 23.63424957180251 7.990002985504502 0 0 0
376 1 9.657050177784045 22.09688798041156 6.263680454499771 0 0 0
401 1 9.368717064454746 25.313057843719275 9.665256552658258 0 0 0
626 1 12.766556396777263 22.101745652082382 9.239522613980341 0 0 0
630 1 14.617304796257487 23.657637780024732 7.660705677879746 0 0 0
151 1 0.011468806077033378 25.69906080873837 6.50619409030202 0 0 0
1343 1 13.01489602847501 6.026763950480367 25.165094643545043 0 0 0
149 1 4.956446464804764 26.82977646847244 7.553163967380089 0 0 0
663 1 12.962388423801265 25.321779672362347 6.151067229508072 0 0 0
405 1 11.37237579196412 26.645391320564897 8.118495332765981 0 0 0
657 1 15.925534037707017 25.616054060273154 9.462423491220807 0 0 0
661 1 17.716374380867826 27.04372898651499 7.489255945739567 0 0 0
150 1 1.7996504025082254 30.265439146695822 8.070727823739906 0 0 0
406 1 8.168409555844146 30.172511382291365 7.688551746355446 0 0 0
433 1 9.383444734677783 32.06149274715442 9.26809029891995 0 0 0
408 1 9.740865505803214 28.395458563169736 6.240468427234449 0 0 0
662 1 14.713267518438787 30.03255350360184 8.00473239119448 0 0 0
689 1 16.11745394020451 31.992002874994487 9.221820116019723 0 0 0
181 1 4.757748843862771 33.49739560928337 7.83639285111662 0 0 0
437 1 11.243825695798952 33.54799975145728 7.965070604203426 0 0 0
696 1 15.675464937819347 35.21278532489636 6.449805344775429 0 0 0
693 1 17.709056954677173 33.88508554636422 7.728691154687599 0 0 0
184 1 3.1700450766291803 35.02980679372321 6.427973909117976 0 0 0
182 1 1.4637716854589333 36.27096039523441 8.076166255220917 0 0 0
438 1 7.962923889703111 36.99522868057606 7.805852878780083 0 0 0
694 1 13.99407295438338 36.72031985557287 8.050614928381448 0 0 0
482 1 6.20888382688988 48.013182819645664 22.103252825360318 0 0 0
209 1 2.7983342993127964 38.428395401224535 9.475383917770426 0 0 0
471 1 6.127225149604759 38.124263151908025 6.2683139105010515 0 0 0
213 1 4.925021036102461 39.92567884139804 8.183569014239774 0 0 0
465 1 9.259354868044994 38.165425992296264 9.947561944983994 0 0 0
469 1 10.95234899616674 39.57459580057436 8.09747827324184 0 0 0
472 1 9.301459239703268 41.26462471860067 6.227674908750197 0 0 0
727 1 12.572001734389856 38.22899674596306 6.308515521873209 0 0 0
725 1 17.36250665226584 39.96083396782534 7.675312997412394 0 0 0
214 1 1.9061658575671927 43.00418143007197 7.975320989873564 0 0 0
241 1 3.3153290442977137 44.418031351558824 10.02265438378729 0 0 0
470 1 8.080806919909511 42.784306367332974 7.751785411470082 0 0 0
497 1 9.119472588006504 44.41270568852144 9.53760029331671 0 0 0
726 1 13.99216915178878 42.64318027995746 8.107255147606246 0 0 0
722 1 12.171969644228076 41.21020286499083 9.863089549528327 0 0 0
768 1 15.896157863967472 48.09534743526521 0.29760629645221315 0 0 0
728 1 15.791216390514476 41.72998645984153 6.056303255755434 0 0 0
248 1 2.9142773403202544 47.68405012884088 6.645191521706743 0 0 0
245 1 4.542847642499085 45.97563875701783 8.017037674187295 0 0 0
498 1 6.388539080041084 47.37697657294099 9.673148413073488 0 0 0
501 1 11.05184881598822 45.77491370085913 8.069099062899367 0 0 0
757 1 17.131585703840575 46.1359731757821 7.938189364820539 0 0 0
246 1 1.543893832604032 49.166192505389105 8.315302039711314 0 0 0
502 1 7.973177060179621 49.345248373414236 8.189507892654278 0 0 0
273 1 9.577453319601695 50.90989881581941 9.61361175796548 0 -1 0
760 1 15.952478038915359 47.70073101550149 6.346006910827808 0 0 0
758 1 14.005328887053569 49.301831503791135 7.808150219073977 0 0 0
754 1 12.373304330116213 47.8658065293282 9.501101587441012 0 0 0
483 1 7.708612734257933 46.326417678401626 24.037161707856555 0 0 0
19 1 1.5252775011339652 1.4391634851212687 10.873440149035119 0 0 0
17 1 3.1586167158272924 50.80960387781002 9.69392509290413 0 -1 0
274 1 6.299340536402761 3.353896236025473 9.73260824380875 0 0 0
275 1 7.723813481261672 1.5012356222281482 11.381883854742924 0 0 0
272 1 9.267374682691248 3.120764769661772 12.989934019765085 0 0 0
530 1 12.658044157938246 3.243628169743925 9.440117246335166 0 0 0
529 1 15.58574466984894 -0.01404253077216578 9.257508242834877 0 0 0
531 1 14.174829842914857 1.5400835603421725 10.870688980760374 0 0 0
49 1 2.9837305450029596 6.543072029075104 9.803738508055265 0 0 0
20 1 4.4917962006742576 4.703663063997247 11.282773682268667 0 0 0
303 1 5.997591239362305 6.309261217501434 13.031325577663324 0 0 0
305 1 9.259600217276947 6.150338844499752 9.82962847489571 0 0 0
276 1 10.966365563395833 4.500633272315252 11.252606095175059 0 0 0
528 1 15.973872437426074 3.0288251067852525 12.639962521297932 0 0 0
532 1 17.27333288171383 5.03148646856169 11.16802789671108 0 0 0
51 1 1.636810230436838 7.83686395168645 11.663513464363904 0 0 0
306 1 6.124881849908677 9.674655486560024 9.869124445974359 0 0 0
307 1 7.76763516660585 8.115119045705558 11.587682824245363 0 0 0
562 1 12.63695817740653 9.297866130772846 9.94957669068063 0 0 0
561 1 15.758268453285645 6.694177544215686 9.522064323054082 0 0 0
563 1 13.932111796464934 7.920072036365101 11.460854357829605 0 0 0
559 1 12.555878463348686 6.080374310800916 13.14034670006924 0 0 0
1375 1 12.529539760901285 12.520679751110253 25.160987215513792 0 0 0
52 1 4.758672239128813 11.197941879797776 11.545949817665038 0 0 0
337 1 9.10985316461507 12.21938316431229 9.750021046133636 0 0 0
308 1 11.054185580109847 11.01391737743053 11.440534267514185 0 0 0
593 1 15.963330099057671 12.729464988387715 9.493100345149804 0 0 0
564 1 17.416295788507878 11.120786522032908 11.23056294400083 0 0 0
560 1 15.735940133981634 9.637251011416208 12.882628346528481 0 0 0
83 1 1.3968121661935362 14.477793060495772 11.292678946603205 0 0 0
339 1 8.020156709664882 14.184504987478618 10.992069024137702 0 0 0
595 1 14.594242563903704 14.294474757868477 11.240191770137915 0 0 0
84 1 4.852483960722676 17.31690790398944 11.094498989440215 0 0 0
338 1 6.267269569135764 15.777559209309846 9.374051261551944 0 0 0
369 1 9.553880593661958 19.103320181995684 9.174357622715638 0 0 0
367 1 6.829245055941113 18.802594338052405 12.419713921572178 0 0 0
336 1 9.566535026594556 15.938800575038023 12.710140740114424 0 0 0
340 1 11.15625762684456 17.724306905270065 10.956649002607918 0 0 0
623 1 12.578947451112532 19.232705881652226 12.64975013063329 0 0 0
592 1 15.752454196390248 16.24463879749328 12.75012816286318 0 0 0
596 1 17.66965410360612 17.744269179636518 11.224483133197488 0 0 0
115 1 1.5701430900965345 20.189628056580677 11.202740587078347 0 0 0
371 1 8.293819477885837 20.43134368240689 10.92969209586261 0 0 0
627 1 14.118936955488094 20.81819313586759 11.096990445230382 0 0 0
624 1 15.912029876164633 22.27604342969049 12.94652051103828 0 0 0
116 1 4.801411882791069 23.36438826325757 11.176451546206742 0 0 0
372 1 11.109209358793679 23.771656660355852 10.976626512165154 0 0 0
655 1 12.802600641943608 25.384278371741456 12.618617244495328 0 0 0
628 1 17.219572336636155 23.665739815491246 11.183790169552557 0 0 0
231 1 0.35061758413016747 44.648376755657466 18.728719611821923 0 0 0
145 1 3.4555660206203176 24.94698721121513 9.581508605657133 0 0 0
147 1 1.6997508434983126 26.767673755120693 10.84105612882916 0 0 0
402 1 6.495084632562331 28.55836925519964 8.986248390777261 0 0 0
403 1 7.367083257060321 27.00533696447111 11.076826484191079 0 0 0
659 1 14.428769082150819 27.25229572273522 11.257716637058646 0 0 0
148 1 4.952196247798991 30.121897994556402 10.958585053803882 0 0 0
431 1 6.158494880122827 31.746462885507764 12.694523255540727 0 0 0
658 1 12.875242570891904 28.71630474861163 9.3086759966524 0 0 0
404 1 10.735353524712187 30.19082426573598 10.818320063519948 0 0 0
660 1 17.565614544139912 30.316784737213286 10.885189919986818 0 0 0
179 1 1.4067426488901245 33.576117714064594 11.461901837513793 0 0 0
177 1 3.1959868722930045 32.142253328958134 9.440337084840294 0 0 0
435 1 7.705962500690949 33.36628548611304 10.997010455532692 0 0 0
432 1 9.660367595731943 34.78463015293822 12.570768082774869 0 0 0
691 1 14.163083196403031 33.07816320744047 11.078795929917321 0 0 0
687 1 12.513796482269534 31.489733827684535 12.533016576025135 0 0 0
227 1 1.5555056642102778 46.29177011884555 23.77563659782515 0 0 0
434 1 6.387844714854102 35.08388231300867 9.045054518380786 0 0 0
180 1 4.719394251714297 36.5340873445101 10.978296472904118 0 0 0
176 1 3.028050287334163 35.22966282502965 12.724235717815725 0 0 0
463 1 6.203261137633938 38.0851976305178 12.721737409941811 0 0 0
690 1 12.692875217753851 34.90036010913376 9.781408021727968 0 0 0
436 1 11.167518665487151 36.66503223729228 11.208502758970546 0 0 0
692 1 17.406968135871885 36.65904570133358 10.871579073356823 0 0 0
688 1 15.844639719022545 34.82614031675445 12.329202499996246 0 0 0
211 1 1.5954812633239004 40.23969779742848 11.098312107286924 0 0 0
466 1 6.400180317981658 41.53816322848408 9.675953498459773 0 0 0
467 1 7.5767647285253625 39.893395947899734 11.178642099300442 0 0 0
723 1 14.195542127058122 39.83092369086185 10.972497324272245 0 0 0
721 1 15.943999286895185 38.2303441415614 9.298175640861535 0 0 0
212 1 4.962981333370179 43.05272436027897 11.620100396924553 0 0 0
468 1 10.83290944204722 43.08630629553414 11.425936913002356 0 0 0
464 1 9.105420185694381 41.31586640461617 12.780419528779841 0 0 0
724 1 17.60348162703904 42.81535276717628 11.20832943362512 0 0 0
243 1 1.6856389705516464 46.036102393534904 11.475822089661861 0 0 0
495 1 6.409303824094353 44.4646531397986 13.271143766352106 0 0 0
499 1 7.742928807710192 45.87458924347614 11.482205958376875 0 0 0
753 1 15.785304603437384 44.42885761451437 9.690997427377479 0 0 0
755 1 14.100210105693252 45.89489185708693 11.268031993491935 0 0 0
244 1 4.752101697380845 49.0526414231086 11.08872706517639 0 0 0
240 1 3.2612463151329254 47.86977226888554 13.180851942528493 0 0 0
271 1 6.400604227745518 50.696666598120856 12.773681489633027 0 -1 0
500 1 10.865786539603436 49.21072005426129 11.497166525651753 0 0 0
756 1 16.928314941619156 49.32275395398615 10.999778748749247 0 0 0
752 1 15.632245723667381 47.50275457017439 12.642426937988995 0 0 0
9 1 3.129608510049772 0.1995650604731066 16.108963395740655 0 0 0
13 1 4.836822850340211 1.3218338648476224 14.549430043059754 0 0 0
269 1 11.033417270539214 1.6060108354436056 14.438833492012547 0 0 0
527 1 12.49211610213857 0.08567398619403832 12.857084607261632 0 0 0
521 1 16.094254543609452 50.37931397335676 15.69304337575645 0 -1 0
525 1 17.22898585389492 1.5288086267061818 14.193215075105808 0 0 0
708 1 17.75250091786389 42.7396222628517 24.09735633786226 0 0 0
452 1 11.16519020041729 42.92708812759372 24.007358357740795 0 0 0
16 1 3.2414508863254965 2.9597719342098374 12.961278880813047 0 0 0
14 1 1.5687969591993773 4.451583040735255 14.485194342552735 0 0 0
270 1 7.563699103545231 4.57215801207304 14.534234546358945 0 0 0
526 1 14.445473142105033 4.570666463702004 14.446831883459982 0 0 0
1546 1 19.065667087421918 2.891820367268302 15.661289031401731 0 0 0
45 1 4.685997782153185 7.715715084213437 14.598566755363734 0 0 0
301 1 11.314305831744793 7.426138291374502 15.05346429408551 0 0 0
304 1 9.754554704804377 9.1175596840567 13.205195509749071 0 0 0
553 1 15.980768877165076 6.4479913298811535 15.915084669860624 0 0 0
557 1 17.569002712253642 7.791746001131935 14.28489211021899 0 0 0
46 1 1.6498059191186727 11.11071019840817 14.751354829132941 0 0 0
48 1 3.1285719132167524 9.591292270989387 13.316803656991029 0 0 0
302 1 7.9042358421596335 11.020719910944813 14.747339392793512 0 0 0
591 1 12.395790288414132 13.047789348888891 12.677045070157718 0 0 0
329 1 9.508804164029147 12.62660591954084 16.36458352749024 0 0 0
558 1 14.071762411977979 11.516190770787068 14.36927683243597 0 0 0
73 1 3.1200177749243445 12.67870028964266 16.368055781609844 0 0 0
335 1 6.611766666573085 12.801438729977635 12.755184798690749 0 0 0
77 1 4.350122253172664 14.099316294954019 14.223765694250911 0 0 0
333 1 10.880765495262096 14.350507949485689 14.35770904767059 0 0 0
589 1 17.365651403277045 14.441988543243387 14.073365966057223 0 0 0
78 1 1.3777625741354027 17.25947067570589 14.387520648841113 0 0 0
80 1 3.1379390983839994 15.937877513197764 12.624833806245832 0 0 0
334 1 8.13120463552269 17.069377524583697 14.54390484006665 0 0 0
586 1 12.723245514125944 16.018575038930802 15.774093672837566 0 0 0
590 1 14.209261522391316 17.805530774366897 14.466175590085408 0 0 0
112 1 3.194550614715164 21.681717322895903 12.754165802248972 0 0 0
105 1 2.9346156247642217 19.161883156984658 15.652234266205049 0 0 0
109 1 5.04007692323072 20.240688951628144 14.044397039884567 0 0 0
368 1 9.735988862472825 22.009433525335314 12.770986580433371 0 0 0
361 1 9.556856960061722 18.74424691456846 15.996036113978544 0 0 0
365 1 10.965244243221422 20.799910496131226 14.719549726613115 0 0 0
618 1 12.640089237331214 22.404039724020134 16.05057795682774 0 0 0
621 1 17.379924171163555 20.655509854745674 14.249953003500242 0 0 0
110 1 1.5804008694750893 23.624491852656753 14.167119498737035 0 0 0
137 1 3.2913939848329807 25.320290058483025 15.83134830228259 0 0 0
399 1 6.405488790872093 24.94056546201079 12.744791909107569 0 0 0
366 1 8.165458029704507 23.411056635287245 14.288995323234865 0 0 0
622 1 14.400298511710744 24.02697643897899 14.33115240416937 0 0 0
649 1 15.680382091920064 25.56805434134328 15.920354600560094 0 0 0
141 1 4.856950379828017 26.894550649470084 14.258989265846832 0 0 0
394 1 6.11354972527325 28.71912329757229 15.622178952977015 0 0 0
400 1 9.204783939178963 28.474009052343572 12.475520353137709 0 0 0
397 1 10.992270128037015 27.06153623382018 14.269586415842753 0 0 0
656 1 16.01157030038138 28.84017807271532 12.694568472905246 0 0 0
653 1 17.273280946545647 27.13002188296071 14.334945400085665 0 0 0
142 1 1.5416305602629352 30.106174018927675 14.495803000756714 0 0 0
144 1 3.169901980711456 28.385167495086446 12.653508376088416 0 0 0
398 1 7.720083656183301 30.215072243723856 14.151850865811076 0 0 0