LAMMPS data file via write_data, version 29 Oct 2020, timestep = 100000

8521 atoms
1 atom types

-0.252897567266011 104.6506550860922 xlo xhi
-0.20003759760433582 51.19536835192 ylo yhi
-0.20003759760433582 51.19536835192 zlo zhi

Masses

1 18.015

Atoms # atomic

769 1 -0.14407026425061997 1.4029955168978727 2.0790175557530484 0 0 0
2061 1 1.2432611059577239 3.2126212650373156 0.2727145919853549 0 0 1
2133 1 5.8635189759431166 1.120563829951742 1.6111660886648778 0 0 0
2063 1 7.368396893129803 3.1777705440065716 0.42002211866054495 0 0 1
1906 1 12.418509603909106 1.2923648410065698 1.802848512764891 0 0 0
763 1 18.41128340034717 1.8867065314618756 2.2322162590933012 0 0 0
2692 1 20.2378910188273 3.1824481045461526 0.4758184433356366 0 0 1
843 1 25.33863936986815 1.3651437058527909 2.3660864029738637 0 0 0
2694 1 27.023920666753497 2.9560673091151113 0.4099836251015557 0 0 1
1380 1 31.936007163479566 1.0573142891291138 2.2999292303053385 0 0 0
2695 1 33.2044172490101 3.2000235312232785 0.44814161386201223 0 0 1
767 1 2.9290365424292752 4.785529992269954 2.401713375806712 0 0 0
2068 1 4.396802443316226 6.08401679259531 0.4621240483842167 0 0 1
716 1 9.075209737061165 4.654782340591924 2.1233734355397718 0 0 0
2066 1 13.8545173854103 3.340210494213532 0.4402377146879741 0 0 1
678 1 15.388103122091776 5.042627486035762 2.2357837205698337 0 0 0
2073 1 17.082171148956668 6.243479696615793 0.2263784267581454 0 0 1
2756 1 21.861194931813213 5.039149179923394 1.7489181443122177 0 0 0
2697 1 23.874861905084714 6.162330141755968 0.4698217207323009 0 0 1
1382 1 28.650412144768744 4.900816317592145 2.0684270617162688 0 0 0
651 1 -0.16295048195916872 7.684441057622414 2.5871501704720643 0 0 0
1476 1 6.273333844670956 7.906929111366619 1.42824049372676 0 0 0
2070 1 10.569756090184423 6.348769594650153 0.474311110303282 0 0 1
762 1 12.191002339399766 8.307211340188008 2.113665808733827 0 0 0
2143 1 18.642478732762395 8.107167665907399 1.6488502494331028 0 0 0
861 1 25.090597865065817 7.987961334108835 2.3017017782330345 0 0 0
2700 1 30.120805093590967 6.51069212522701 0.28098696476414076 0 0 1
1093 1 31.707797836105584 8.048954641186894 2.073099297342039 0 0 0
2075 1 1.2676030639658153 9.329288187923124 0.42892633029397575 0 0 1
613 1 2.966889349576109 10.94143443960202 2.1537616203348438 0 0 0
2077 1 7.824952942823874 10.215512763353486 0.3821208117412771 0 0 1
45 1 9.32217133341282 11.354326445506413 2.517337994147902 0 0 0
2078 1 14.015432283384488 9.87274202749183 0.1947977814114406 0 0 1
688 1 15.67900016726934 11.246381491285739 2.168067661635581 0 0 0
2566 1 21.875257744747294 11.399014904191937 1.5050659056521178 0 0 0
2702 1 20.35115220608088 9.609279030327246 -0.04509501728895715 0 0 1
2703 1 26.85438235390579 9.562861253764412 0.34811737128984876 0 0 1
2156 1 28.61967139143432 11.434569510672805 1.6180127321105298 0 0 0
2706 1 33.01162706593901 9.751755198253774 0.21458423045722452 0 0 1
2138 1 -0.15204649469901194 14.110838426249458 1.8059046181482667 0 0 0
48 1 5.963974349479455 14.46894421706517 2.231633007526633 0 0 0
2082 1 4.238109310948299 12.843778913132756 0.4118543770052221 0 0 1
2084 1 10.898510721753233 13.049816242923475 0.2836354766430144 0 0 1
34 1 12.453141515833552 14.493726898655334 2.1127654104552183 0 0 0
2087 1 17.421649367165596 12.56371001125372 0.18945898347543205 0 0 1
2140 1 18.81329343641284 14.448265618663537 1.76786662910291 0 0 0
2753 1 25.07403786105899 14.679502989247293 1.6280449908740664 0 0 0
2709 1 23.50088784800774 13.044676386741633 0.1043965344259622 0 0 1
2711 1 30.444465746149145 12.886321232834048 0.19491583334273138 0 0 1
2175 1 31.503114068314478 14.52617034688077 1.702118475099052 0 0 0
1414 1 2.6299649341693425 17.865367892718286 1.575367856161218 0 0 0
2088 1 1.2332103603567797 15.788994728135453 0.08310452905720406 0 0 1
2091 1 7.8989255442724176 15.84147161079279 0.621105697790054 0 0 1
722 1 9.213756133761274 17.882217500352642 2.393758910271076 0 0 0
2142 1 15.546689305947002 17.569932094371218 1.6523648081340865 0 0 0
2093 1 14.150875465410115 15.851607488690657 0.010604345851831926 0 0 1
2713 1 20.632543471318655 15.934422714752827 0.15751931796784968 0 0 1
2225 1 22.031476079709236 17.803191557764816 1.6368369370785198 0 0 0
2714 1 27.044128152916084 15.96683618267074 0.23401370345016154 0 0 1
2739 1 28.334973713393016 17.780528456372334 1.8044677299235015 0 0 0
2717 1 33.39562700012248 15.868796236450574 0.1948342524221865 0 0 1
6733 1 -0.05926883757247067 30.96469236109122 5.660870212284906 1 0 0
2095 1 4.371804122292972 18.913309473629027 -0.11267997452946923 0 0 1
777 1 5.778042144922575 20.527592180936434 2.131840102497868 0 0 0
2096 1 10.961514266835463 19.32927162846039 0.22231659475660315 0 0 1
1655 1 12.497852109758806 20.825526361862956 1.7263807265301243 0 0 0
752 1 18.72284658865415 21.008893975420705 2.157635250798306 0 0 0
2099 1 17.36903694857679 19.193915220089803 0.4525775977773615 0 0 1
2168 1 24.928509861464466 20.6516495188633 1.7176074365103948 0 0 0
2719 1 23.23749586600651 19.226352500663044 0.09709617837345697 0 0 1
2720 1 29.68037019426037 19.074798346730137 -0.10455548656059427 0 0 1
2216 1 31.73629505794277 20.561760324608827 1.572157034391712 0 0 0
736 1 2.676185457662344 23.849037273922423 2.0540761221005033 0 0 0
2100 1 1.2562694711335547 22.4441152398572 0.25215675905115453 0 0 1
2104 1 7.458021413717103 22.1625832527167 0.15643599616155224 0 0 1
1774 1 9.452799362962065 23.61815860298564 1.5540574927004356 0 0 0
1856 1 15.392464107026726 23.94553076197933 1.7755896192658203 0 0 0
2105 1 14.09593589091902 22.32542257735788 0.09014177638891885 0 0 1
2722 1 20.40371917035667 22.569820331653858 0.3235408289857956 0 0 1
1383 1 22.136122316910413 24.039843886981807 2.0650683149582734 0 0 0
2725 1 26.4073283838266 22.491164610158105 0.30660358714869973 0 0 1
2745 1 28.553544137862673 23.903670158729167 1.6621243513102675 0 0 0
541 1 6.0444040298103845 26.672435964354953 2.2292420362108403 0 0 0
2108 1 4.720766159233313 25.294631203166784 -0.001348490776285266 0 0 1
2109 1 10.999651538550488 25.65627873318217 0.5838614879093095 0 0 1
1478 1 12.95936690072166 27.137761257258454 1.6576538618865877 0 0 0
2111 1 17.273520277592446 25.744127494489295 0.29153624698415015 0 0 1
2707 1 18.873541722804372 27.31043543191086 1.8302683131665116 0 0 0
2728 1 23.54040605086951 25.684288758595116 0.4016318641327522 0 0 1
2287 1 25.610083788862013 27.267465121241962 1.4640991358124702 0 0 0
2729 1 30.075262600216742 25.41056654900314 0.060195103895780366 0 0 1
2180 1 31.55716464708984 27.089257531338024 1.3595752441760849 0 0 0
740 1 2.786328494294056 30.04241725063438 2.048926500663962 0 0 0
2113 1 1.3528354946770527 28.601112463638017 -0.06660962535702539 0 0 1
2114 1 7.790558118965393 28.348876507944144 0.7715033258785328 0 0 1
780 1 9.225852267042928 30.30465985610118 2.69546187412251 0 0 0
2117 1 14.30629469923549 29.023597502287675 0.17022368845652225 0 0 1
2731 1 20.504549172022955 29.08317767377413 0.3889935325879631 0 0 1
2733 1 27.300807556407417 28.685980902853387 -0.02916747203442996 0 0 1
527 1 5.763029243918307 33.2956855699516 2.08636838501158 0 0 0
2119 1 4.205273388934972 31.689614310125965 0.1667197483188262 0 0 1
2112 1 10.62545761531888 31.988914401767495 0.3686260292789715 0 0 1
2107 1 16.005022785751873 30.987863603600804 1.8130969921520599 0 0 0
2101 1 17.565260385294287 32.04095480486259 0.08927618421221101 0 0 1
1189 1 22.022333073004546 30.550424035043896 2.217245815706291 0 0 0
2737 1 23.48153190272413 32.041755518970234 0.4159147352386158 0 0 1
2749 1 28.8001148045537 30.50269120749161 1.6308129783673182 0 0 0
2735 1 30.024881879251932 32.25451795199493 0.010312084928490811 0 0 1
2124 1 -0.14281600808998718 33.525143319666526 1.8157304119007551 0 0 0
1992 1 1.1477365353458835 35.28858858137543 0.15286799242522864 0 0 1
2092 1 7.509436334275215 35.23082302587588 0.2614353015910707 0 0 1
2123 1 12.475573752036343 33.90971370281449 1.507426589174971 0 0 0
1988 1 13.971952467175532 35.51169725378532 0.1028124274006954 0 0 1
776 1 18.6454553647641 33.87627117395552 2.0657160305996594 0 0 0
2723 1 20.486658313859294 35.31838802531756 0.3163046271906752 0 0 1
1119 1 25.328207714880115 33.60566099002836 2.177635838618245 0 0 0
2721 1 26.45733474859552 35.37796025012673 0.15417287090648696 0 0 1
2368 1 31.844374116545048 33.73580744057483 1.57447663611724 0 0 0
2698 1 33.261979079038625 35.370128347718264 -0.07913309066359948 0 0 1
1412 1 2.649026102840032 36.93732556181002 1.533897755099188 0 0 0
2018 1 4.029839672873315 38.73932528558445 -0.15934059392803607 0 0 1
1584 1 9.402437254376654 36.847787230809104 1.7621528846199956 0 0 0
1955 1 10.5712828193165 38.44459654037994 0.026304505731773814 0 0 1
1632 1 15.603736787518923 37.174472808925515 1.5994665351198973 0 0 0
1967 1 17.409859340171735 38.80029091871165 0.5448946929807641 0 0 1
805 1 22.08743839131026 36.98754455301735 2.1103218480526857 0 0 0
2590 1 23.64701029484399 38.94342658748824 0.5255685983794584 0 0 1
2746 1 28.37312907451039 36.58286366571726 1.7928668200980615 0 0 0
2712 1 30.059890031892493 38.34101533104024 0.2173558574855407 0 0 1
2116 1 1.1074262617228403 41.77783860927704 0.19346006369645063 0 0 1
1472 1 5.816595795158831 39.8239526980542 1.6229339458252683 0 0 0
2072 1 7.313457845035042 41.734474263973695 0.10302424523721321 0 0 1
1459 1 12.374068958608154 40.022854406031655 1.5358724780325712 0 0 0
2031 1 14.217479747159587 42.03663486426376 0.23686602857410383 0 0 1
755 1 18.75703639681422 40.50238265781621 2.3215750729006652 0 0 0
2718 1 20.577914771601435 41.93161340048865 0.5772760162935118 0 0 1
1387 1 25.388749111292373 40.65966797516112 2.26900485067166 0 0 0
2686 1 27.21984282073916 42.09008891315881 0.205007676232622 0 0 1
906 1 31.7624566473542 39.99459667890112 2.061948166435207 0 0 0
2596 1 33.22573271122745 41.63137842952704 0.3803611741002144 0 0 1
779 1 2.7242661303478655 42.816416429072085 2.106161762084664 0 0 0
1913 1 4.298689329228238 44.77152737968206 0.6111258697344898 0 0 1
1464 1 9.246740965436448 43.31284350005908 1.384252039512555 0 0 0
1768 1 10.890251889745262 45.23256200251579 0.02577321281250311 0 0 1
778 1 15.831344262204574 43.63588396069895 2.0660629821279675 0 0 0
1748 1 17.339521000756168 45.355406195132915 0.012334547735478485 0 0 1
2565 1 23.73583638043373 44.92097462644116 0.08056142805184835 0 0 1
2752 1 22.37226844260343 43.50506056173438 1.6085835387284084 0 0 0
2148 1 28.954596729105482 43.71243990506666 1.7236239578517032 0 0 0
1694 1 1.0199327368125823 47.87728764600932 0.002233367286942123 0 0 1
41 1 5.895113349870636 46.44209539877634 2.1402976553964064 0 0 0
1656 1 7.194024875833403 48.00704038111201 0.15341493378573784 0 0 1
193 1 12.21928587594199 46.62287323434242 2.1382942316500384 0 0 0
1611 1 13.92411694548278 48.15821129018513 0.5138349095086253 0 0 1
1227 1 18.994884460220774 46.59648061438393 2.1957682902499935 0 0 0
2478 1 20.6133884353194 47.97626495026738 0.6661623053075243 0 0 1
2615 1 25.357751548317403 46.74172205462161 1.832212338615029 0 0 0
2461 1 27.01800782916811 48.220756115735554 0.39700653578171174 0 0 1
2394 1 33.4783397038319 48.048619721714914 0.5954076421362869 0 0 1
2428 1 31.679737549056238 46.06765195301345 1.7608662441602874 0 0 0
766 1 2.500648991423125 49.1789399358563 2.0949760302734326 0 0 0
1547 1 3.7950655883513127 51.11233300297519 0.537012408709142 0 0 1
75 1 8.852485434243196 49.576764294349296 2.157491701503424 0 0 0
1498 1 10.48089911047481 51.11852442432142 0.461229908974345 0 0 1
276 1 15.653071113524703 49.96146964274562 2.3793206656875343 0 0 0
1433 1 17.377648889389366 50.844000022099266 0.3122384845240237 0 0 1
1384 1 22.190954039700202 49.830662266026444 2.3029242658576514 0 0 0
2347 1 24.02278334395231 51.18267723134632 0.26122999027348726 0 0 1
798 1 28.712529062408525 49.648359187875684 2.2538260542050086 0 0 0
2281 1 30.181609613562987 -0.0695330926392825 0.3478099847453625 0 1 1
187 1 2.6098154124711233 1.7328094674756498 5.01017074010173 0 0 0
1 1 4.581593878714247 2.9637422664897404 3.6679992705054945 0 0 0
93 1 8.962654914971818 1.6858127020592046 5.201567958158893 0 0 0
4 1 11.070598289955425 3.196465216047575 3.704472564816249 0 0 0
89 1 15.384172066514182 2.1708368146488706 5.3425639358409445 0 0 0
88 1 13.947419690405079 0.2625079835648908 3.9174313519247654 0 1 0
939 1 21.55614474011226 1.7757416221629307 5.058474547046441 0 0 0
782 1 23.200157676199698 3.1205243689743085 3.5203186152406434 0 0 0
860 1 28.90734878284324 1.6850633221572462 5.0169945567764955 0 0 0
784 1 30.432358681612317 3.1228862602701324 3.3208146649878105 0 0 0
7935 1 0.7540760125961876 22.143120909779828 22.93404476309125 2 1 -2
6 1 1.0614731262602126 6.101507592532286 4.195160203854789 0 0 0
7 1 6.004602026587465 4.946125848572375 5.219958413522026 0 0 0
10 1 12.217705488515863 5.325022014033798 5.243115991112871 0 0 0
5 1 16.907168452372133 3.615532334116032 3.8307160354978462 0 0 0
737 1 18.67173007680229 5.00485255373758 5.365385941553268 0 0 0
866 1 25.04895567645425 4.515135359606899 5.130724398707389 0 0 0
790 1 31.76002211983151 4.905906848793516 4.920034981156664 0 0 0
101 1 2.816837430241344 7.889859924497731 5.305577364157942 0 0 0
8 1 7.836362979418999 6.670381980993751 3.6544015683385966 0 0 0
97 1 9.22366877069523 8.166429108600983 5.369820116485614 0 0 0
9 1 13.640627108462976 6.749583492996765 3.5816006992344036 0 0 0
11 1 15.316153501111776 8.142346794088658 5.659635007090649 0 0 0
785 1 20.361944209638118 6.640475191875384 3.6202755259232786 0 0 0
873 1 22.267546143605376 8.209147589382685 5.301286173763005 0 0 0
788 1 26.71943137304998 6.3701776659218154 3.8071233003099003 0 0 0
789 1 28.285319361562692 8.059246366588598 5.18277437356525 0 0 0
791 1 33.324712732431735 6.483371784171092 3.6374939176804943 0 0 0
12 1 4.6899361838354965 9.28154657390519 3.760439247754118 0 0 0
18 1 6.142905946181609 10.745729524820586 5.277360099492256 0 0 0
14 1 11.0448003313813 10.061853744011767 4.465011149403794 0 0 0
104 1 12.995552941674413 11.628570021915378 5.706960985926426 0 0 0
15 1 17.059685970595854 9.726253654760283 3.9606622458504193 0 0 0
702 1 18.55142221817504 11.720037100785765 5.462496046172253 0 0 0
792 1 23.53023687956152 9.859429221358324 3.5297696564199947 0 0 0
793 1 25.203563661530783 11.13088157052936 5.157436031657708 0 0 0
794 1 30.037809638447406 9.843782834293963 3.535607210577103 0 0 0
799 1 31.655572426210792 11.607100891310257 5.07726839976095 0 0 0
16 1 1.3312828179287248 12.512307192365729 3.8360023925553124 0 0 0
107 1 2.629325177132416 14.282850783503932 5.3008019548877074 0 0 0
20 1 7.68588659246547 12.866421066678253 3.7019488465659753 0 0 0
109 1 9.200369639261975 14.21239486544107 5.288748290605822 0 0 0
21 1 14.315807150214848 13.065045889329589 3.5809125212330253 0 0 0
22 1 15.596701132732 14.67219614492228 5.362121382761242 0 0 0
795 1 20.396789103753992 13.078617821334683 3.4721659397886726 0 0 0
877 1 22.375684247096377 14.354954723792105 4.8400850502478034 0 0 0
797 1 26.59925093300852 12.647416563453083 3.422809001634682 0 0 0
880 1 28.128138236885455 14.651229906606364 5.030083526723724 0 0 0
800 1 33.18198781878816 13.148455544218983 3.5144760653041467 0 0 0
2900 1 34.66485204208656 24.160053279107174 8.230523530201333 0 0 0
24 1 4.31232556222803 16.15565505375147 3.53374329426825 0 0 0
26 1 6.034074220949273 17.592302023581492 5.413127031719448 0 0 0
27 1 10.969547754803333 15.915360129295383 3.862341474710459 0 0 0
115 1 12.354779599749527 18.217690518996502 5.162944477807738 0 0 0
28 1 17.30655802279898 16.075855157136612 3.825298159054112 0 0 0
926 1 19.142582471433773 17.643829073394297 5.3106103459751095 0 0 0
802 1 23.88100579607111 16.5293320593097 3.4887175805245265 0 0 0
883 1 25.225348277022608 17.862576706513078 5.31215842378535 0 0 0
804 1 29.793713054935367 16.057287848987155 3.568401093406222 0 0 0
809 1 31.270336055420834 17.67049970354013 5.369649567458903 0 0 0
29 1 1.3258978329734885 19.03384314589845 3.787205533402653 0 0 0
35 1 2.5507530070009397 20.535963476442888 5.48750987976305 0 0 0
30 1 7.15303511245625 19.26682621506484 3.636806956087614 0 0 0
126 1 9.07446674747122 20.884728468912932 5.074403794296876 0 0 0
32 1 14.240155627443572 19.425667570015246 3.6426204559204556 0 0 0
33 1 15.904799215381843 21.076689523857002 5.170295380797513 0 0 0
807 1 20.617793992981934 19.40901115687094 3.396318090975642 0 0 0
813 1 21.99868718437528 20.871516925961448 5.410915979630547 0 0 0
808 1 26.7723421535766 19.207796726137147 3.5747808378766424 0 0 0
815 1 28.374586285783998 20.892269534302862 4.877252879698868 0 0 0
810 1 33.250948381203806 19.092312861249994 3.3548397486337236 0 0 0
142 1 -0.19807251815437127 24.098675256624222 5.250387956024101 0 0 0
36 1 4.280770579912205 22.046526224663655 3.5110843905968756 0 0 0
124 1 6.201644932621258 23.600421514685713 4.999448858653324 0 0 0
37 1 11.04977365369373 22.48451648149097 3.6559792969090443 0 0 0
132 1 12.564034937695991 23.993897716392425 5.409010413006744 0 0 0
38 1 17.133683157152582 22.84582101765819 3.482061970506889 0 0 0
881 1 18.953018885493577 24.02039156361925 5.214857600545783 0 0 0
814 1 23.43796667837241 22.34950528284489 3.804022704083474 0 0 0
897 1 25.12233148517179 23.890245135632732 5.109382404117947 0 0 0
816 1 29.976803420688064 22.24516989606516 3.478323947738334 0 0 0
821 1 31.210445116551274 24.041222903964105 4.9971477575010725 0 0 0
39 1 1.2166370310914993 25.697595100593468 3.6918066024766776 0 0 0
136 1 2.9929294225314034 27.312551748083074 5.205644277027312 0 0 0
40 1 7.848235810404713 25.03568602565035 3.4280140036856417 0 0 0
139 1 9.457000287821348 27.074563093166972 4.640868733611555 0 0 0
42 1 14.11073533719493 25.730601339499884 3.659920652645133 0 0 0
49 1 15.541293409067372 27.332071640972785 5.065906990188343 0 0 0
818 1 20.565189378614413 25.73671625828006 3.5039595699155486 0 0 0
825 1 22.39269369763385 27.062123063962915 5.178285583755426 0 0 0
819 1 26.6776602648312 25.297285025031123 3.1883283380679877 0 0 0
822 1 33.129333711344096 25.298509353115396 3.2578696066902 0 0 0
823 1 34.48365357150664 26.891867527354425 4.957093130557087 0 0 0
1338 1 33.25274539958804 -0.14639512679054004 22.295942552395037 0 1 0
46 1 4.81524304950147 28.662520550871726 3.571043113496476 0 0 0
53 1 6.283451519055669 29.98587510028376 5.52919424274737 0 0 0
47 1 11.279355622670296 28.746881902087793 3.405987829609717 0 0 0
50 1 17.25405048113728 29.009956023924484 3.611265557538637 0 0 0
824 1 24.098777150410765 28.820148974505788 3.3750336395845526 0 0 0
899 1 28.23889219798561 27.41492600867617 4.758797688959612 0 0 0
826 1 30.3943142089415 28.786865767125043 3.5281443368815997 0 0 0
904 1 31.93016652676446 30.31772875720696 5.226544153067273 0 0 0
51 1 1.231867166638934 32.01102544812245 3.676188078806247 0 0 0
148 1 2.991575233775851 33.342115231280374 5.153633575132161 0 0 0
54 1 7.350475927958313 31.979900444414 3.829898897213247 0 0 0
56 1 14.153998393949724 32.23532989767819 3.422689302807105 0 0 0
57 1 12.53903766000544 30.464411316117953 5.116056152563266 0 0 0
828 1 20.257840712038085 32.19088356386541 3.5227992539234627 0 0 0
1178 1 18.98738688436808 30.597936538945508 5.1840264070257 0 0 0
829 1 27.193038225815908 32.086131880890086 3.3997503673550344 0 0 0
909 1 25.563692133555513 30.485683891717876 4.921849251226991 0 0 0
831 1 33.189698313376674 31.9492982098419 3.386737224198171 0 0 0
60 1 4.040230445211339 35.014606249024176 3.4552997794753564 0 0 0
55 1 9.342665927074448 33.47933922039648 5.492227439772368 0 0 0
61 1 10.707853534103936 35.17730806008756 3.5625431039408713 0 0 0
154 1 15.292330299548059 34.02843972195833 5.018807160443342 0 0 0
63 1 17.182966467392568 35.70545903185711 3.5247442863644527 0 0 0
908 1 21.790279833391914 33.84090896576287 5.03079579955341 0 0 0
833 1 23.868276757498556 35.40549039007584 3.376012538421593 0 0 0
834 1 30.218227638533378 35.24052022025757 3.387316119787107 0 0 0
830 1 28.68420434860107 33.756725104188355 4.978777393211671 0 0 0
4693 1 -0.20506737418499868 8.16816720868388 15.640931986592003 1 0 1
64 1 1.0651171196677436 38.027496364109695 3.485323424510062 0 0 0
155 1 2.7426055822961737 39.483647702655155 5.2777169930821834 0 0 0
65 1 7.939653932362962 38.285342169190294 3.27623021082922 0 0 0
150 1 6.26346591178223 36.571850022883766 4.8365424356713085 0 0 0
160 1 12.091808023198803 36.626012118662786 5.17046991021571 0 0 0
67 1 13.544550294089197 38.37947077490266 3.6892747708834968 0 0 0
836 1 20.664988028701064 38.58062860704326 3.673528997258302 0 0 0
1068 1 18.928758829499174 37.1717733803516 5.400217432842179 0 0 0
919 1 25.134004608678506 37.0557556985466 5.190926968841902 0 0 0
839 1 26.79457833604345 38.62199404091976 3.4690311655195942 0 0 0
835 1 31.29941306644826 36.88817788457299 5.179963355584699 0 0 0
840 1 33.375849242850975 38.07886813676737 3.534145592729111 0 0 0
70 1 4.292240831432688 41.15156650845616 3.6109825354122247 0 0 0
157 1 9.150159159972429 40.087802970271504 4.930300816471683 0 0 0
71 1 10.602513063350544 41.683074004831646 3.0189480630981627 0 0 0
168 1 15.34005129514858 40.523721917854076 5.108996666748741 0 0 0
73 1 17.430179524981504 41.84586451808226 3.942483340331397 0 0 0
844 1 23.84184836629754 42.37616893033459 3.705779186872108 0 0 0
837 1 22.13381057932626 40.383381208604796 5.142006771673082 0 0 0
920 1 28.270287895627973 40.378407985492466 5.001350478164204 0 0 0
846 1 30.29195353553694 41.77823599541761 3.374997903788865 0 0 0
623 1 -0.12351845269231038 42.53196614701607 5.470205124858606 0 0 0
76 1 1.459918055596075 44.55903184883994 3.575275459029364 0 0 0
164 1 5.7610709746433555 43.250858061241324 5.082702147436732 0 0 0
77 1 7.838946118024168 44.71150610497178 3.6479241658051937 0 0 0
166 1 12.14735597149472 43.267623071506335 4.708040967986494 0 0 0
79 1 13.887298870101965 44.99051829331513 3.502143662116769 0 0 0
849 1 20.81575673903382 44.945063025074745 3.5428230676861268 0 0 0
858 1 19.24180726376303 43.56990216628078 5.584422098304112 0 0 0
850 1 27.222959834100664 45.19216123828843 3.3386125402537283 0 0 0
923 1 25.465195257979254 43.74279557496175 5.162316775892626 0 0 0
851 1 33.42725770263172 44.832950523013125 3.5197091107709624 0 0 0
847 1 31.84043066585619 43.421227582530236 5.184304692123733 0 0 0
170 1 2.831899003300781 46.1971009129876 5.205587838194915 0 0 0
81 1 4.356820694633677 47.948061097624 3.772509673109353 0 0 0
172 1 8.98380851970749 46.63010378270323 5.379314944483004 0 0 0
82 1 10.824414457251136 48.1711505038529 3.9225198283028124 0 0 0
175 1 15.387329517207677 46.62613593731244 5.118977188711361 0 0 0
83 1 17.180882170980297 48.46048096566307 3.7954807539410567 0 0 0
853 1 23.720208811962245 48.158577124353776 3.834921784126469 0 0 0
932 1 22.15314384510408 46.643348433261046 5.360382684432368 0 0 0
854 1 30.3047325590651 47.738639330838566 3.3830690693126226 0 0 0
929 1 28.721922301687673 46.437064717694824 5.332921927005535 0 0 0
85 1 1.2630445497421412 51.0562308867373 3.671281968985034 0 0 0
3196 1 34.69688555389727 27.438798759974574 18.118009595741874 0 0 0
179 1 5.596804888230127 49.629111279237975 5.401532897925572 0 0 0
86 1 7.384078503665509 51.114305811820365 3.931911340498444 0 0 0
183 1 12.418021321658134 49.87208490857553 5.4157610420986755 0 0 0
758 1 18.749488718440578 49.917697115965204 5.345927587605645 0 0 0
857 1 20.05179184818019 -0.19572845316656218 3.3500672738764723 0 1 0
934 1 24.90460522549242 49.77946114285561 5.639531513432255 0 0 0
859 1 26.856002531005597 50.948860654140034 3.7800400196555786 0 0 0
862 1 33.15942365773165 50.7924602362399 3.8886173385608442 0 0 0
856 1 31.54500991953203 49.333618214861644 5.3284753926129875 0 0 0
90 1 1.2112109419928012 3.182662575391607 7.118614671372319 0 0 0
189 1 6.117805207182895 1.1972743859647135 8.649939465533311 0 0 0
91 1 7.3777753044242536 3.1214293970364704 6.749928452651429 0 0 0
191 1 12.16030070403643 1.880883281190807 8.584412958658124 0 0 0
741 1 18.454153345843753 1.4000471992590628 8.509658436529367 0 0 0
864 1 19.962045127663515 3.127447612070017 7.02801281026143 0 0 0
941 1 25.142661848740104 1.126832944059905 7.964060812516152 0 0 0
865 1 26.74200851497453 3.0264665804307764 6.498241025738194 0 0 0
868 1 31.860650063528553 1.7776955277242894 8.237292968326852 0 0 0
194 1 3.020609707654861 4.65553950881856 8.721531901368124 0 0 0
96 1 4.293706257943816 6.24130272174825 7.039690819817331 0 0 0
92 1 8.578088216542945 4.81666057970393 8.36900489692871 0 0 0
94 1 13.709825401733069 3.6835843672653934 7.019131137244104 0 0 0
100 1 15.455539588142221 5.219719478356232 8.411878906346388 0 0 0
949 1 21.78243607599736 4.397145877404395 8.365864461894775 0 0 0
869 1 23.431641067410894 6.0032288352125525 6.866953634004306 0 0 0
950 1 26.780789074666107 6.187674116369915 9.277707082535757 0 0 0
944 1 28.527896876755715 4.785547716745009 7.896977353729051 0 0 0
867 1 33.402470789496725 3.4098244402929563 6.497874104096536 0 0 0
203 1 5.5841040797543045 8.24971145514887 8.497997424439301 0 0 0
98 1 10.464274549862145 6.493154831347246 7.073117682944033 0 0 0
201 1 12.13604394501768 7.955851789466674 8.852793213503851 0 0 0
99 1 17.168127978741193 6.622464959390681 6.900184600173223 0 0 0
744 1 18.771769000507696 8.305352913942764 8.63668721288366 0 0 0
870 1 24.985370653431193 7.948989593615968 8.142006527622103 0 0 0
871 1 30.26329875503611 6.601593979365913 6.615663445951621 0 0 0
872 1 31.47404235456528 8.226599170594037 8.142005945334581 0 0 0
102 1 1.3413713422344336 9.45288427772406 6.8740063351424485 0 0 0
210 1 2.908027715304592 11.17077962446249 8.293241189768526 0 0 0
103 1 7.619352845013366 9.479835449846412 7.183408663336189 0 0 0
204 1 9.338068776112166 11.317776693817944 8.758129313099133 0 0 0
105 1 13.50079690332847 9.509740207358996 7.258287124426299 0 0 0
206 1 15.122912804546004 11.177218326712696 8.653432152777773 0 0 0
874 1 20.100816353226428 9.614580307246333 6.853126214255982 0 0 0
954 1 22.234812580618527 11.004453096538823 8.114160445622469 0 0 0
875 1 26.77715630446926 9.555756406497858 6.947444714187296 0 0 0
960 1 28.53403045887556 11.132079474155587 8.320964827134423 0 0 0
876 1 33.15868793566075 9.869984935904485 6.743037617408839 0 0 0
3322 1 34.68643225278349 36.60287647128313 21.063744490740824 0 0 0
108 1 4.4484768712083 12.591390312848176 6.789910671673904 0 0 0
211 1 5.773466175842493 14.317360020657047 8.427318888052705 0 0 0
110 1 11.11001530780822 13.025818752613812 7.021711634518647 0 0 0
213 1 12.642671346109722 14.745310771871075 8.660267683199297 0 0 0
112 1 16.733610456418695 12.771556790599448 6.954514850500887 0 0 0
745 1 18.55924798417669 14.588399820520218 7.939469101386768 0 0 0
959 1 20.232066876199255 12.99498098433712 9.360616909804598 0 0 0
878 1 23.90627808635792 12.794227989968366 6.544008970568536 0 0 0
966 1 25.166825398578744 14.46904522028017 8.362872742164251 0 0 0
879 1 29.738584865246207 13.151298824626036 6.678271375723148 0 0 0
885 1 31.340743369842027 14.451635078800024 8.556411396655045 0 0 0
113 1 1.1487447965150734 15.799320238972498 6.901251464266065 0 0 0
218 1 2.574249703486746 17.32403093836751 8.549940489202733 0 0 0
114 1 7.408224264476352 15.941032970291953 6.947944204814087 0 0 0
222 1 9.152598616562953 17.578360909208982 8.47624117440098 0 0 0
116 1 13.725801543580387 16.395326737196594 6.8637952569720095 0 0 0
117 1 15.477659423811339 17.720954759246734 8.511471428767118 0 0 0
882 1 20.682884887553165 15.990620969284649 6.723601103500043 0 0 0
964 1 21.969714847855126 17.688152261789234 8.479401005294518 0 0 0
884 1 26.656948891552155 16.181202074088795 6.8498645982516075 0 0 0
889 1 28.018545783794607 17.917139970636775 8.72689853914454 0 0 0
886 1 33.027985550830586 15.987265201477708 6.894836555119371 0 0 0
969 1 34.57639019415568 17.826705740012276 8.494991461604668 0 0 0
44 1 -0.2181298206427135 20.70001011166015 8.583034145058551 0 0 0
119 1 4.017403899089941 19.089733691130753 7.171232302657924 0 0 0
120 1 5.841043632877595 20.889408970780533 8.523945660228888 0 0 0
121 1 10.686084950173623 19.4488551435725 6.72171290906292 0 0 0
229 1 12.879690011719422 20.574465745736916 8.426208880437231 0 0 0
122 1 17.554455725713268 19.117459436218848 7.011076735712537 0 0 0
781 1 19.027182540836655 20.88531647544217 8.457567782361915 0 0 0
887 1 23.523965805305412 19.427961567415846 6.92207875997382 0 0 0
888 1 24.883053784606826 20.948668389955053 8.650187054209525 0 0 0
890 1 29.720834058885323 19.25401072833941 6.950501511927712 0 0 0
891 1 31.504634213210924 20.870052404534185 8.215893021584275 0 0 0
123 1 1.3696904753917079 22.3656152294987 6.904905154166288 0 0 0
226 1 3.1575917959882593 23.87756493182597 8.45297114192315 0 0 0
125 1 7.4465672688849125 22.445199014634618 6.927716637291803 0 0 0
236 1 9.389689433853436 23.861860076815777 8.368606547678029 0 0 0
127 1 14.204401342320903 22.61319006154975 7.109958764116181 0 0 0
134 1 16.09729315738542 23.82640698034614 8.480908581035639 0 0 0
892 1 20.47096181793729 22.48105768461795 6.913653318560852 0 0 0
893 1 22.051319863565215 24.08017392783876 8.475025144547148 0 0 0
894 1 26.495711270928826 22.26631219675604 6.6271440054196775 0 0 0
895 1 28.09221457558979 23.70816698654667 8.344582662623553 0 0 0
896 1 33.19292833906284 22.596551433912165 6.534890916636392 0 0 0
4920 1 34.68154584795194 23.52086666681839 1.59284562478048 0 0 0
130 1 4.655080944409948 25.542105290172056 6.429069599895149 0 0 0
131 1 6.2373956078505275 26.69682062975991 8.285120477756603 0 0 0
133 1 10.715963717772112 25.513820346960664 6.538127598857168 0 0 0
243 1 12.70788749301949 27.099298594989566 8.255555187486552 0 0 0
135 1 17.200807759279076 25.869230139861166 6.630345188775477 0 0 0
848 1 19.028908267157128 27.338833622069252 7.989940821111512 0 0 0
898 1 23.618096515402513 25.556091457711457 6.866450565461764 0 0 0
984 1 25.369166317381872 27.09460635144265 8.022089751609656 0 0 0