LAMMPS data file via write_data, version 29 Oct 2020, timestep = 200000

4608 atoms
1 atom types

-0.09615069097072038 53.496150690970694 xlo xhi
-0.14455046921719017 51.0516704692178 ylo yhi
-0.14455046921719017 51.0516704692178 zlo zhi

Masses

1 18.015

Atoms # atomic

3848 1 1.6167763804577646 7.957424203775064 0.1947326306591306 1 0 1
1637 1 3.435944945938887 6.348675351090975 4.981197284489124 0 1 1
264 1 14.135101466085034 50.46035879007165 3.9463094951629136 -1 -1 0
4456 1 0.09124224538618245 30.55260737998491 16.50666627630166 1 0 1
2456 1 14.086837580349275 2.148496732447166 3.558548930916953 0 -1 0
389 1 15.670853268498382 1.5679478549458445 0.9788763477064175 -1 2 -1
3327 1 5.568764493324954 4.95380461621037 3.5559012066258724 0 0 0
2722 1 0.5638404704812319 35.069932145271196 1.980546516245563 2 0 1
3978 1 11.875174237101982 50.34166715032261 5.633456974244738 1 -2 1
4568 1 1.2027843340899669 48.61959185428992 23.06536221280191 1 0 1
2398 1 7.989342225278124 8.538418353527689 3.3631314190842407 1 1 2
1454 1 1.3626995230392878 25.479170372837572 9.614129126784915 1 0 1
2473 1 12.361986664893196 7.170423053801308 2.912292382240338 0 0 0
1101 1 1.0299597031489156 42.28400849516733 2.3992222974348127 0 1 0
997 1 0.05952887506375551 16.308748435232317 21.257764297449377 0 0 0
3812 1 0.6730652245231331 19.74516710534833 2.0047564326322416 1 1 1
1799 1 12.327258876515009 11.971799207020247 3.030009122567086 1 0 1
1117 1 9.603509753718704 10.908741922131718 2.363916361263028 1 0 0
2614 1 5.558562249196116 12.99559467658281 0.7258423606372219 1 -1 1
4166 1 11.352596973802685 25.150539338666338 1.1720159427980188 1 -2 1
431 1 7.739092834507947 13.214618121770137 2.5373674423445323 1 0 0
1679 1 13.367235962899525 45.07101564583347 0.699171295595958 1 0 -1
3801 1 12.426620969937167 20.523669656201754 25.2065421223887 0 1 0
4434 1 1.9213222410684607 43.61900115824689 4.451589033040909 1 -1 1
4010 1 1.45377595429189 25.597984076090952 0.7386719163713841 1 0 0
3768 1 0.1886300713442764 22.60543172733801 12.767320848347271 1 -1 -1
3979 1 0.5053604667350131 46.018155873348064 23.503017980546478 1 -1 0
4602 1 -0.06724238407936411 22.49972886813955 15.426027776746329 1 0 0
611 1 7.476246857929118 19.245643254784756 1.15404549265824 0 1 0
3238 1 -0.044815003622793385 0.7774321982402008 7.317432543151274 1 0 0
3583 1 17.039031301910992 18.835820208856884 4.782299957832018 2 1 -1
754 1 2.429549268218761 23.01572150675988 6.22554301047641 -1 0 1
3335 1 6.335217175462876 16.236590563938954 4.678340993341614 0 -1 0
4307 1 4.339859215902095 12.309485661708685 24.930584067951013 0 0 1
2762 1 8.52796627575269 26.64391490462872 4.229209817123155 -1 0 0
2444 1 4.986812368856132 21.409416617872143 6.387013909995929 0 0 1
1976 1 12.027857934811411 19.952143736432713 2.39515478809413 0 0 1
787 1 10.08174533213056 2.703863979298935 18.906569628948663 0 0 0
2435 1 12.798014883493478 17.517925291102753 0.30852284492659887 1 0 0
157 1 1.67925384280413 9.610108926894545 12.041933895954456 1 0 1
972 1 2.944213556516499 24.98973966106751 4.113556372686869 -2 -1 2
1210 1 1.4411950993399294 2.9612192424472346 20.94980111221077 1 0 0
15 1 10.658475743982217 23.117235353530322 2.870833172018642 -1 0 -1
284 1 15.335862772792666 21.100988400950794 0.10649873004150306 1 -1 1
166 1 4.577496462105273 25.70027264751339 1.4469072999056731 0 1 0
3018 1 9.786492686817002 6.304461016859417 0.049292302653796916 0 1 0
2909 1 1.6302094930930597 1.6939856201367813 3.23242393593683 1 1 0
3594 1 7.932144093481858 27.261185173501012 7.216381917159105 1 0 0
3002 1 11.237153928856637 -0.10184093036138586 0.2732941375737657 0 0 2
4221 1 1.6585442331353666 43.513359167032775 8.982660930945459 0 0 2
214 1 2.34597628182894 5.118354385396268 1.0395597827189336 0 2 1
4525 1 8.747923567537603 26.39943229684323 1.3966425514887575 0 2 0
3085 1 8.108811838086464 30.604655698035977 1.86136621423939 0 0 0
2170 1 13.80627271422902 28.920949711849786 6.2969390497792395 0 0 0
991 1 1.8364814323466145 33.43180197320633 0.012754530607044345 0 -1 0
3446 1 13.25024656288433 30.25144731513951 1.4384039237047395 1 -1 0
993 1 3.7268401523775063 32.76421228816244 2.127552172986425 0 0 1
3818 1 4.36289254573196 41.17453302005788 3.040645634508171 1 -1 0
459 1 17.184696132431927 39.39173850502607 5.480688775280343 1 1 0
1247 1 4.620332211971431 30.416180153778484 0.7705166288218467 0 -1 0
4400 1 6.6319381987516675 32.1135854819928 -0.0062600951994841725 1 -1 0
1734 1 2.070964895947319 20.870076653652276 10.558588811011681 1 0 1
1474 1 11.87300333606765 28.84661986813553 3.718662137483922 0 1 1
1984 1 1.8777663839748027 37.458531809983825 1.1416607050639558 0 0 0
3089 1 10.112889823757966 35.994547889124036 2.540912570229579 0 0 2
2339 1 11.828668588417562 33.759709093983005 1.464895149081091 -1 -1 1
1762 1 14.439706706968295 32.886908362401925 1.7220855688022 1 -1 -1
1915 1 16.740754909578573 32.462255192222486 3.978501508624218 0 -1 0
671 1 3.3639459380543313 42.77014609568015 1.1563913919337512 1 -1 1
549 1 5.8130535621223745 38.68415705048854 1.8412962168786562 0 -1 -1
995 1 4.884151810892817 19.52843739360222 3.14546963740994 0 0 1
3730 1 8.308714981098278 38.11830477921727 1.0073130130337369 -1 0 0
1294 1 6.540631830379097 38.670004121991155 4.912985928397847 -1 -1 1
1794 1 16.990068722402384 16.054254249639914 20.993305538659218 0 0 1
4125 1 16.01268371090398 38.46871012175201 0.5196364581787583 2 -1 2
1485 1 11.416854131204557 44.54884714073539 3.7827387527578633 0 0 1
3540 1 5.275793652464675 8.501013037387347 2.503389944422158 1 -1 1
3767 1 5.582087594725768 23.698734341815154 4.863502095146194 1 0 1
1258 1 8.965295607361435 43.253297190824654 0.6388544824353487 0 -1 0
4335 1 11.710304702845427 42.960722397863265 -0.06173229873396066 1 -1 1
3568 1 10.083407378728173 39.69460901005802 2.7447441048204357 0 -1 0
4510 1 11.894571311033701 37.72461270363485 3.4129828624797587 0 -1 2
584 1 15.382212288783531 41.6844285382042 0.579454954330544 1 -1 1
2192 1 0.7248678898876185 47.517182644732756 9.134637462196089 1 -1 0
3773 1 2.8512636982280255 45.63460764388883 2.0571643547046086 1 0 1
4501 1 9.30901303769957 48.87132475202691 0.34220723810882 1 -1 1
3879 1 7.126489268381206 46.117887121243754 1.88969619413 1 0 1
1001 1 9.116743962138873 42.5278200300713 3.4998296344606428 0 0 2
631 1 12.815107546952785 41.57964748087228 3.610970274345752 0 -1 1
3298 1 14.692373328213428 43.521910688622356 2.5454632342767587 0 0 1
3723 1 6.681917352099799 48.672725991524075 1.6753847731884806 0 -1 0
1891 1 9.586617358809821 0.7721582892945736 6.8421067400143745 0 1 0
2768 1 3.595520634500641 21.167661426946626 0.4240137316828052 1 0 1
1185 1 6.172372135742473 2.982397953318272 25.081946421342156 0 1 0
2927 1 5.3534130741273795 1.3923745067580409 2.9084598502323704 1 0 1
1032 1 15.77042209391415 28.17458580495834 0.9680997983356983 0 1 2
688 1 10.753310877162304 0.4146962978847275 3.5264539881168555 0 2 0
3591 1 3.9301831192882517 2.6747003728328558 4.584065763858696 1 0 0
3443 1 14.479661986978547 2.072331882682394 8.173616798467144 1 -1 0
2264 1 15.861089770190619 48.394545222360875 4.187631355733048 0 -1 0
1674 1 0.1807503309749639 46.65182472604883 11.801227616922445 0 -1 0
2887 1 9.863241898772777 6.4510808070598955 7.227916418603533 0 1 1
1606 1 15.573631237935361 12.983940167011962 24.273590299106914 0 1 -1
186 1 11.866922050846657 2.542805842150456 7.374053146668302 0 0 0
9 1 16.736515030688924 50.07972613946039 6.625208597110839 -1 -1 0
673 1 1.0864368392588535 5.711932694823353 3.675809909066073 -1 1 0
2675 1 0.27109136914107496 28.00466956553269 21.544659293565893 0 0 1
2140 1 7.700052072174996 5.832858935112416 5.1141405843226195 1 1 1
707 1 9.274433206666684 3.9471307461214806 3.3925489707263106 0 -1 0
10 1 16.555087040107054 4.154072898325609 6.482213300384739 0 0 0
3903 1 14.107692804461076 4.929735573056029 2.680312067605963 1 1 0
3034 1 0.3961231600945913 45.49715722837709 7.689352898730168 1 -1 1
1471 1 3.8583286488616473 9.00074795310707 4.93426101044537 -1 0 1
503 1 6.815472626791231 11.298259450764032 6.513856086743477 0 0 0
4000 1 9.466208542039562 13.025100078267146 5.44972716758649 1 1 0
2124 1 15.560989447391695 8.689235814923473 5.363708294159006 -1 0 0
2146 1 16.134784088909498 6.792972590865837 3.4527698916520873 1 0 0
70 1 0.5056056546733838 39.499293418066614 2.7385054681916365 0 0 0
1514 1 16.579660032277417 12.502371947996506 1.7274677125249884 -1 1 1
864 1 4.019202517436353 10.19696442204427 7.762904356691764 0 1 1
2732 1 1.8176579696360253 9.535432117000317 2.9565855631021365 0 0 1
1966 1 8.393672824700083 8.561966973780955 8.995407304366724 0 1 1
3690 1 10.848685067666983 10.43079561246105 5.852423439620993 1 0 0
879 1 13.060568263911543 9.436014364854804 4.697864492376513 0 0 -1
1511 1 12.912790328476694 14.094007200751902 7.230376456485571 0 1 0
1277 1 0.028491111239622946 32.023863756827595 12.9112312372952 -1 0 1
1529 1 3.654839761593263 13.521345577217836 2.943692785525531 0 -1 -1
158 1 6.147883412856481 13.499315828162185 4.762235954172669 0 -1 1
2374 1 12.033324227932935 14.141722033444108 4.48522913330411 0 1 0
692 1 17.0280129953699 11.964925849066232 7.586836563352839 0 0 0
4219 1 1.2875315774402718 16.89740303220239 1.4001710607523115 1 0 0
557 1 4.198750107023242 16.82628624762951 2.559621875710132 0 0 0
1358 1 3.6192575741395174 18.2416173443584 7.8080912644772305 1 -1 0
2750 1 8.689881808726634 17.625180716286287 3.5006009139895644 0 -1 0
2803 1 9.980116317350992 15.032145710814234 2.645938049538902 0 1 0
1093 1 12.829785802018092 16.795715566003977 3.2286337751248593 0 -2 1
3401 1 0.46099118904043845 28.10106153018703 3.5268157114007757 0 0 0
4238 1 15.952819395773776 14.51351507492861 6.478441420859815 0 0 1
2075 1 6.854469387484281 19.182183310963513 5.530162761089064 1 0 1
2006 1 2.5762254508531965 21.331308286030122 3.624334343544661 1 0 -1
3713 1 6.8722254591620135 23.413366868632497 9.260867539362069 1 -1 -1
3159 1 10.961213763701481 18.878666164946264 4.830412714567563 0 0 1
3704 1 0.6492547656394868 23.618013017208444 2.301098121286449 1 0 0
4579 1 9.052588888748936 24.4460057739148 7.53769744594906 0 0 0
2710 1 8.421225667484455 23.818710508356407 4.697290395458927 1 0 1
3164 1 14.30030366144804 22.243253590480563 5.967494728922429 1 -1 0
1778 1 14.9414303734965 24.381919214662652 1.8280772526384452 0 0 0
3878 1 17.437922516881553 22.810242580040132 4.260292488066205 0 -1 1
3546 1 5.039199361452542 26.16830201576978 6.236422159415136 1 0 1
4394 1 3.212614188234358 28.25203927552765 4.909321915722545 1 -1 1
3732 1 10.78891749238699 27.316406211528193 6.518419424824362 0 0 0
3504 1 13.34203858924181 22.51476256514587 3.5763991609091477 0 0 -1
2852 1 12.083506223481601 25.443981211258745 4.761009919434242 0 0 0
299 1 15.317572339490022 1.4834203935318415 24.519070423322525 -1 0 0
4465 1 4.742340252221736 28.24380844141639 2.8645236998627612 1 0 1
3544 1 7.069385581256778 29.276746828942315 4.050686673368151 1 -1 0
3350 1 8.531499790001545 28.44186374514863 9.99160679495578 1 -1 1
1376 1 0.8555292245809675 49.396453089892574 0.9603668334062099 0 0 1
656 1 0.5136181548901956 12.700539761397279 22.1936509959061 -1 1 0
3920 1 9.721556152998952 21.20211142075947 1.1492296447791435 0 1 0
3138 1 5.996951749973589 33.57800963385286 3.5743227207786137 2 -1 1
3944 1 4.030090993218805 32.36098079182469 9.143195790021391 2 1 0
2731 1 8.919634598435092 34.731523074921796 4.629096829685837 -1 0 0
2660 1 13.332589083140899 26.514454184124766 2.5391833379515756 0 -1 0
2987 1 14.688240694187918 31.584632660781473 5.8303990905100616 0 1 0
237 1 1.347974477384297 43.583353677368606 16.179257083719055 0 0 1
2567 1 6.409415304373989 35.9503796518635 5.892358923177217 -1 -1 1
816 1 4.389972066393115 36.24868629478169 1.966190561080618 0 0 2
2488 1 6.203194898988222 39.823869968734016 8.361079675393684 -1 0 1
4019 1 12.704474843213696 33.27112699372165 4.6697970067916525 1 0 1
3870 1 15.202231118636643 35.10070213284294 3.1861849966807876 1 -1 0
2408 1 10.954409258216064 38.481604604673834 6.718108309499347 1 -1 1
1502 1 13.190272652863104 35.85515587505542 5.506319334709988 0 -1 1
3059 1 14.688377329795838 39.135503174148226 3.523852700300367 1 0 1
800 1 3.2947285578984493 39.09502198464344 4.5308949285681255 1 0 1
4046 1 6.496411825850998 42.6036631839513 4.490222480440452 0 0 0
4428 1 8.795547419388779 39.89087869369955 5.217745902119726 2 -1 0
2189 1 7.867629971267824 45.99417434601749 5.981631128038461 2 -1 0
3655 1 11.752457113679862 41.758711157834455 6.223578582671363 0 0 0
926 1 14.514644387230378 40.39634877866651 6.354199785732969 -1 0 2
1781 1 3.5658399311720355 47.18512473707945 4.895702931898049 0 0 1
951 1 5.533625435297856 45.310665935042465 4.104962210130119 1 0 1
3282 1 10.304550308466595 48.58739402527884 3.2303424502028086 0 1 0
4471 1 15.088844972895872 45.299784184153225 7.235363681524963 1 1 0
2778 1 16.183745416533633 42.72757110001939 7.15008884585618 0 0 0
3624 1 7.928152709597272 40.30970068491298 23.149986480285964 1 0 0
304 1 4.510280667000613 49.93373046513021 3.805086792444734 1 0 1
589 1 13.937017391984863 46.3163539815322 4.661102983049718 0 0 0
2418 1 10.29675995633523 44.51386857588953 6.33216748395011 0 0 1
941 1 17.40148050963096 31.847474178489733 8.033094743139895 0 -1 1
3533 1 4.010211224547142 1.110020426295072 7.387338857665986 1 0 1
3343 1 8.030375762808934 1.1539878818089182 4.143629381501168 1 -1 1
2073 1 11.530837759002761 2.645041884712321 4.614849495632308 0 0 0
2717 1 12.022632017564662 46.41497968372194 7.623556821339104 0 0 -1
4506 1 14.197092409699403 2.2540840723962923 14.734359361276796 0 1 -1
2067 1 6.833435355933105 0.464427982639824 8.564765987539369 1 0 -1
1478 1 3.0991278279166994 2.33443361671292 11.310960083645455 0 1 1
1528 1 6.559671357163123 2.5258397922279743 6.192055316488129 1 0 0
4262 1 10.390843584888437 4.203591524887968 9.125649562128451 1 0 2
4588 1 13.537503370219422 5.908815908986993 9.722830015295377 0 0 2
1042 1 15.969797825063495 1.600244044296025 5.69864163987645 -1 1 0
2847 1 2.987230966002811 3.2535288266703004 8.802850005855943 1 0 0
3653 1 5.808947680877926 34.57685688000278 0.40546959225105494 -1 0 1
771 1 8.771469474205743 9.045953528716282 5.870055808836136 -1 1 0
2021 1 12.440074003959177 6.601246207650944 5.927433425264744 1 -1 0
1602 1 14.776641982598626 6.390230373040053 7.4480722228091025 -1 1 1
4440 1 1.441271487716085 5.768151451178167 10.031336533621925 0 1 1
2791 1 3.6993818138892225 7.6187542496082035 8.972331358746626 1 0 0
1675 1 9.939871458619672 12.063879699553336 10.381605235012831 1 0 0
511 1 11.341889057917477 8.14304608138271 9.903096161469485 1 0 0
444 1 1.180722418105435 46.10025320357289 4.75013875153292 -1 -1 0
1597 1 11.947577180175204 11.595360327092774 8.238971454868201 0 1 -1
1680 1 14.821284581398505 12.517731446863614 9.209397846712479 -1 -1 1
3434 1 13.468744073596124 9.990621770954077 10.104074784641316 1 1 0
2956 1 16.262064144914742 13.356693051082285 11.363216017336038 0 2 0
2682 1 4.605271924251401 13.397322576763004 7.637649881921348 1 2 0
3469 1 4.080068443356678 15.74175700604217 6.517292703814213 0 1 1
93 1 10.021358120329857 14.431994413682018 11.976623463617198 -1 0 0
3610 1 15.36737996017207 23.764497878135824 24.873282662134805 0 1 0
1887 1 12.39262959392824 16.500943957882832 8.975682015033993 1 0 1
1842 1 2.218821484485932 2.3121660319775974 0.7978303224659631 1 0 1
1969 1 2.1758097127411484 17.106914754875636 4.824279691438508 0 1 -1
2536 1 10.108497884056451 17.08461913677483 11.028010162014796 0 0 0
97 1 2.0162221499641477 19.48722744968426 5.838699107430107 1 0 0
971 1 4.558951327229825 21.044471093730625 9.2051218866329 -1 0 1
2414 1 7.76473722210706 20.94858481475633 7.532453463808434 0 0 1
4512 1 15.048251842167955 16.86084750710372 5.10096105216028 0 0 0
3678 1 12.805259734066423 17.928953095009515 6.557993762300725 1 1 -1
639 1 6.4326144339658615 16.34230159993664 23.61996402621152 1 0 0
1227 1 14.582673322605412 20.197153560505104 7.555837888515674 0 1 -1
4358 1 0.31544338263281774 7.609868865453238 13.599443303927536 1 1 1
3532 1 4.412640660512001 24.3381231618578 8.60238431116016 1 1 1
1745 1 10.526338573248205 21.148073973344186 6.550390898355237 0 0 1
3083 1 7.123213265113884 23.197905934796417 11.970350018973098 1 0 0
4208 1 1.7046748644202308 9.16499470453202 15.825601778898159 1 1 1
3601 1 17.081838406292007 18.799580254400723 10.827326219205885 2 0 1
3272 1 0.7935096224889836 22.695045866870537 9.168576381153127 0 0 0
3584 1 3.5895748711114344 26.975362075354802 8.892457532559012 1 1 1
4007 1 10.373664170240598 23.791695133351833 10.099024306133751 1 0 2
467 1 9.245014341796423 5.203596400253975 25.431292303059195 0 0 0
3070 1 12.236450538471422 23.350124106535052 6.9685880296151685 1 0 1
2243 1 0.4757473372791138 13.482113126985256 9.753853572418523 1 0 0
453 1 3.4950554790324686 30.863656377346015 5.947058846694013 0 -1 0
4141 1 2.750569507180875 29.729684297553053 11.182945947118776 0 0 1
509 1 6.102911429124375 31.29900119212286 5.416587904876504 0 0 0
2688 1 9.770374228042428 32.19282783494093 5.685549208140167 0 0 1
1234 1 14.388064281967134 26.203047532887325 6.935198721230818 -1 -1 1
3258 1 11.755311636915533 28.195909884309806 9.091412757299578 1 1 0
1936 1 2.679498948309954 29.794925376019695 8.367960717995045 0 1 -1
4487 1 10.652024195361188 31.533291832257326 2.6549651148149027 1 1 1
4275 1 9.731067085434912 9.725073721844518 0.11135360987650617 1 0 1
3113 1 13.386860291298017 30.751886730521257 8.792715698273849 0 -1 0
1559 1 1.0911396949944745 32.295069723378944 6.259246659185163 0 1 0
2820 1 1.8292520498155536 34.127414205342845 9.052328439313165 0 0 2
2314 1 5.8392268076711575 33.924367417838454 7.767628682417332 0 -1 1
1268 1 8.608402147442732 35.3037276304333 8.650864666138537 0 0 0
1910 1 10.991214183858421 34.262575255230416 10.32872972132955 1 0 0
2715 1 11.927216160287994 33.009182867557016 7.707836112890409 -1 -1 1
2183 1 16.40762353397155 36.71703158586155 5.3649227889514135 0 -1 1
1947 1 1.871676814053931 34.070919436141864 3.980454587727051 0 -1 -1
1301 1 1.638708407736254 38.106958454192295 8.34298064114345 1 0 1
2443 1 10.558177271973449 35.907867070500686 6.41316582851743 0 1 0
496 1 15.581077694198157 37.13140873441904 8.338071974888063 0 1 1
118 1 10.455344316451738 41.85821064121153 8.774973073947676 0 0 -1
4438 1 3.5330512863365056 35.155752167071086 25.16153909659721 0 0 -1
3654 1 -0.09291326749894324 20.880787199128893 7.21447204884196 1 0 0
443 1 1.5232702441530341 31.419572654009084 24.203896955180632 -1 0 0
4223 1 6.299554655674866 42.74229165326193 7.399299196785284 1 0 2
3199 1 3.145275623622027 39.998696543897054 6.869046570337968 1 -1 0
259 1 12.60767496602019 40.67109131650213 10.027618530531733 0 0 1
1558 1 15.0483183937165 44.822786671142964 10.15863848527024 0 1 0
4216 1 2.0749398223731244 37.8153704181297 20.410586324992728 0 -1 1
1243 1 4.2174542845529075 45.161178845855176 8.935715615746284 1 0 0
3842 1 7.970602808069765 47.55770237991666 10.274439464452286 0 1 2
1908 1 3.409260560468346 15.005539894212012 24.533105964787822 0 1 0
3825 1 6.384477029120041 48.69874453330628 6.932068027952867 1 -1 0
1658 1 7.37228264254539 49.65174317882537 4.356264675912979 0 -1 1
1508 1 7.1001280782170095 45.83782703453451 8.4375503894322 1 0 1
3772 1 12.438025796087862 45.92235621396421 10.42235869421297 1 0 1
2505 1 16.38620632369313 47.40779739907143 8.569863321954381 0 -1 2
1211 1 16.82069300515147 4.531125748960895 16.795037387239763 0 0 2
2265 1 2.4024197227165405 50.29740503771717 6.354058714064949 2 0 0
1483 1 3.407430757691415 47.96214522749929 7.908196487773907 0 0 0
1796 1 4.494623993475051 49.88404140110974 9.560203999528554 0 -2 0
4152 1 8.916278861298773 49.38784874669537 8.756943993178107 0 1 1
4491 1 9.716194934300823 48.20460420366656 5.972389066375334 0 0 0
1368 1 13.6732416021621 50.585291760164424 9.043283555937142 0 -1 1
2286 1 0.13066198301698936 11.069529902933104 24.862236662197585 1 0 -1
1626 1 2.045022415495691 50.51770856588955 13.816678067009112 1 -2 1
270 1 8.573558811747503 2.2408204540322902 10.31862128752105 -1 1 1
408 1 17.08556274444882 50.13825484484575 12.123332988354303 0 0 1
2362 1 12.778172821003237 2.0350000881311816 12.349064473110797 0 1 1
376 1 1.7886016076043687 12.165749393662061 1.6361273766670312 0 -1 0
3331 1 1.9605301463763496 5.555107474846685 12.710514014026923 1 0 0
1841 1 4.191116849797696 5.227613689256163 7.6834630628254486 0 0 0
3961 1 6.653509859149638 6.260048509652132 9.449470205887469 1 0 1
4336 1 7.641036740907964 4.206674779514491 7.9915907044289884 1 1 1
3395 1 13.384113185806774 49.533451036733496 24.260557582263 0 -1 1
99 1 14.979615951864602 7.380682327678846 11.24675832302031 -1 1 0
2706 1 0.4141499346115406 9.688680351292577 9.6428042529712 0 0 1
2613 1 5.035373211343146 3.153471178120714 13.198090165338757 0 1 0
1828 1 9.876902381342 7.560925741687434 12.39183858086063 0 0 0
3244 1 7.482637161456142 5.963446123869783 12.274732556577197 1 1 1
3817 1 16.005565277676684 8.942184857699207 8.663251602999864 0 0 0
3935 1 11.46711990802721 5.074930278296574 11.58255692405542 0 0 1
4419 1 0.5073810066501196 15.836680105159083 6.668421362189513 1 0 0
1154 1 5.569199526454095 7.725677314070768 13.59167480069808 0 -1 -1
410 1 1.6787016584468626 10.355987797905719 7.2143216452995 -1 0 0
4015 1 9.794651800175588 10.358568898962746 12.518002166358094 0 0 1
1354 1 11.67421908490486 11.443628502065287 13.80409228668213 -1 2 0
1704 1 15.939969412398312 11.492511187016328 13.401521687377818 1 0 0
1720 1 16.91239095313827 28.653161326795924 6.365975319855131 0 1 1
3069 1 -0.08895521356771496 4.636285972123344 17.686614038205903 1 0 0
1342 1 7.520920673488121 11.187561007338735 9.104032218133042 0 0 1
4229 1 5.436019210477235 11.351032553381561 10.82974345138685 1 0 0
2334 1 8.626829904736953 10.393624204043864 15.46566960631162 0 0 0
2760 1 5.633983495582382 16.54563514920309 11.609641579438785 0 0 0
1736 1 11.012959441766538 14.59282402170583 14.583214862929033 1 1 1
792 1 14.266754020375632 15.919960760002194 11.27019077750124 0 0 1
2539 1 2.352849852343386 12.937498122229396 11.525702028879136 1 1 1
3263 1 4.642948467853951 14.157915807386027 10.459662124342127 0 1 -1
3427 1 2.86343683871666 14.740878270645643 14.929403575419089 0 2 -1
3557 1 15.932358128484555 17.538311121341636 13.420681303222361 0 0 0
3782 1 2.7925874091283514 21.768664761301547 13.61296100794553 1 0 1
3240 1 12.831553555269469 40.17419755585645 0.9826351575516465 1 -1 0
1792 1 5.915678882048408 19.406870606440407 11.20928675700037 0 0 -1
1654 1 11.066276765814305 19.403398229240114 8.68725815898826 0 1 0
2868 1 8.576972488872123 19.479945070222442 10.092340681244222 -1 1 0
634 1 15.850656122428394 36.89525916358086 15.039845343279092 0 0 -1
3889 1 17.752103842039144 22.307340125528018 14.507338311833129 1 -1 1
1750 1 2.5552897961377643 17.536693740727582 10.536976960109916 0 0 0
4261 1 2.030901618646968 19.227885322093297 14.337317791802118 1 0 -1
433 1 12.552117760167521 21.46187000512303 9.395843622746769 0 -1 -1
766 1 11.281545726654489 18.517644455434827 13.308840341140417 0 0 1
1182 1 4.362159584082229 24.92782648743643 11.513311486761662 0 -1 1
3819 1 5.091764638945671 28.022709385498445 11.032547359955533 1 -1 0
379 1 9.940935803277599 21.627286536405602 14.616938897729634 0 -1 -1
3330 1 12.609040932999525 25.486113770273672 8.968579003472579 0 1 0
3650 1 1.6717664748017718 9.249306216672906 23.543511289762662 0 1 1
1944 1 13.00531660944286 2.840696023963089 0.4289670330588151 1 1 0
3189 1 8.06476637349172 31.387228678923588 11.639586693274547 0 1 1
541 1 10.0495702059186 26.369163495164447 11.69505240729145 0 -1 0
471 1 0.9757420889698147 27.885965420120947 12.434676476824427 1 0 -1
568 1 7.516454083124327 31.126804640026705 14.290902694701437 1 0 -1
1422 1 8.288949123744274 29.371811059305557 24.867887118981916 0 -1 1
3858 1 6.6227933456371755 36.68804751533216 10.761609416206362 0 0 1
3710 1 5.130073838103768 31.938025219457376 11.585753436264966 1 1 0
2101 1 12.758997766539247 32.20570216526296 14.21239530204231 1 0 0
2535 1 12.132050914060857 31.89293602381176 11.31767783107886 0 1 1
3869 1 15.270506983076615 35.00759683431845 12.05428872778547 0 0 0
1162 1 0.915724280438138 50.17509350682329 3.7005708515927997 0 0 1
970 1 3.642845776286517 36.15916194202512 12.76788738820815 -1 1 0
2383 1 7.789861028907028 32.05925236415705 7.635951055728962 0 1 1
519 1 8.425584007402648 34.153083159848975 11.969594420168425 0 1 1
572 1 15.248803892526404 33.128435284388644 8.431271595043155 0 1 -1
3524 1 5.132518375732955 36.83802268820163 8.748466252774096 1 -1 -1
4066 1 9.122903648625575 38.44829967207008 11.116361345504988 0 -1 0
1306 1 6.514771048524769 40.08276544676566 11.21757198100319 1 0 0
1274 1 13.21400571691571 36.08443683176519 10.379688108045709 0 -2 0
3163 1 11.280972756273007 39.89931562161142 11.913100758808094 1 0 0
3409 1 13.29809558242655 38.651488936603485 8.152209411532114 1 0 0
4099 1 4.058593591211641 42.049018027501404 9.789950114780632 0 -1 1
405 1 8.842164931717713 39.68592403046553 8.585765314170347 0 1 1
4079 1 9.808147836386372 46.209443171308706 11.741618940323763 0 -1 1
4049 1 15.809786090304913 40.99609126421919 13.411595307898684 1 0 1
3078 1 0.28463154084166664 42.18718565683062 10.795425622771894 1 -1 -1
2942 1 4.2262286849329 45.42380894300109 11.73453415757508 2 0 1
478 1 8.261198852578932 44.080201215766294 12.703946777948314 1 0 -1
3952 1 14.817346077614758 42.00773922364638 10.970257131784116 1 0 1
4071 1 15.950004459772419 46.296164294249664 15.651411667860614 1 0 1
3480 1 0.7546846079633138 37.83564343391569 12.389627135739921 1 -1 -1
4248 1 6.373711557408559 46.83018889640903 16.36106567012551 2 -1 0
2564 1 5.575504898324518 48.29306039334807 11.496973044663525 0 0 0
2980 1 12.592040199598353 44.35757249485968 12.897801592891428 0 0 0
4390 1 13.725582097519437 48.47890209816488 6.822197159858041 1 -1 0
473 1 2.2229022044148055 50.876293215751815 11.0081152860933 0 0 0
3992 1 4.765263206640627 50.323549092612424 15.462182809877284 0 0 0
4608 1 10.396779452665601 0.5042500655135929 12.082474105023582 1 0 0
2945 1 11.232844754079938 49.834652654285904 10.141759392951743 1 -1 1
393 1 13.371832963802852 48.18830895541164 12.582145998986359 0 -1 -1
989 1 0.117573481806244 39.490611884611596 10.256934913278133 -1 0 -1
907 1 7.66145255941881 15.911253127845413 0.8723840699580048 1 -2 1
2420 1 11.22587203331248 4.999246770162677 17.473951239917046 1 1 0
784 1 14.589248633599047 50.87622142194242 12.049496396812172 0 -1 0
2107 1 14.438278266739813 50.208059310728615 21.51152061199317 1 -1 -1
2412 1 11.673872401090575 29.38719609635745 24.446537787339246 0 0 0
1262 1 7.462954861468415 49.703511342056856 16.252506830796836 0 0 0
2065 1 7.587471216723576 5.719524580217675 18.372222032829498 0 0 1
4260 1 10.414998064085925 3.4299936822962276 14.178899834171137 0 0 0
4128 1 8.119321013600237 4.852721426087961 15.830967283894287 0 0 2
3372 1 11.10099806308492 6.406001115856918 14.950160746980318 2 -1 1
1456 1 14.079382951475884 5.287433379935998 13.407694633584091 0 0 0
2637 1 14.665960762311396 3.4335628074437117 10.785480610136691 0 2 1
3415 1 15.32694077924267 46.136077886229984 12.782681164391368 0 0 -1
2439 1 4.455355747128767 8.787970783448994 16.2105662473591 0 1 0
2251 1 13.827085326808188 9.73902401068989 13.05490516394151 0 0 -1
3039 1 0.19307790513809664 14.571959676266156 14.235736448301317 1 0 1
2846 1 4.100251608325604 5.471368496261058 14.631440937242846 1 1 0
2902 1 4.2903600441689065 8.990854308533915 11.596034844461023 1 0 1
375 1 7.741788097442191 7.795725817477047 15.70455258726504 1 1 0
2365 1 16.28830281940275 9.778280167862727 17.304387528774257 0 1 0
1293 1 12.53683785918934 13.121709817271647 16.572209466552575 0 0 1
3700 1 2.6188776350808887 12.93529309700371 17.546986051631475 0 0 0
1543 1 7.576927941149253 14.450776184412588 13.135214143779784 0 -1 0
1771 1 6.8801496038493495 11.564030131938484 13.239348509571347 0 1 1
4577 1 10.47202448651667 13.47834770074225 18.532417909582808 0 0 0
1482 1 12.94422666356427 16.41346720684464 13.955938166036661 0 1 1
320 1 15.174540394831407 20.567689843895554 12.97811513193443 1 1 0
414 1 13.491391693432373 49.86590264800935 1.507151149651568 1 -1 1
4348 1 0.5213194320118119 3.4983035183591875 7.2296341957975265 1 1 1
2964 1 0.6610800268969684 24.99241032622567 17.05679652959911 0 0 0
2817 1 5.9812107053085395 17.458149016154586 15.567302570523234 0 0 0
1062 1 12.939043432543663 20.502561874373995 11.993840385899714 0 0 0
1722 1 15.0114206303163 20.154607385479355 16.038527737195484 0 0 -1
1594 1 0.23960805929629636 28.140591954920755 0.7915625379785627 1 0 0
1490 1 3.7982861324344275 25.26383234353023 14.84735833000645 1 0 0
513 1 17.596811315951136 43.30818627290873 22.17296429485527 -1 1 -1
4592 1 9.282733086148454 21.698038845490256 11.909403485132971 0 -1 1
2481 1 5.64259686539237 21.09483989112374 13.175417739282967 0 1 1
3770 1 12.557363179870746 22.37017377560789 13.874119231458799 1 0 0
666 1 15.794620568374697 21.60831169984892 9.968652275159696 0 -1 0
3182 1 12.657607219767629 25.022658388993037 12.636961802444976 1 0 0
1884 1 1.6176479623202185 24.98384990842667 12.352888749954273 1 1 -2
3896 1 7.398508745387313 28.8270246374547 15.798061647188442 0 -1 0
3050 1 7.691808880583546 25.602614688323214 13.181821211709318 1 -1 -1
704 1 10.53624350265073 29.677972978066666 11.560045547220602 0 1 0
103 1 14.55147094937239 24.108676266009084 10.469854020938346 1 -2 1
978 1 16.446358655478925 25.55162720829786 12.121858460297371 -1 0 0
2838 1 5.516347808467715 34.57487870530187 11.836176683705087 0 1 -1
2779 1 2.8435650657477765 30.121373999492135 16.060266007170334 1 0 1
711 1 5.7371770367726125 27.3427163644015 13.671354908119561 0 0 1
3481 1 10.116462007015654 28.37678105207245 14.2245526975452 1 0 0
1071 1 0.19452801460315366 38.72275686608471 15.073761073091422 -1 2 0