
# Set production fixes - Nose/Hoover
#
fix                 2 all nph iso ${PRES} ${PRES} ${PCOUPL}
fix                 2 all nph iso -500 ${PRES} ${PCOUPL}
fix                 2 all nph iso -500 -500 ${PCOUPL}
fix                 2 all nph iso -500 -500 10000.0
fix                 3 all temp/csvr ${TEMP} ${TEMP} ${TCOUPL} 837492
fix                 3 all temp/csvr 293 ${TEMP} ${TCOUPL} 837492
fix                 3 all temp/csvr 293 293 ${TCOUPL} 837492
fix                 3 all temp/csvr 293 293 5000.0 837492

# Define Order parameter
#
compute             2 all orientorder/atom nnn NULL cutoff 3.5
thermo              200
thermo_style        custom step temp press vol etotal ke pe c_1[4]

# Run 1ns simulation
dump		    1 all custom 400 prod.${NAME}.dump id type x y z vx vy vz c_2[*]
dump		    1 all custom 400 prod.ice_293K_-500atm_ML.dump id type x y z vx vy vz c_2[*]
run                 200000
Neighbor list info ...
  update every 1 steps, delay 0 steps, check yes
  max neighbors/atom: 2000, page size: 100000
  master list distance cutoff = 6.0032907
  ghost atom cutoff = 6.0032907
  binsize = 3.0016454, bins = 20 17 17
  2 neighbor lists, perpetual/occasional/extra = 1 1 0
  (1) pair sw, perpetual
      attributes: full, newton on
      pair build: full/bin/atomonly
      stencil: full/bin/3d
      bin: standard
  (2) compute orientorder/atom, occasional, copy from (1)
      attributes: full, newton on
      pair build: copy
      stencil: none
      bin: none
Per MPI rank memory allocation (min/avg/max) = 5.821 | 5.821 | 5.821 Mbytes
Step Temp Press Volume TotEng KinEng PotEng c_1[4] 
       0    295.65991   -498.77593    149205.09   -47492.753    4060.1769    -51552.93   0.15078375 
     200    290.80304   -499.54976    149209.22   -47482.309    3993.4795   -51475.788   0.15471649 
     400     287.0876   -493.17909    149239.77   -47476.512    3942.4568   -51418.969   0.15688881 
     600    293.25901    -558.0202    149277.67   -47515.908    4027.2063   -51543.114   0.15013188 
     800    289.90107   -463.40283    149233.32   -47532.098    3981.0931   -51513.192   0.15427055 
    1000    290.99573   -464.06615    149214.54   -47545.391    3996.1256   -51541.516   0.16165679 
    1200    289.46031    -535.2463    149259.87   -47570.648    3975.0403   -51545.688   0.15394753 
    1400     290.9244   -507.38794    149237.93   -47561.832    3995.1461   -51556.978   0.14743726 
    1600    294.73644   -452.25273    149156.57   -47565.827    4047.4953   -51613.322   0.15123272 
    1800    288.49471   -468.21346    149187.91   -47570.835    3961.7801   -51532.615   0.15618978 
    2000    292.95316   -547.24739     149295.8    -47525.16    4023.0061   -51548.167   0.15341897 
    2200    293.70193   -473.11553     149249.6   -47493.531    4033.2888    -51526.82   0.14610567 
    2400    290.59836   -440.15347    149178.18   -47513.089    3990.6687   -51503.758   0.15401037 
    2600    292.01169    -477.8402    149252.21   -47558.927    4010.0774   -51569.004    0.1541804 
    2800     289.8297   -585.54023    149322.05     -47575.7     3980.113   -51555.813   0.15639169 
    3000    287.65121   -477.99383    149227.48   -47587.577    3950.1967   -51537.774    0.1571062 
    3200    292.64233    -436.8892    149164.78   -47534.755    4018.7377   -51553.493   0.15592324 
    3400    294.47823   -538.16678     149319.8   -47574.463    4043.9494   -51618.413   0.14783315 
    3600    294.89132   -614.56348    149376.97   -47601.868    4049.6221    -51651.49   0.14704683 
    3800    290.44888   -426.07168    149117.17   -47529.228     3988.616   -51517.844    0.1547401 
    4000    289.28554   -379.43011    149113.22   -47522.942    3972.6402   -51495.583    0.1515207 
    4200    293.08479   -604.90104    149408.42   -47538.071    4024.8138   -51562.885   0.14772066 
    4400    296.28233    -558.0346    149377.16   -47526.155    4068.7243   -51594.879   0.14979495 
    4600    294.93583   -335.35026    149061.83   -47507.685    4050.2333   -51557.919   0.15638851 
    4800    291.93159   -433.04421    149184.83    -47497.69    4008.9773   -51506.668   0.15652515 
    5000    291.60413   -703.71035    149520.24   -47473.749    4004.4806    -51478.23   0.15540409 
    5200    292.16056   -541.23198    149328.91   -47476.763    4012.1217   -51488.885   0.15474525 
    5400    296.67218   -314.94526     148989.9   -47440.255    4074.0779   -51514.333    0.1570591 
    5600    296.18479   -454.88076    149250.75   -47422.953    4067.3848   -51490.338   0.15215607 
    5800    295.36926   -677.86859    149562.36   -47408.026    4056.1855   -51464.212   0.15286432 
    6000    296.87306   -469.96632    149247.22   -47396.912    4076.8366   -51473.749   0.14991743 
    6200    292.94103   -306.83484    148985.63   -47392.711    4022.8396   -51415.551   0.15786789 
    6400    298.55056   -567.06322    149387.75   -47359.378     4099.873   -51459.251   0.15651864 
    6600    297.87335   -726.05936     149659.9   -47395.767    4090.5731    -51486.34   0.15788035 
    6800    294.80865   -463.20903    149182.39   -47440.156    4048.4869   -51488.643   0.16049461 
    7000    292.90197   -270.32801    148907.88   -47445.724    4022.3032   -51468.027   0.15870487 
    7200    293.64152   -573.33471    149408.84   -47389.616    4032.4592   -51422.075   0.15729672 
    7400    297.74102    -777.1497    149649.05   -47370.862    4088.7559   -51459.618   0.15802382 
    7600    295.27838   -359.78863    149087.23   -47409.725    4054.9375   -51464.662   0.15396842 
    7800    298.46754   -202.05236    148902.77   -47440.486    4098.7329   -51539.219    0.1477453 
    8000    294.90858   -694.90011    149479.09   -47402.589    4049.8592   -51452.448   0.15530495 
    8200     296.6158   -732.73764    149568.65   -47437.346    4073.3037    -51510.65   0.15893479 
    8400    292.45954   -255.80985    148955.42   -47467.677    4016.2275   -51483.905   0.15704632 
    8600    298.38081   -276.33416    148966.93   -47427.017    4097.5419   -51524.559   0.15500954 
    8800    297.31199   -765.34906    149614.57   -47350.549    4082.8642   -51433.413   0.15825426 
    9000    298.09523   -631.57302     149513.1   -47329.742    4093.6201   -51423.362   0.15718907 
    9200    297.43174   -208.29453    148946.89   -47318.609    4084.5087   -51403.118   0.15556505 
    9400    297.90579   -420.15919     149151.6   -47370.195    4091.0186   -51461.214   0.15326375 
    9600    294.33459   -781.69617    149646.95   -47354.483    4041.9769   -51396.459   0.15697788 
    9800    297.39704   -548.21889    149414.22   -47373.488    4084.0322    -51457.52   0.15280767 
   10000    294.15065   -235.83707     148978.8   -47372.321    4039.4508   -51411.772   0.14794063 
   10200    295.70372   -434.02232    149273.06   -47364.944    4060.7785   -51425.723   0.14964146 
   10400     298.0405   -740.03022       149636   -47348.732    4092.8685     -51441.6   0.15943679 
   10600     300.0825   -471.66584    149334.09   -47333.313    4120.9105   -51454.224   0.15451099 
   10800    295.29046   -312.62376    149027.39   -47367.544    4055.1033   -51422.648   0.15463313 
   11000    296.33545   -490.20986    149291.91   -47408.905    4069.4538   -51478.359   0.15151653 
   11200    300.44035   -688.26594    149519.92   -47423.914    4125.8248   -51549.739   0.15464498 
   11400    290.61468   -471.21293    149231.26   -47452.446    3990.8927   -51443.339    0.1524163 
   11600    292.86831   -368.61371    149087.94   -47424.881    4021.8409   -51446.722   0.15178619 
   11800    289.70435   -592.02784    149369.35   -47496.736    3978.3915   -51475.127   0.15172387 
   12000       291.54   -608.93931    149413.23   -47496.537    4003.5999   -51500.137   0.15371304 
   12200    296.12027   -413.39601    149117.78   -47476.359    4066.4988   -51542.858   0.15075013 
   12400    292.40473   -393.69308    149090.81   -47443.773    4015.4749   -51459.248   0.15242856 
   12600     291.5196   -590.78142    149350.53   -47452.375    4003.3197   -51455.695   0.15890074 
   12800    296.93167   -577.44628    149339.49   -47463.439    4077.6414   -51541.081   0.15369552 
   13000    295.01446    -376.5628    149123.58   -47444.289    4051.3132   -51495.603   0.15032465 
   13200    297.34624   -459.40225     149171.4    -47415.46    4083.3345   -51498.794   0.15104874 
   13400    296.76611   -578.41758    149337.33   -47433.873    4075.3679   -51509.241   0.15369864 
   13600     291.5982   -579.08795    149300.15   -47423.719    4004.3991   -51428.118   0.15323608 
   13800    296.25095   -412.45601    149145.99   -47419.008    4068.2935   -51487.302   0.14951302 
   14000    292.48556   -454.94292    149205.27   -47439.232    4016.5849   -51455.817    0.1539079 
   14200    295.79466   -584.88273    149378.63   -47464.575    4062.0273   -51526.602   0.14839796 
   14400    293.14892   -541.89371    149299.49   -47489.985    4025.6945   -51515.679   0.14632844 
   14600    293.04237   -401.82734    149137.69   -47486.993    4024.2313   -51511.224   0.14644255 
   14800    293.56561   -520.14097    149247.37   -47469.461    4031.4168   -51500.878   0.15547682 
   15000    294.16714   -611.49315     149399.7   -47520.924    4039.6773   -51560.601   0.15156923 
   15200    287.66385   -476.79061    149226.51   -47575.109    3950.3703   -51525.479    0.1474622 
   15400    289.79481   -370.14599    149065.65   -47593.692    3979.6339   -51573.326   0.14262045 
   15600    291.29787   -536.26926    149244.26   -47630.216    4000.2747   -51630.491   0.14700386 
   15800    290.22156   -588.78221    149364.12   -47579.425    3985.4943    -51564.92   0.14800565 
   16000    293.07392   -415.18303    149186.19   -47567.399    4024.6645   -51592.064   0.14251571 
   16200    293.27203   -387.86957    149134.34   -47515.373     4027.385   -51542.758   0.15305048 
   16400    292.28547   -586.93657    149350.44   -47510.338    4013.8371   -51524.175   0.15043765 
   16600    290.04377   -599.50379    149340.21   -47527.212    3983.0527   -51510.264   0.14888251 
   16800    289.14687   -350.19453    149056.02    -47482.35    3970.7359   -51453.086   0.14658519 
   17000    293.43535   -403.27274    149133.71   -47505.086    4029.6278   -51534.713   0.14779482 
   17200    292.97059   -622.47882    149407.23   -47485.611    4023.2456   -51508.857   0.15597102 
   17400    286.51191   -588.17447    149310.66    -47532.59    3934.5511   -51467.142   0.14831574 
   17600    291.18242   -392.87372    149067.88   -47572.915    3998.6893   -51571.604   0.14388503 
   17800    290.72018   -443.86992    149172.11   -47590.741    3992.3415   -51583.082   0.14372779 
   18000    289.12522   -619.78955    149349.44   -47623.856    3970.4387   -51594.294   0.14720503 
   18200    282.22412   -535.32458    149192.84   -47648.815    3875.6687   -51524.484   0.14864924 
   18400    285.64578   -423.37753    149038.58   -47671.874    3922.6569    -51594.53    0.1459831 
   18600    286.41903   -500.30049    149217.44   -47625.584    3933.2756   -51558.859   0.14654878 
   18800    288.38179   -624.43679    149362.45    -47559.17    3960.2295   -51519.399    0.1487022 
   19000    284.90746   -463.95396    149205.45    -47588.67    3912.5178   -51501.188   0.14578334 
   19200    291.37843   -376.33317    149099.56   -47563.115     4001.381   -51564.496   0.14649332 
   19400    294.51165   -558.60434    149266.49   -47554.062    4044.4083    -51598.47   0.15161908 
   19600    284.99235   -614.92141    149311.55   -47581.651    3913.6836   -51495.335   0.15462131 
   19800    288.71613   -474.09499       149143   -47580.712    3964.8207   -51545.533   0.15163463 
   20000    290.53673   -476.21485    149119.47   -47570.429    3989.8223   -51560.251   0.14929467 
   20200     287.4578   -517.39772    149237.05   -47594.981    3947.5407   -51542.522   0.14818795 
   20400    289.40557   -522.16757    149245.68   -47574.543    3974.2885   -51548.831   0.15006338 
   20600    287.95194   -475.59628    149161.13   -47569.729    3954.3265   -51524.055   0.15513007 
   20800    287.75638   -464.67715    149156.12   -47571.032     3951.641   -51522.673   0.15550046 
   21000    287.10076    -562.7527    149219.83   -47565.904    3942.6375   -51508.541   0.15513632 
   21200    292.05629   -549.84285    149234.51   -47556.058    4010.6899   -51566.748   0.15101445 
   21400    293.48861   -479.87741    149221.38    -47551.61    4030.3593    -51581.97   0.15008412 
   21600    289.38647   -532.63323    149261.67    -47506.97    3974.0263   -51480.996   0.15204077 
   21800    293.20311   -504.22469    149273.65   -47457.414    4026.4387   -51483.852   0.15361613 
   22000    297.83424   -457.44047    149225.35    -47464.24    4090.0361   -51554.276   0.14840715 
   22200    294.96208   -434.96623     149199.3   -47421.935    4050.5938   -51472.529   0.14990987 
   22400    293.98861   -530.00221    149277.64   -47398.948    4037.2256   -51436.174    0.1539215 
   22600    297.47521   -560.16454    149293.71   -47405.414    4085.1056    -51490.52   0.15251987 
   22800     290.7678   -506.97872    149195.64    -47442.97    3992.9956   -51435.965   0.16010451 
   23000    295.46983   -445.26222    149179.24   -47461.507    4057.5666   -51519.074   0.15661895 
   23200    294.02479   -516.97792    149247.66   -47454.576    4037.7225   -51492.298   0.15643383 
   23400    292.30415   -528.05649    149253.43   -47464.279    4014.0937   -51478.373   0.15334069 
   23600    292.73072    -515.0696    149188.97   -47481.005    4019.9515   -51500.956   0.15507633 
   23800    296.93672   -480.49863    149183.92   -47420.067    4077.7108   -51497.778   0.15559973 
   24000    294.56935   -566.55578    149288.98   -47456.231    4045.2007   -51501.431    0.1519375 
   24200    291.72278   -524.90402    149248.82   -47438.977    4006.1099   -51445.087   0.15585711 
   24400     291.0095   -434.39264    149129.04   -47445.353    3996.3147   -51441.668   0.15309123 
   24600    294.27609   -472.88299    149195.78   -47444.448    4041.1734   -51485.621   0.15107067 
   24800    296.15289   -524.57482    149302.97   -47366.159    4066.9468   -51433.106   0.15510779 
   25000    295.84015   -531.44232    149255.86   -47364.995    4062.6521   -51427.648   0.15780795 
   25200    293.86494   -395.18887    149132.78   -47389.919    4035.5273   -51425.447   0.16037043 
   25400    291.17602   -495.03283    149198.82   -47453.445    3998.6014   -51452.046   0.15516571 
   25600    289.05229    -622.9538    149357.58   -47474.566    3969.4371   -51444.003   0.15684633 
   25800    296.54047   -517.06326    149270.76   -47452.903    4072.2693   -51525.172   0.14784573 
   26000    289.20792   -463.82747    149128.12   -47431.841    3971.5744   -51403.415    0.1544385 
   26200     292.1433   -510.31354    149247.51   -47478.599    4011.8847   -51490.483   0.15096924 
   26400    294.26609   -568.42418    149360.82   -47500.872    4041.0361   -51541.908   0.14598889 
   26600    290.83334   -513.77634    149211.47   -47511.016    3993.8956   -51504.911   0.15250813 
   26800    290.27218   -418.61261    149089.07   -47516.682    3986.1894   -51502.872   0.14959792 
   27000    294.62865   -567.51839    149259.04   -47516.393     4046.015   -51562.408   0.15378954 
   27200    292.67826   -621.99405    149372.97   -47508.586    4019.2311   -51527.817   0.15304008 
   27400    294.66542   -458.39441    149167.69   -47476.099    4046.5199   -51522.619   0.15633404 
   27600    293.91307   -395.98909    149072.17   -47481.572    4036.1883   -51517.761   0.15463933 
   27800    295.11836   -533.20063    149309.49   -47475.298      4052.74   -51528.038   0.14687347 
   28000    293.64777   -572.51978    149389.38   -47461.808     4032.545   -51494.353   0.14384411 
   28200    294.30166   -471.64193    149155.19   -47482.603    4041.5245   -51524.127   0.15211199 
   28400    295.40596   -399.55463    149080.43   -47477.892    4056.6895   -51534.582    0.1478296 
   28600    293.64465   -558.07911    149308.68   -47495.714    4032.5021   -51528.216   0.14725055 
   28800    288.33297   -573.02529    149339.25   -47504.725     3959.559   -51464.284   0.15459566 
   29000    292.93415   -414.63337    149068.31   -47545.316    4022.7452   -51568.061   0.15411289 
   29200    289.03061   -406.88726    149032.96   -47580.963    3969.1394   -51550.102   0.15194203 
   29400    284.35155   -628.44096    149300.79   -47578.907    3904.8838   -51483.791   0.15386878 
   29600    292.81156   -540.90557    149252.73   -47539.414    4021.0616   -51560.476   0.15256168 
   29800     294.2386   -349.25948    149005.84   -47463.556    4040.6585   -51504.214   0.15486241 
   30000    289.64827   -496.31326    149163.76   -47452.618    3977.6215   -51430.239    0.1518666 
   30200    294.66916    -665.4004     149444.5   -47459.873    4046.5713   -51506.444   0.15071526 
   30400    293.15092   -500.12084     149238.6   -47514.518    4025.7219    -51540.24   0.15042166 
   30600    290.25473    -298.0697    148929.68   -47463.552    3985.9497   -51449.502    0.1485744 
   30800    295.60549   -491.10011    149227.99   -47430.013    4059.4295   -51489.443   0.14885924 
   31000    293.29986   -706.25459    149600.12   -47412.869    4027.7673   -51440.637   0.15421998 
   31200    296.97872   -491.12541       149244   -47419.265    4078.2876   -51497.553   0.15378554 
   31400    294.39196   -252.64078    148873.09    -47419.68    4042.7646   -51462.445   0.15158066 
   31600    293.88855   -573.05932    149312.43   -47480.153    4035.8515   -51516.004   0.14909856 
   31800    295.54526   -766.93097     149628.3   -47448.306    4058.6024   -51506.909   0.15769007 
   32000    294.94274   -398.40673    149165.67   -47422.586    4050.3283   -51472.914   0.14952907 
   32200    289.63091   -230.61384    148933.03   -47459.066    3977.3831   -51436.449   0.14537216 
   32400    292.80655   -588.57427    149447.65   -47450.259    4020.9928   -51471.252   0.15212241 
   32600    294.83528   -780.41021    149618.99   -47435.063    4048.8525   -51483.915   0.15468701 
   32800      292.426   -321.27648    149063.29     -47435.7    4015.7669   -51451.467   0.14826897 
   33000    294.33195   -277.30051       149021   -47427.197    4041.9405   -51469.137   0.14509847 
   33200    294.31791   -740.50337    149642.77   -47416.905    4041.7477   -51458.652   0.15391849 
   33400    294.24465   -734.61519    149589.94   -47378.495    4040.7417   -51419.237   0.15541942 
   33600     302.8812   -252.24261    148957.67   -47316.307     4159.344   -51475.651   0.14915515 
   33800    300.65365   -313.74359    149110.45   -47352.132    4128.7539   -51480.886     0.146925 
   34000    299.16263   -777.28684    149690.11   -47369.096    4108.2783   -51477.374   0.15232822 
   34200    295.97127   -607.97496     149429.7   -47402.139    4064.4526   -51466.592   0.14852447 
   34400    295.73246     -193.312    148850.14    -47473.16    4061.1732   -51534.333    0.1442503 
   34600    296.21142   -424.12242    149150.33   -47446.216    4067.7506   -51513.966   0.14840266 
   34800    289.59793   -846.37108    149663.94   -47482.386    3976.9302   -51459.317   0.15579067 
   35000    295.40468   -491.46824    149266.68   -47510.637    4056.6719   -51567.309   0.14415436 
   35200    292.59823   -146.77503    148820.57   -47499.387    4018.1321   -51517.519   0.14290437 
   35400    293.63296    -527.6888    149291.05   -47457.771    4032.3416   -51490.112   0.14783035 
   35600    296.35762   -786.76189    149659.55   -47448.434    4069.7583   -51518.192   0.15501051 
   35800     293.9245   -439.42522    149178.26   -47452.441    4036.3452   -51488.786   0.14802443 
   36000    293.94008   -210.50264    148913.75   -47455.237    4036.5591   -51491.796    0.1432862 
   36200    289.22704    -623.3946    149360.74   -47468.652    3971.8368   -51440.489   0.15512149 
   36400    294.78119   -703.63293     149514.2   -47493.471    4048.1098   -51541.581    0.1496129 
   36600    295.07649   -422.85958    149143.92   -47469.638     4052.165   -51521.803    0.1451507 
   36800    291.55664    -397.9225     149080.4   -47514.563    4003.8284   -51518.391   0.14623813 
   37000    292.22283   -567.53881     149329.4   -47502.366    4012.9768   -51515.343   0.15043965 
   37200    291.44948   -591.33705    149354.45   -47462.869    4002.3568   -51465.225   0.15236781 
   37400    286.69119   -451.87879    149170.49   -47454.956    3937.0132    -51391.97   0.15076719 
   37600    292.37394   -460.91299    149172.94   -47484.621     4015.052   -51499.673   0.15252404 
   37800    295.09379   -560.98405    149327.95   -47448.818    4052.4026   -51501.221   0.15204442 
   38000    291.81753   -535.27887    149304.81   -47502.248    4007.4111   -51509.659   0.14622017 
   38200    294.68848   -423.50636    149143.59   -47498.293    4046.8366   -51545.129   0.14464043 
   38400    293.28163   -434.60906    149197.35    -47463.29    4027.5169   -51490.807   0.14899912 
   38600    295.86612   -564.31172    149376.98   -47458.734    4063.0087   -51521.743   0.14509047 
   38800    293.28711   -547.56642    149322.44    -47511.02    4027.5922   -51538.612   0.14117987 
   39000    294.59575   -447.78875    149158.78   -47540.794    4045.5632   -51586.357   0.13914131 
   39200    285.01144   -491.25141    149207.88   -47559.964    3913.9458    -51473.91   0.14890918 
   39400    290.21575   -569.72675    149331.95   -47550.482    3985.4145   -51535.897    0.1467893 
   39600    287.64623   -493.94383    149244.75   -47621.297    3950.1283   -51571.426   0.14333149 
   39800    289.00105   -399.14682    149087.08   -47611.443    3968.7335   -51580.176    0.1470508 
   40000    284.51114   -534.21123    149192.08   -47622.089    3907.0754   -51529.165   0.14689654 
   40200    289.35671   -590.04795    149319.84    -47595.12    3973.6176   -51568.738   0.14664568 
   40400    288.56567   -543.29942    149206.91   -47590.569    3962.7546   -51553.323    0.1507548 
   40600    291.28411   -426.49352    149078.36   -47619.757    4000.0858   -51619.843   0.14755162 
   40800    288.80093   -482.10894     149170.8   -47636.825    3965.9854    -51602.81   0.14207205 
   41000    290.94918   -564.66537    149253.59   -47591.967    3995.4863   -51587.454   0.14589155 
   41200    286.81104   -496.42517    149122.84   -47625.204     3938.659   -51563.863   0.15141848 
   41400    292.13894   -439.38966    149052.91   -47590.793    4011.8249   -51602.618   0.15544042 
   41600    292.07831   -572.65709    149235.79   -47584.798    4010.9923    -51595.79    0.1535696 
   41800    291.76665   -567.00387    149256.83   -47581.828    4006.7123    -51588.54   0.15054685 
   42000     292.1455   -418.12177    149037.53   -47555.494    4011.9149   -51567.409   0.15212784 
   42200    285.75722   -453.66888    149050.41   -47581.555    3924.1873   -51505.742    0.1512669 
   42400     286.5574   -588.81801    149295.65    -47630.12    3935.1758   -51565.296   0.14687033 
   42600    288.39671   -568.10101     149235.4   -47657.661    3960.4343   -51618.095   0.14825142 
   42800    284.12148    -370.8387     148959.6   -47659.829    3901.7243   -51561.553   0.15443707 
   43000    289.74511    -402.4061     149071.8   -47614.114    3978.9513   -51593.065   0.14619258 
   43200    291.24937   -672.90683    149448.11   -47613.329    3999.6087   -51612.938   0.14274708 
   43400    290.34561   -532.94304    149237.77   -47605.762    3987.1978    -51592.96   0.14852282 
   43600    286.49609   -249.59907    148858.73   -47603.829    3934.3338   -51538.163   0.14846904 
   43800    287.53324   -488.57535    149192.08   -47575.687    3948.5766   -51524.263   0.15025936 
   44000    291.60292   -793.58106    149614.67   -47590.679    4004.4639   -51595.143   0.14619392 
   44200    284.12265   -552.35212    149148.95   -47638.071    3901.7404   -51539.811   0.15511144 
   44400    287.69052   -162.59742    148701.16   -47614.978    3950.7365   -51565.715   0.14880316 
   44600    293.63807   -524.53242    149280.02   -47548.872    4032.4118   -51581.284   0.14414079 
   44800    288.75575   -879.22463    149704.33   -47508.485    3965.3648   -51473.849   0.15789369 
   45000     286.7613   -409.99892    149077.42   -47550.328    3937.9759   -51488.304   0.15116718 
   45200    289.67148   -133.30174    148735.44   -47573.482    3977.9402   -51551.422   0.15087428 
   45400    290.53302   -706.54477    149390.56   -47620.444    3989.7715   -51610.215   0.14821985 
   45600    286.04168   -855.04927    149614.58    -47603.99    3928.0936   -51532.084   0.15339586 
   45800    292.05635   -291.61276    148912.67   -47583.456    4010.6907   -51594.147   0.15276788 
   46000    291.71699   -216.64683     148806.6    -47580.17    4006.0304   -51586.201    0.1493751 
   46200    286.44075   -731.40105    149517.71   -47607.094     3933.574   -51540.668   0.15246674 
   46400    287.23997   -712.08832    149505.91   -47588.823    3944.5493   -51533.372   0.15153639 
   46600     289.3291   -233.32951    148867.32   -47590.077    3973.2385   -51563.315   0.14720978 
   46800    290.38246   -363.02198    148965.86   -47554.308    3987.7038   -51542.012   0.15234819 
   47000    292.51876   -723.30052    149539.25   -47528.008    4017.0407   -51545.048    0.1528815 
   47200    290.91674   -615.12447     149401.5   -47497.799    3995.0409    -51492.84    0.1542897 
   47400     293.8723   -275.10088    148892.45   -47431.653    4035.6283   -51467.282   0.15302857 
   47600    296.78923    -373.5824    149108.35   -47404.002    4075.6854   -51479.688   0.14831396 
   47800    297.03328   -745.89397    149570.22   -47367.625    4079.0368   -51446.662   0.15867199 
   48000    297.84821   -525.76493    149288.54   -47374.159    4090.2279   -51464.387   0.15350534 
   48200    302.31932   -218.15051    148918.38   -47376.747    4151.6279   -51528.375   0.14865928 
   48400    298.60915   -512.97224    149281.11    -47354.07    4100.6776   -51454.747   0.15475352 
   48600    301.19766   -734.67935    149595.61   -47416.619    4136.2245   -51552.843   0.15028671 
   48800    296.23872   -438.97186    149197.01   -47360.961    4068.1254   -51429.087   0.15265049 
   49000    300.49912   -273.32215    148997.75   -47341.225    4126.6317   -51467.857   0.14658894 
   49200    293.98611   -653.59724     149457.5   -47374.479    4037.1913   -51411.671   0.15556253 
   49400    297.44489   -705.10694     149587.1   -47384.143    4084.6893   -51468.832   0.15342159 
   49600     293.6337   -388.82139     149105.7   -47406.692    4032.3517   -51439.043   0.15340401 
   49800    293.68522   -304.26369    149031.39   -47388.631    4033.0593   -51421.691   0.15012523 
   50000    294.91164   -688.10199    149507.11   -47387.198    4049.9012   -51437.099   0.15457888 
   50200    293.23438   -650.55384    149478.69   -47424.356     4026.868   -51451.224   0.15204632 
   50400    298.08592   -283.85127    149000.95   -47433.291    4093.4923   -51526.784   0.14667294 
   50600    294.45989    -353.7449    149096.82   -47454.368    4043.6975   -51498.065   0.14937947 
   50800    295.97733   -700.02965    149548.15    -47462.77    4064.5359   -51527.305   0.15058472 
   51000    294.54205   -594.63236    149371.04   -47398.662    4044.8258   -51443.488     0.151948 
   51200     293.6997     -288.116    148993.13   -47431.726    4033.2581   -51464.984   0.14981637 
   51400    294.23052   -472.88709    149248.82   -47394.163    4040.5476   -51434.711   0.15501569 
   51600     295.6561   -715.20496    149592.91    -47392.91    4060.1246   -51453.035   0.15719244 
   51800    298.88837   -504.38108    149301.53   -47391.661     4104.512   -51496.173   0.15121038 
   52000    301.77568   -260.24883    149045.28   -47354.823    4144.1622   -51498.985   0.14664172 
   52200    303.89395     -515.187    149382.77   -47326.642    4173.2516   -51499.894   0.14852252 
   52400    298.22395   -669.59326    149554.42   -47304.946    4095.3878   -51400.334   0.15781344 
   52600    296.31671    -481.7681    149261.56   -47345.623    4069.1965   -51414.819   0.15282359 
   52800    294.42557    -348.6289    149110.85    -47366.13    4043.2262   -51409.356   0.15227367 
   53000    296.95499   -539.18771    149340.85    -47370.05    4077.9617   -51448.012   0.15415726 
   53200    297.89415   -577.59791    149375.42   -47378.289    4090.8588   -51469.148   0.15344337 
   53400    297.51575   -417.22156    149172.78   -47409.179    4085.6623   -51494.842   0.14714473 
   53600    298.38555   -430.33193    149183.28   -47436.434     4097.607   -51534.041   0.14692626 
   53800    290.83783   -585.25275    149341.92   -47411.576    3993.9572   -51405.533   0.15821568 
   54000    294.36491   -554.09763    149321.17   -47402.476    4042.3932   -51444.869   0.15034406 
   54200    292.55683   -493.00475    149224.15   -47411.385    4017.5636   -51428.949   0.15089754 
   54400    293.83874   -473.18073    149257.12   -47438.655    4035.1676   -51473.822   0.14929284 
   54600    294.37907    -552.9085       149329   -47433.318    4042.5876   -51475.906   0.15299246 
   54800    296.23058   -479.52978    149305.31   -47377.044    4068.0137   -51445.057    0.1482614 
   55000    303.98022   -436.63232    149269.53   -47380.426    4174.4363   -51554.862   0.14552964 
   55200    301.74339   -485.52295    149287.91   -47410.776    4143.7188   -51554.495   0.14839508 
   55400    295.00167   -459.53478    149329.72   -47434.003    4051.1375   -51485.141   0.14633461 
   55600    294.21278    -528.5321    149350.41   -47471.882     4040.304   -51512.186   0.14721594 
   55800     292.5791   -487.22159    149275.99   -47444.603    4017.8694   -51462.472   0.15000301 
   56000     290.7735   -503.84148    149261.37   -47429.403    3993.0739   -51422.477   0.15269627 
   56200    297.18309   -515.04966    149293.51    -47464.19    4081.0941   -51545.284   0.14934351 
   56400    294.66945   -480.71301    149262.34   -47466.979    4046.5753   -51513.554   0.14845601 
   56600    293.80894   -498.43864    149255.12   -47470.743    4034.7583   -51505.501   0.14808803 
   56800     293.2477   -498.99737    149279.07   -47419.526     4027.051   -51446.577   0.15061871 
   57000    294.92278    -527.9962    149291.99   -47426.441    4050.0542   -51476.495   0.15208788 
   57200    293.60995   -492.96215    149270.11   -47456.952    4032.0256   -51488.978   0.14967844 
   57400     292.2424   -470.55006    149259.18   -47475.549    4013.2456   -51488.795   0.14940273 
   57600    291.92985   -500.32111    149293.57   -47465.131    4008.9535   -51474.084   0.14388183 
   57800    292.56654   -546.96802    149306.06   -47478.036    4017.6969   -51495.733   0.14554675 
   58000     294.8912   -466.12044    149223.93   -47491.675    4049.6205   -51541.295   0.14748863 
   58200    291.29145   -450.84018    149193.21   -47532.251    4000.1866   -51532.438   0.15115288 
   58400    289.60831   -530.62691    149276.78   -47523.477    3977.0727    -51500.55   0.14691694 
   58600     288.8543   -574.67872    149348.46   -47501.889    3966.7183   -51468.607   0.14690502 
   58800    290.46701   -521.50951    149265.46   -47535.196    3988.8649   -51524.061   0.14472758 
   59000    295.32635   -442.95348    149131.41   -47560.324    4055.5962    -51615.92   0.14513464 
   59200    289.93367   -498.21084    149190.22   -47559.036    3981.5408   -51540.577    0.1460943 
   59400    290.34346   -565.71305    149339.11   -47499.253    3987.1682   -51486.421   0.14612142 
   59600    293.63981   -562.79759    149293.94   -47495.946    4032.4356   -51528.382   0.14794067 
   59800    301.39803    -382.4333    149106.16   -47482.604    4138.9762    -51621.58   0.14166844 
   60000    291.18135   -465.18494     149195.4   -47467.526    3998.6747   -51466.201   0.14952414 
   60200    291.66152   -630.07805    149399.65   -47437.047    4005.2686   -51442.315   0.15433276 
   60400    302.01206   -481.98576    149256.49   -47407.004    4147.4084   -51554.412   0.14715563 
   60600    296.78798   -358.38967    149080.28   -47449.179    4075.6682   -51524.847   0.14587014 
   60800    299.05927   -518.47469    149303.67   -47385.235    4106.8589   -51492.094   0.14551303 
   61000    297.17199   -676.92161    149469.04   -47425.045    4080.9416   -51505.987   0.15051923 
   61200    294.25497   -454.55753    149207.25   -47431.071    4040.8834   -51471.955    0.1505593 
   61400    300.17879   -354.24118    149095.17   -47429.885    4122.2328   -51552.118   0.14464913 
   61600     294.7112   -569.26425    149371.18   -47419.041    4047.1487   -51466.189   0.14852853 
   61800    296.13212   -614.12465    149449.97   -47419.014    4066.6616   -51485.675   0.14636435 
   62000    299.35839   -387.47657    149165.39   -47446.664    4110.9666   -51557.631   0.14381452 
   62200    296.99125    -383.9703    149127.48   -47458.275    4078.4597   -51536.735   0.14383313 
   62400    291.91511   -622.66829    149423.37   -47415.392     4008.751   -51424.143   0.15146755 
   62600    292.26422   -589.33359     149389.5   -47437.182    4013.5452   -51450.727   0.14935501 
   62800    294.74087   -337.52623    149035.96   -47415.959     4047.556   -51463.515   0.14738386 
   63000    295.82602   -400.18989    149167.38   -47382.645     4062.458   -51445.103   0.14572696 
   63200    294.55569   -746.47562    149547.61   -47384.349    4045.0131   -51429.362   0.15417153 
   63400    301.68769   -508.61923     149346.3   -47342.584    4142.9539   -51485.538   0.14852669 
   63600    296.78413   -257.04029    149006.76   -47323.514    4075.6153    -51399.13   0.14616173 
   63800    300.83434   -498.59748    149288.44   -47351.234    4131.2352   -51482.469   0.14876456 
   64000    292.17649   -761.99422    149595.11   -47339.738    4012.3405   -51352.079   0.15712343 
   64200    302.14839   -437.38339    149231.74   -47344.755    4149.2805   -51494.036   0.14888074 
   64400    299.31737   -241.57971    148932.78   -47333.351    4110.4033   -51443.754    0.1453109 
   64600    296.29613   -518.88185    149333.49   -47387.432    4068.9138   -51456.346    0.1497325 
   64800    289.53661    -746.8094    149584.63   -47394.801    3976.0881   -51370.889   0.15982975 
   65000    293.73139   -384.67839    149154.13   -47387.002    4033.6933   -51420.695   0.14762259 
   65200    291.48062   -293.11158    148947.81   -47416.466    4002.7843   -51419.251   0.14980324 
   65400    293.79731    -626.6056    149402.88   -47439.281    4034.5985   -51473.879   0.15170093 
   65600    293.33608   -755.08335    149536.16    -47461.24    4028.2647   -51489.504    0.1549967 
   65800     293.7109   -337.38346    149026.02    -47438.76     4033.412   -51472.172   0.14769743 
   66000     294.2674   -294.99186    148987.62   -47439.019    4041.0542   -51480.073   0.14736962 
   66200    291.81687   -722.25525    149573.44   -47460.971    4007.4019   -51468.373     0.149618 
   66400    295.89209   -721.19331    149521.41    -47456.38    4063.3653   -51519.745   0.15114588 
   66600    294.25658   -203.15335    148881.71   -47473.878    4040.9055   -51514.784   0.14436276 
   66800    295.92656   -319.33344    149034.65   -47457.266    4063.8387   -51521.105   0.14875954 
   67000    295.69015   -835.88283    149707.51   -47480.205    4060.5921   -51540.797   0.15386818 
   67200    296.24875   -627.53739     149405.1   -47504.615    4068.2632   -51572.878   0.14472099 
   67400    291.37096   -125.19748    148719.31   -47542.327    4001.2785   -51543.605   0.14319006 
   67600    293.86295   -408.45398    149165.66   -47495.645    4035.4999   -51531.145   0.14574058 
   67800    289.88602   -921.28473    149837.38   -47434.507    3980.8864   -51415.394   0.15474326 
   68000    296.75645   -486.31042    149276.65   -47436.298    4075.2352   -51511.533    0.1451411 
   68200    294.29309   -52.733309    148675.02   -47513.365    4041.4069   -51554.772   0.14092115 
   68400    297.22388   -548.31011     149316.4   -47454.553    4081.6542   -51536.208   0.14539888 
   68600    293.34844   -910.68358    149806.16   -47433.279    4028.4345   -51461.714   0.15111211 
   68800    297.63673   -409.10909    149156.99   -47406.034    4087.3238   -51493.358   0.14356337 
   69000     293.9176   -123.85961    148804.56   -47453.869    4036.2505   -51490.119   0.14305138 
   69200    290.03769   -658.03027    149416.62   -47456.753    3982.9693   -51439.722   0.15389896 
   69400    292.82691   -781.52689    149605.61   -47493.976    4021.2724   -51515.248   0.14917523 
   69600    291.98514    -382.8044    149056.13   -47511.397    4009.7128    -51521.11   0.14650188 
   69800    299.25853   -311.48869    148980.76    -47479.51    4109.5953   -51589.105   0.14677556 
   70000    300.42631   -674.36076     149465.2   -47437.541     4125.632   -51563.173   0.15130228 
   70200     295.0853   -664.95606    149491.99   -47418.248    4052.2861   -51470.534   0.14862357 
   70400    290.61104   -354.45435    149125.21   -47435.434    3990.8428   -51426.277   0.14577673 
   70600    295.14819   -402.29481    149169.26   -47409.016    4053.1496   -51462.165   0.14904511 
   70800    291.13593   -668.29776    149498.14   -47430.741     3998.051   -51428.792   0.14790765 
   71000    294.38649   -589.47827    149394.17   -47477.807    4042.6895   -51520.496   0.14320427 
   71200    286.39905   -386.88187    149070.48   -47488.023    3933.0013   -51421.025   0.15050076 
   71400    293.72264   -414.45446    149178.21   -47455.077    4033.5732    -51488.65   0.14663964 
   71600    289.86811   -631.90164    149475.94   -47429.517    3980.6404   -51410.158   0.14858901 
   71800    290.70034   -567.19919    149328.77   -47450.466    3992.0692   -51442.535   0.14761516 
   72000    289.39719   -362.46863     149070.3    -47478.33    3974.1735   -51452.504   0.14583471 
   72200    289.61885   -494.73639    149242.49   -47513.527    3977.2175   -51490.744   0.14398694 
   72400    293.46345   -667.04886    149465.31   -47493.196    4030.0138    -51523.21   0.14583866 
   72600    294.36418   -509.33084    149272.56   -47460.257    4042.3832    -51502.64   0.14859669 
   72800    295.25364   -353.48358    149073.99   -47539.552    4054.5978    -51594.15   0.14381282 
   73000    289.37185   -517.61749    149270.29   -47535.529    3973.8256   -51509.354    0.1424552 
   73200    291.72416   -630.90768       149449   -47547.597    4006.1288   -51553.726   0.14494942 
   73400    294.67186   -468.36795    149210.91    -47544.41    4046.6084   -51591.018   0.14804917 
   73600    293.95437   -357.78499    149052.06   -47528.222    4036.7554   -51564.977   0.14874298 
   73800     291.3874   -523.77865    149306.43   -47521.262    4001.5043   -51522.766   0.14808845 
   74000    292.18709   -622.54826    149427.87   -47568.415     4012.486   -51580.901   0.14648123 
   74200    290.19345   -428.15002    149164.56   -47565.949    3985.1082   -51551.057   0.14625404 
   74400    290.65905   -422.76502    149105.58   -47528.621    3991.5021   -51520.123   0.14704104 
   74600    290.35862   -614.72965    149390.13   -47549.877    3987.3765   -51537.253   0.14947913 
   74800    291.42544   -639.07426    149380.42   -47560.106    4002.0267   -51562.133   0.14991975 
   75000    289.28692   -317.14247    149053.37   -47524.592    3972.6592   -51497.252   0.14531212 
   75200    294.09736   -421.46111    149128.56   -47511.532     4038.719   -51550.251   0.14747197 
   75400    297.69121   -622.34168    149481.04   -47495.899    4088.0719   -51583.971   0.14721845 
   75600    297.01155    -568.6862    149366.53   -47475.181    4078.7385   -51553.919   0.15259019 
   75800    297.90218   -273.52793    148990.43   -47454.918     4090.969   -51545.887   0.14710707 
   76000     295.2123   -443.88131    149155.42   -47439.546      4054.03   -51493.576   0.14977232 
   76200    290.77199   -736.19139    149540.04   -47462.094    3993.0531   -51455.147   0.15491817 
   76400    292.04154   -516.50712    149282.05   -47433.129    4010.4872   -51443.616   0.15487334 
   76600    297.10301   -211.24216    148873.83   -47423.413    4079.9944   -51503.407   0.14824894 
   76800    293.11206   -500.50451    149247.59   -47421.309    4025.1883   -51446.497   0.14956298 
   77000    298.81843   -815.45532    149718.08   -47418.816    4103.5516   -51522.367   0.15025945 
   77200    294.96307   -437.98242    149215.79   -47469.649    4050.6075   -51520.257   0.14865518 
   77400     290.7533   -94.820334    148786.94   -47460.913    3992.7963    -51453.71   0.14119075 
   77600    296.86071   -610.33439    149451.47   -47475.072     4076.667   -51551.739   0.14574169 
   77800    289.78023   -943.56636    149840.34   -47482.166    3979.4336   -51461.599    0.1560768 
   78000     294.1357   -313.05735     149021.2   -47489.859    4039.2455   -51529.105   0.14641051 
   78200    291.05837   -52.974321    148726.36   -47486.308    3996.9859   -51483.294   0.14614358 
   78400    289.75532   -755.02461    149660.39   -47500.437    3979.0916   -51479.528    0.1491256 
   78600    284.65195   -910.17389    149816.46   -47515.212    3909.0091   -51424.221    0.1533863 
   78800    297.67897   -158.60651    148856.79   -47510.495    4087.9038   -51598.398    0.1385576 
   79000     297.1115   -155.31507    148859.34   -47493.755     4080.111   -51573.866   0.13914935 
   79200    296.59877   -895.40256    149806.73   -47497.161    4073.0699   -51570.231   0.15094169 
   79400    297.24993   -743.11177    149650.39   -47451.108     4082.012   -51533.119   0.14851401 
   79600    290.41515   -153.74464    148810.48    -47446.73    3988.1527   -51434.883   0.14855126 
   79800    293.14942    -292.0725    149070.51   -47473.167    4025.7013   -51498.868   0.14413406 
   80000    289.21015   -901.87827    149747.48   -47438.266    3971.6049   -51409.871   0.15860414 
   80200    294.44346    -580.7945    149417.13   -47405.598    4043.4719    -51449.07   0.14948976 
   80400    302.03397   -191.77805    148929.89    -47380.07    4147.7092   -51527.779   0.14531137 
   80600     299.1038   -474.76923    149297.83   -47398.942    4107.4705   -51506.412   0.14672299 
   80800    300.24377   -812.23858    149678.38   -47338.449    4123.1251   -51461.574   0.15412881 
   81000    297.93088   -533.66374    149302.55    -47394.28    4091.3631   -51485.643   0.15065266 
   81200     298.8561   -244.45437    148959.91   -47376.187    4104.0689   -51480.256   0.15089688 
   81400    299.79567   -472.23662    149340.63   -47351.302    4116.9716   -51468.273   0.14557369 
   81600    296.48907   -733.52491    149652.96   -47368.798    4071.5634   -51440.361   0.15125755 
   81800    299.96815   -450.82693    149239.55   -47377.412    4119.3402   -51496.752   0.14931321 
   82000    296.20392   -276.38385    148992.13   -47344.166    4067.6475   -51411.814   0.15173946 
   82200    297.54672   -568.82117    149414.76   -47388.147    4086.0877   -51474.235   0.14958562 
   82400    296.39656   -702.21526    149605.06   -47387.387     4070.293    -51457.68   0.14963197 
   82600     293.0785   -444.08999    149156.18   -47435.027    4024.7275   -51459.754   0.14975415 
   82800    291.32749   -278.77177    148982.82   -47476.388    4000.6815    -51477.07    0.1453921 
   83000    294.12988   -566.54767    149418.73   -47456.833    4039.1656   -51495.998   0.14916309 
   83200    294.45588   -708.81811    149549.09   -47475.371    4043.6425   -51519.013   0.15399676 
   83400    291.92928   -361.61266    149096.43   -47499.181    4008.9457   -51508.127   0.14654638 
   83600    291.64146   -328.75191     149020.1   -47515.855    4004.9931   -51520.848   0.15083064 
   83800     297.9401   -602.40834    149446.35   -47463.086    4091.4898   -51554.576   0.15323467 
   84000    291.96223   -660.62954    149465.43   -47491.377    4009.3981   -51500.775   0.15245386 
   84200    292.11464   -336.39236    149057.02   -47481.803    4011.4912   -51493.295   0.14864184 
   84400    293.87259      -359.44    149080.33   -47485.817    4035.6323   -51521.449   0.15218014 
   84600    295.61644   -660.81357    149444.29   -47479.661      4059.58   -51539.241   0.14800656 
   84800     298.2065   -582.13267    149370.11   -47490.284    4095.1482   -51585.432   0.14618605 
   85000    293.27853   -365.36438    149034.72   -47455.215    4027.4744   -51482.689    0.1560629 
   85200    295.88893   -431.55328    149209.25   -47424.886     4063.322   -51488.208   0.15052393 
   85400    296.75392   -658.67066    149554.38   -47408.202    4075.2005   -51483.402   0.14899574 
   85600    294.61698   -532.92702    149306.55   -47407.603    4045.8548   -51453.458   0.15297672 
   85800    293.63208   -267.46841    148945.44   -47424.215    4032.3296   -51456.544   0.15487594 
   86000    297.33472   -474.11526    149295.75   -47376.424    4083.1763   -51459.601   0.15349043 
   86200    293.42825   -750.13221    149682.05   -47382.683    4029.5304   -51412.214   0.15398594 
   86400    298.03282   -451.68322    149270.13   -47379.749     4092.763   -51472.512   0.15013231 
   86600    297.34076   -214.43388    148915.92   -47381.534    4083.2593   -51464.793   0.15416102 
   86800    296.79612   -620.50878    149387.58   -47409.333    4075.7799   -51485.113   0.15616729 
   87000    294.70943   -760.29863    149646.39   -47428.056    4047.1243    -51475.18   0.15581492 
   87200    296.34587   -373.96792    149086.48   -47402.287    4069.5969   -51471.884   0.15211199 
   87400    300.79247   -235.71394    148915.95   -47366.249    4130.6602   -51496.909   0.15157185 
   87600    290.22938   -704.55025    149520.64   -47428.431    3985.6016   -51414.033   0.16273908 
   87800     292.1571   -757.73056    149581.42   -47433.523    4012.0742   -51445.597   0.15656854 
   88000    298.28952    -267.6778    148972.49   -47389.449    4096.2882   -51485.737   0.15114009 
   88200    298.89343   -298.41903    149035.31   -47402.291    4104.5814   -51506.872   0.14971438 
   88400    300.63271   -737.71737     149654.8   -47383.115    4128.4663   -51511.581   0.14677017 
   88600    291.22057   -670.64822     149540.8   -47397.835    3999.2132   -51397.048   0.15533795 
   88800    298.18038    -199.9331    148950.35   -47391.863    4094.7895   -51486.652   0.14805986 
   89000    298.81257   -352.02043    149148.36    -47414.73    4103.4711   -51518.201   0.14574603 
   89200    294.92882   -762.63907    149697.42   -47383.394    4050.1372   -51433.531   0.15212375 
   89400    298.83985   -606.98933    149432.79   -47358.029    4103.8457   -51461.874   0.15323045 
   89600    300.74915   -226.44157    148971.36   -47384.462    4130.0653   -51514.527   0.15099094 
   89800    296.56353   -501.35666    149283.51   -47419.702    4072.5859   -51492.288   0.15179507 
   90000    293.12156   -726.25171    149640.47   -47432.118    4025.3187   -51457.437   0.14996357 
   90200    292.43547   -477.07975    149273.93   -47480.665     4015.897   -51496.562   0.14686487 
   90400    293.31189   -247.46478    148966.48   -47503.427    4027.9325    -51531.36   0.14621191 
   90600    292.54091   -551.70971    149366.11   -47493.548    4017.3449   -51510.893   0.15191493 
   90800    291.78572   -715.25308    149603.91   -47515.128    4006.9743   -51522.102   0.15069403 
   91000    296.74827   -456.63025    149214.68   -47519.728    4075.1229   -51594.851   0.14683176 
   91200    290.33551   -287.91844    149005.07   -47533.714    3987.0591   -51520.773    0.1481424 
   91400     296.8155   -572.14716    149357.47   -47523.549    4076.0461   -51599.595   0.15072669 
   91600    289.70772   -670.96284    149472.31   -47525.106    3978.4379   -51503.544   0.15475993 
   91800    295.06825   -423.48695    149113.62   -47504.178    4052.0518    -51556.23   0.15394685 
   92000    293.86749   -351.39403    149049.68   -47519.454    4035.5623   -51555.016   0.14578844 
   92200    290.30534   -611.82291    149361.26   -47539.044    3986.6448   -51525.689   0.15070339 
   92400    292.80554   -622.60466    149395.12   -47516.296    4020.9789   -51537.275   0.15188549 
   92600    290.51395   -424.46165    149127.31   -47576.379    3989.5095   -51565.889   0.15208178 
   92800    290.15359   -427.04619    149142.82   -47544.418    3984.5609   -51528.979   0.14740427 
   93000    293.18352    -582.4048    149384.38   -47469.581    4026.1696   -51495.751   0.14916437 
   93200    292.79727   -564.09102    149334.87   -47469.084    4020.8654   -51489.949   0.15182824 
   93400    292.60976   -372.22597     149101.8   -47472.946    4018.2904   -51491.237   0.15004551 
   93600    293.45182   -482.36054    149181.85    -47456.17    4029.8541   -51486.024   0.15311062 
   93800     297.3895   -650.81892    149395.16   -47445.539    4083.9286   -51529.468   0.15056556 
   94000    293.92381   -548.06766    149298.04   -47446.424    4036.3357   -51482.759   0.15237813 
   94200    288.72861   -357.98625    149087.84   -47530.091    3964.9922   -51495.084   0.14816112 
   94400    292.75026   -473.14842    149211.91    -47514.84    4020.2199   -51535.059   0.14846097 
   94600    289.46679   -591.31793     149364.8   -47510.441    3975.1293    -51485.57   0.15284391 
   94800    291.08721    -486.7042    149211.38   -47563.989    3997.3818   -51561.371   0.14925876 
   95000    290.59476    -421.2469    149096.64   -47570.582    3990.6193   -51561.201   0.15201899 
   95200    290.06079   -542.78599    149247.62   -47575.527    3983.2865   -51558.813   0.15073661 
   95400    291.13318    -577.5562    149330.52   -47586.971    3998.0132   -51584.984   0.15454753 
   95600    291.20487   -469.42729    149185.54   -47549.293    3998.9976   -51548.291   0.14863172 
   95800     288.2887   -419.18042    149158.35   -47513.352     3958.951   -51472.303    0.1483061 
   96000    296.33525   -525.13459    149327.98   -47505.027    4069.4511   -51574.478   0.14395817 
   96200    294.27783   -557.25411    149332.96   -47547.603    4041.1973     -51588.8   0.15127401 
   96400    290.85822   -424.06726    149154.34   -47541.575    3994.2372   -51535.812   0.15079223 
   96600    290.87946   -478.81486     149175.3    -47554.08     3994.529   -51548.609   0.14369424 
   96800    284.98304   -565.46132    149345.55    -47604.68    3913.5557   -51518.235   0.14909668 
   97000    291.11248   -518.76676    149254.15   -47589.828    3997.7289   -51587.557   0.15092557 
   97200    287.87108   -376.71778    149091.04   -47577.155    3953.2161   -51530.371   0.15268588 
   97400    293.13521   -547.15599    149254.25   -47531.065    4025.5062   -51556.572   0.15064088 
   97600     297.3362   -607.02237     149440.9   -47501.102    4083.1966   -51584.299    0.1491759 
   97800    295.91965   -464.05832    149243.62   -47496.758    4063.7438   -51560.502   0.14716929 
   98000    294.86459   -333.13495    149030.91    -47469.61     4049.255   -51518.865   0.14875038 
   98200    294.71167   -550.19991    149333.21   -47478.334     4047.155   -51525.489   0.15217406 
   98400    292.39707   -725.88383    149562.03   -47404.682    4015.3696   -51420.052   0.15706431 
   98600    294.19272   -424.81716    149173.83    -47456.06    4040.0285   -51496.088   0.15356101 
   98800    295.49891   -270.01108    148945.48   -47418.991    4057.9659   -51476.957    0.1535273 
   99000    295.54251   -644.16908    149419.52   -47419.452    4058.5647   -51478.016   0.15903567 
   99200    296.99065   -759.63307     149586.2   -47482.713    4078.4514   -51561.164   0.16108898 
   99400    288.27079   -402.73794    149042.87    -47580.16    3958.7051   -51538.865   0.15601117 
   99600    287.67244   -276.88617    148887.03   -47605.208    3950.4883   -51555.697   0.14555474 
   99800     294.1932    -594.9672    149439.74   -47572.565    4040.0352   -51612.601      0.14611 
  100000    290.65958   -727.02094    149531.05   -47570.622    3991.5094   -51562.131   0.15428296 
  100200    289.39124   -284.95746    148949.46   -47531.885    3974.0918   -51505.977   0.15401286 
  100400    287.38364   -343.54225    148964.62   -47530.809    3946.5222   -51477.332   0.15537126 
  100600    293.39654   -747.62823       149576   -47474.181    4029.0949   -51503.276   0.15335284 
  100800     289.4406   -684.76346    149468.03   -47504.497    3974.7696   -51479.266   0.15563023 
  101000    293.40107   -164.00836    148849.33   -47490.534    4029.1572   -51519.691   0.14679635 
  101200      292.824   -354.00258       149084   -47469.653    4021.2326   -51490.886    0.1541688 
  101400    291.32683   -770.17135    149680.24   -47470.531    4000.6725   -51471.204   0.15919157 
  101600    290.32824    -606.8634    149366.63   -47489.373    3986.9592   -51476.332    0.1510337 
  101800    290.35504   -191.97844    148793.05   -47458.228    3987.3272   -51445.555   0.14799148 
  102000    298.68571   -473.23087     149199.7   -47459.707    4101.7289   -51561.435   0.15184419 
  102200    296.18211   -823.14533    149725.47   -47445.739    4067.3481   -51513.087   0.15734544 
  102400    299.59635   -530.81605    149284.14   -47392.385    4114.2344   -51506.619   0.15362952 
  102600    292.27736   -202.16433    148857.91   -47406.522    4013.7257   -51420.248   0.15710232 
  102800    294.67557   -506.01065    149332.67   -47416.967    4046.6593   -51463.626   0.15594729 
  103000    291.19495   -790.38395    149655.51   -47406.675    3998.8614   -51405.536   0.16127064 
  103200    298.48561   -400.22597    149161.64    -47391.38     4098.981   -51490.361   0.14955122 
  103400    293.40976   -247.05918    148945.95   -47421.825    4029.2764   -51451.102   0.15128963 
  103600    290.06847   -638.91265    149412.17   -47422.751     3983.392   -51406.143   0.16400511 
  103800     298.1202   -697.37885    149526.19     -47427.2    4093.9631   -51521.163   0.15413665 
  104000    294.11107   -403.32423    149088.27   -47438.776    4038.9072   -51477.683   0.15102873 
  104200    295.01776   -338.89812    149037.36   -47454.014    4051.3585   -51505.373   0.14821978 
  104400    295.33149   -648.50699    149447.16   -47467.586    4055.6668   -51523.253   0.15182312 
  104600     295.3586   -635.76341    149430.04    -47464.03    4056.0391    -51520.07   0.15615673 
  104800    294.36733   -374.39897    149076.16    -47456.66    4042.4264   -51499.087   0.15201375 
  105000     294.7857   -387.05056    149133.12   -47485.678    4048.1717    -51533.85   0.14893774 
  105200    291.30218   -635.65608    149423.72   -47484.481     4000.334   -51484.815   0.14982273 
  105400    294.09917   -534.71732    149328.11   -47476.327    4038.7439   -51515.071   0.14672831 
  105600    290.66531   -370.98494    149074.51   -47475.735    3991.5881   -51467.323   0.14974346 
  105800    294.02174   -465.33006    149152.31    -47492.72    4037.6806   -51530.401   0.15625256 
  106000    290.98551   -602.07533    149333.93   -47471.123    3995.9853   -51467.108   0.15968178 
  106200    293.14523   -536.26243    149264.78   -47447.311    4025.6438   -51472.955   0.15019047 
  106400    297.63395   -393.60462    149140.05   -47460.247    4087.2855   -51547.533   0.14371654 
  106600    286.98691   -540.53222    149240.87   -47460.367    3941.0742   -51401.441   0.16233991 
  106800    293.48123   -599.17943    149317.32   -47453.396    4030.2579   -51483.654   0.16022972 
  107000    300.61447   -433.70909    149200.67    -47410.55    4128.2158   -51538.766   0.14936758 
  107200    290.76828   -511.08214    149185.33   -47398.587    3993.0021   -51391.589   0.16246809 
  107400    293.92701   -541.33026    149310.68   -47405.239    4036.3797   -51441.619   0.15659402 
  107600     293.6506   -541.45024    149332.71    -47381.82    4032.5838   -51414.404     0.155161 
  107800    294.29001   -389.72332     149207.8    -47404.59    4041.3646   -51445.955   0.15543447 
  108000    290.22355   -488.03654    149204.42   -47381.515    3985.5215   -51367.037   0.16643757 
  108200    293.81792   -572.11925    149328.26   -47415.762    4034.8816   -51450.644   0.15896456 
  108400    295.32126   -535.71254    149321.22   -47412.033    4055.5264   -51467.559   0.14827009 
  108600    295.75362   -465.48526    149207.98   -47383.612    4061.4638   -51445.076   0.15794991 
  108800    296.22772   -468.67062    149223.31   -47407.098    4067.9744   -51475.073   0.15850456 
  109000    297.19775    -509.6824    149271.12   -47445.773    4081.2954   -51527.069   0.15173154 
  109200    295.82597   -478.32269    149230.46   -47447.121    4062.4573   -51509.578   0.15098542 
  109400    292.24752   -466.81043    149208.05   -47431.367     4013.316   -51444.683   0.15628093 
  109600    296.74742   -505.29204    149267.05   -47392.088    4075.1112   -51467.199   0.15836247 
  109800      294.783   -521.10489    149282.96   -47443.159    4048.1346   -51491.293   0.15279744 
  110000    296.24426    -456.2412    149165.94   -47381.371    4068.2015   -51449.572   0.15936899 
  110200    297.11768   -438.51412    149159.74   -47367.744    4080.1959    -51447.94   0.15751296 
  110400    298.42481   -566.91973    149346.43   -47419.325    4098.1461   -51517.471   0.15351263 
  110600      294.356   -577.58552    149303.71    -47491.44    4042.2708   -51533.711   0.15284332 
  110800    296.06408   -361.09549    149032.82   -47489.915    4065.7272   -51555.642   0.15322713 
  111000    294.02482   -428.10159     149136.7   -47490.539    4037.7229   -51528.262   0.15433901 
  111200    295.81105   -666.12041     149443.4   -47475.741    4062.2524   -51537.993   0.15551649 
  111400    295.06564   -544.29638    149248.19   -47532.193     4052.016   -51584.209   0.15584314 
  111600    289.95992   -275.17421    148904.49   -47586.676    3981.9013   -51568.577   0.15109591 
  111800    291.52015   -469.48263    149161.92   -47618.499    4003.3272   -51621.826    0.1488272 
  112000    285.16555   -735.92808    149534.07    -47605.77    3916.0621   -51521.832   0.15336028 
  112200    289.08728   -514.66345    149202.85   -47567.283    3969.9177   -51537.201   0.15442921 
  112400    291.18312   -231.72655    148872.25   -47536.546    3998.6989   -51535.245   0.15320157 
  112600    291.27737   -526.92538     149272.4   -47509.786    3999.9932   -51509.779   0.15294032 
  112800    295.23205   -755.73362    149548.23   -47522.634    4054.3013   -51576.935   0.14905367 
  113000    290.40743   -390.06224    149053.77   -47503.792    3988.0468   -51491.839   0.15161358 
  113200    290.43068   -260.09172    148883.91   -47540.856     3988.366   -51529.222    0.1572824 
  113400    289.93384   -663.00486    149474.83    -47517.39    3981.5431   -51498.933   0.16201082 
  113600    293.37445   -708.25017    149554.38   -47520.408    4028.7916     -51549.2   0.15247057 
  113800    290.70669   -248.28616    148882.72   -47508.254    3992.1563   -51500.411    0.1525521 
  114000    293.45469   -303.24776    148900.59   -47494.376    4029.8935   -51524.269   0.16129765 
  114200    293.47474   -797.05594    149613.34     -47501.1    4030.1688   -51531.269   0.15282616 
  114400    295.31148   -706.63756    149510.23   -47442.591    4055.3921   -51497.984   0.15543297 
  114600    298.32071   -188.25267    148845.25   -47420.995    4096.7166   -51517.711   0.15456981 
  114800    295.37866   -370.63169     149062.6   -47407.537    4056.3146   -51463.852   0.15396918 
  115000    296.09878   -837.73103    149697.33   -47430.112    4066.2037   -51496.316   0.15319216 
  115200    290.39131     -609.132    149364.58   -47447.115    3987.8254   -51434.941   0.15879331 
  115400     290.6582   -176.99992    148755.65   -47463.437    3991.4904   -51454.928   0.16094803 
  115600    290.80283   -465.04134     149145.8    -47445.42    3993.4766   -51438.897   0.15802522 
  115800    298.30603   -817.08768    149673.72   -47455.254     4096.515   -51551.769   0.14833912 
  116000    295.34945   -469.91551    149223.96   -47443.912    4055.9135   -51499.825   0.14993078 
  116200    295.33515   -179.91195    148812.52   -47465.251    4055.7171   -51520.968   0.15198075 
  116400    295.95187    -517.8258    149276.08   -47504.993    4064.1863    -51569.18   0.15085448 
  116600     293.3647   -775.43914    149595.83   -47514.187    4028.6578   -51542.845   0.15406637 
  116800    295.87987   -421.22404    149146.59   -47472.407    4063.1975   -51535.605   0.15148991 
  117000    292.10705    -224.8792     148937.6   -47481.252    4011.3868   -51492.639   0.14760202 
  117200    289.42912   -618.50578    149357.93   -47468.741     3974.612   -51443.353   0.15501705 
  117400    292.80894   -714.86305    149504.81   -47493.329    4021.0257   -51514.355    0.1545247 
  117600    291.94419    -430.7379    149139.24   -47475.952    4009.1504   -51485.102   0.15460993 
  117800    293.50016   -353.93977    149068.62   -47437.334    4030.5179   -51467.852   0.15079246 
  118000    293.33642   -609.63715    149423.99    -47426.72    4028.2694    -51454.99   0.15359138 
  118200    294.29048   -618.72089    149443.89   -47460.678    4041.3711   -51502.049   0.15217742 
  118400     291.9355     -391.446    149104.34   -47514.618    4009.0311   -51523.649   0.14895603 
  118600    291.70779   -399.74031    149134.46   -47542.305    4005.9041   -51548.209   0.15036809 
  118800     289.8238   -628.63791     149409.8   -47590.139     3980.032   -51570.171   0.15029277 
  119000    290.35145   -555.75234     149298.9   -47589.717     3987.278   -51576.995   0.15433783 
  119200    291.42591   -339.26188    149032.81   -47593.546    4002.0331   -51595.579   0.14804942 
  119400    289.45552   -453.23818    149164.64   -47619.259    3974.9745   -51594.233   0.14690231 
  119600    293.16379   -606.14544    149377.85    -47556.61    4025.8987   -51582.509   0.15160925 
  119800    290.84682   -485.95415    149225.79   -47553.967    3994.0807   -51548.048    0.1548295 
  120000    293.95149   -396.17799    149060.72   -47573.303    4036.7159   -51610.019   0.14954608 
  120200    289.63827   -529.09567    149204.55   -47545.509    3977.4841   -51522.993   0.15412741 
  120400    290.91105   -567.75089       149325    -47589.97    3994.9627   -51584.933   0.14747421 
  120600    287.96577   -441.43474    149149.19    -47584.88    3954.5165   -51539.396    0.1488748 
  120800    292.25386   -415.04237    149081.85   -47576.791     4013.403   -51590.194   0.14996418 
  121000    291.62566   -564.85754    149267.92   -47560.152    4004.7762   -51564.928   0.15309232 
  121200    289.74187   -562.29162    149323.59   -47556.792    3978.9069   -51535.699    0.1523086 
  121400    289.32296   -490.75453     149148.9   -47556.713    3973.1541   -51529.867   0.14964131 
  121600    292.87933   -406.72575    149096.29   -47547.615    4021.9923   -51569.608   0.14474188 
  121800    293.04478   -520.25454    149290.42   -47544.278    4024.2643   -51568.542   0.14937987 
  122000    289.83991   -622.14325    149343.07   -47520.712    3980.2532   -51500.965   0.16224008 
  122200    290.98168   -449.86021    149153.46    -47489.94    3995.9327   -51485.872   0.15206396 
  122400    290.63961   -436.15257    149152.51   -47444.444    3991.2351   -51435.679   0.15326596 
  122600    296.28527   -563.71104    149348.41   -47363.861    4068.7647   -51432.626   0.15712081 
  122800    290.88298   -598.64085    149374.36   -47363.268    3994.5772   -51357.845   0.15829054 
  123000    299.04854   -447.08283    149186.75   -47412.406    4106.7116   -51519.117   0.15421294 
  123200    297.17744   -445.19063    149160.37   -47436.875    4081.0165   -51517.892   0.15686249 
  123400    294.86551   -549.93038     149355.9    -47519.89    4049.2677   -51569.158   0.15293816 
  123600    295.51363   -548.13556    149357.51   -47466.189     4058.168   -51524.357   0.14674888 
  123800     295.5408   -425.84509    149154.49   -47490.472    4058.5412   -51549.013   0.14524142 
  124000    289.20072   -432.42277    149176.67    -47473.01    3971.4754   -51444.485   0.15215252 
  124200    295.04885   -581.86364    149426.35    -47455.98    4051.7854   -51507.766   0.15347471 
  124400     292.2519   -563.93775    149403.53    -47469.63    4013.3761   -51483.006    0.1474283 
  124600    294.59735   -361.75629    149136.18   -47490.751    4045.5852   -51536.336   0.14376346 
  124800    296.25015    -472.2966    149205.07   -47496.051    4068.2825   -51564.333   0.14885429 
  125000    291.87083   -701.03996    149459.85   -47502.058    4008.1429   -51510.201   0.15180118 
  125200    292.03691   -532.31643     149301.7   -47492.527    4010.4238   -51502.951   0.14947522 
  125400    291.59783   -293.15338    148998.26   -47564.192    4004.3941   -51568.586   0.14483964 
  125600    290.14694   -483.06098    149206.01   -47557.735    3984.4696   -51542.204   0.14971833 
  125800     286.3923   -745.15029     149494.4   -47544.677    3932.9086   -51477.586   0.15274827 
  126000     294.7065   -480.92836    149200.71   -47514.873    4047.0841   -51561.957   0.14227221 
  126200    294.64902   -251.38936    148923.34    -47496.39    4046.2947   -51542.685   0.14698557 
  126400     293.1637   -537.28166    149314.99   -47523.725    4025.8975   -51549.622    0.1520956 
  126600      286.608   -776.02485    149558.19   -47545.179    3935.8706    -51481.05   0.15862543 
  126800    293.26744    -369.2977    149070.22   -47521.447    4027.3221   -51548.769   0.14819506 
  127000    292.47285   -254.40041    148877.18   -47539.701    4016.4103   -51556.111    0.1474268 
  127200    291.56505   -654.96096    149422.39   -47569.881    4003.9439   -51573.825   0.14930644 
  127400    295.10231   -722.57719    149488.39   -47567.241    4052.5196   -51619.761   0.15368113 
  127600    294.47962   -239.39392    148841.88   -47565.658    4043.9685   -51609.626   0.15398715 
  127800    288.11005   -290.02448    148870.67   -47554.012    3956.4978    -51510.51   0.15736769 
  128000    290.61794   -765.35903    149582.35   -47546.453    3990.9376    -51537.39   0.15340104 
  128200    292.61257   -713.14051    149493.39   -47511.744     4018.329   -51530.073   0.14780636 
  128400    291.28205   -169.44365    148754.66   -47543.773    4000.0576   -51543.831   0.15234422 
  128600    289.46171   -298.09389    148942.25    -47575.97    3975.0596    -51551.03   0.15620157 
  128800    291.01415   -847.90542    149674.56   -47606.376    3996.3786   -51602.755   0.15845579 
  129000    285.25837   -623.52305    149359.03     -47641.9    3917.3368   -51559.237   0.14854562 
  129200    290.20962   -123.23048    148690.77    -47603.86    3985.3303    -51589.19   0.14273355 
  129400    285.86246   -429.81669    149136.13    -47601.42    3925.6326   -51527.053   0.14875262 
  129600    288.40336   -896.90636    149721.16   -47595.464    3960.5256   -51555.989   0.15630884 
  129800    282.43497   -501.96796     149193.9   -47611.411    3878.5641   -51489.975   0.15366817 
  130000    289.99164    -154.8034    148690.71   -47625.621    3982.3369   -51607.958   0.14727304 
  130200    285.30445   -538.83821    149241.73   -47640.971    3917.9696   -51558.941    0.1469428 
  130400    288.65356   -772.16448     149629.2   -47621.177    3963.9616   -51585.138   0.14956771 
  130600    284.33504   -466.75858    149126.58   -47580.635    3904.6571   -51485.292   0.15687408 
  130800    287.40303   -237.09434    148894.98   -47604.789    3946.7886   -51551.577   0.15538173 
  131000    288.48295   -633.42858    149370.83   -47622.402    3961.6187   -51584.021   0.15405846 
  131200    289.39151   -678.59106    149493.66   -47593.679    3974.0955   -51567.774   0.14982289 
  131400    292.11409   -382.35776    149074.43   -47599.228    4011.4836   -51610.712   0.15035001 
  131600    287.30707    -284.1903    149012.27    -47591.53    3945.4708   -51537.001   0.14968215 
  131800    289.94925   -613.92712    149404.91   -47562.018    3981.7548   -51543.773   0.15258863 
  132000    288.69957   -657.44961    149434.38   -47505.179    3964.5934   -51469.773    0.1625123 
  132200    295.62368   -409.66224    149093.72   -47516.307    4059.6793   -51575.986   0.15883487 
  132400    286.28002   -398.91033    149095.26   -47519.612    3931.3667   -51450.979   0.15659041 
  132600    294.82108    -583.9687    149412.11   -47493.737    4048.6576   -51542.395   0.14960194 
  132800    293.05198   -600.93273    149379.33   -47462.733    4024.3633   -51487.096    0.1524484 
  133000    292.29717   -408.55808    149083.44   -47459.395    4013.9977   -51473.392   0.15841158 
  133200    294.73179   -405.13528    149155.25   -47406.884    4047.4314   -51454.315   0.15399948 
  133400    298.09744   -649.22907    149479.74   -47392.062    4093.6505   -51485.713   0.15999546 
  133600    291.58476   -618.46314    149410.65   -47404.477    4004.2145   -51408.691   0.15582812 
  133800    300.66403   -355.82486    149103.19   -47428.383    4128.8964   -51557.279   0.14677813 
  134000    295.07745   -388.67922    149182.44   -47377.203    4052.1782   -51429.382   0.15283729 
  134200    304.09473    -623.2157       149455   -47388.964    4176.0089   -51564.973   0.15560757 
  134400     294.9263   -511.40448    149318.19   -47387.601    4050.1025   -51437.703   0.15975077 
  134600    298.22706   -367.55937    149072.27   -47405.892    4095.4306   -51501.322   0.14879133 
  134800    295.96729   -459.42544     149209.4   -47448.103     4064.398   -51512.501   0.14802138 
  135000    293.23126   -643.77503    149411.75   -47501.556    4026.8253   -51528.382   0.15017942 
  135200    288.38745   -503.71592    149208.56   -47512.562    3960.3071   -51472.869   0.15514267 
  135400    290.31475    -365.6559    149035.79   -47535.711     3986.774   -51522.485   0.15462705 
  135600    291.65384   -543.33829    149289.26   -47496.905    4005.1631   -51502.068   0.15111013 
  135800     295.8151   -627.00275     149425.1   -47568.107    4062.3081   -51630.415   0.14428504 
  136000    286.90399   -438.07169    149104.67   -47601.166    3939.9354   -51541.102   0.15501445 
  136200     288.8559   -319.36158    148959.39   -47613.543    3966.7402   -51580.284   0.15531508 
  136400    290.46459   -578.41295    149312.87   -47565.003    3988.8316   -51553.834   0.15656809 
  136600    297.13489   -646.80107    149445.52   -47505.908    4080.4322    -51586.34   0.14866606 
  136800    295.00864   -411.78055    149091.78   -47518.803    4051.2333   -51570.036   0.15001621 
  137000    293.86363   -355.45298    149024.37   -47524.261    4035.5093   -51559.771   0.14828978 
  137200    289.87921   -641.52834    149389.25   -47553.002    3980.7929   -51533.795   0.14802035 
  137400    289.58227   -648.64064    149399.42   -47508.585    3976.7152   -51485.301   0.16037216 
  137600    293.74475   -351.46401    149012.55   -47504.374    4033.8767   -51538.251   0.15604232 
  137800    293.62095   -409.20072    149077.61   -47477.716    4032.1767   -51509.893   0.15182831 
  138000    292.04175   -699.66941    149452.11   -47471.898    4010.4902   -51482.388   0.15624294 
  138200    286.10547   -554.72768    149328.89   -47521.598    3928.9697   -51450.568   0.15089762 
  138400    292.17045   -306.73134    148977.62   -47509.935    4012.2576   -51522.193   0.15216259 
  138600    286.48802   -492.40072    149161.02   -47522.662    3934.2231   -51456.885   0.15563811 
  138800    295.29411   -680.46682    149528.55   -47469.628    4055.1535   -51524.781   0.15225975 
  139000    293.99402   -575.54634    149308.18   -47459.815    4037.2999   -51497.115   0.15130515 
  139200    296.15866   -307.62855    148927.19    -47463.63     4067.026   -51530.656   0.15022488 
  139400    291.03549   -502.01235    149193.03   -47488.943    3996.6716   -51485.615   0.15637606 
  139600    291.24324    -750.8471    149563.88   -47467.333    3999.5245   -51466.858    0.1601097 
  139800    291.09464   -517.52396    149270.03   -47429.344    3997.4839   -51426.828   0.15312357 
  140000    295.01361    -208.8691    148926.21   -47399.586    4051.3015   -51450.888   0.15224085 
  140200    292.32475   -555.44752    149305.72    -47440.96    4014.3765   -51455.337   0.15736255 
  140400    291.66096   -794.25193    149601.18   -47463.529     4005.261    -51468.79   0.15705949 
  140600    291.18448   -470.34577    149144.43   -47466.082    3998.7176     -51464.8    0.1558278 
  140800    295.74718   -209.82859    148917.02   -47460.934    4061.3754    -51522.31   0.15047456 
  141000    292.84137    -598.8477    149442.71   -47495.213     4021.471   -51516.684   0.15343393 
  141200     292.1408   -725.26417    149578.24   -47443.677    4011.8504   -51455.528    0.1492667 
  141400    295.51059   -300.60191    149029.05   -47453.021    4058.1264   -51511.147   0.14658942 
  141600    299.26161    -290.4093    148988.54   -47438.312    4109.6375    -51547.95   0.15030596 
  141800    291.72426    -713.8137     149556.6    -47487.61    4006.1302   -51493.741   0.15364085 
  142000    290.20645   -666.93356    149512.33   -47503.313    3985.2867   -51488.599   0.15579236 
  142200    293.32156   -242.11954    148934.21   -47504.702    4028.0653   -51532.767   0.14520613 
  142400    293.75902   -357.63453    149049.73   -47508.982    4034.0727   -51543.055   0.14679999 
  142600    296.34018    -752.8498    149621.86   -47495.247    4069.5187   -51564.766   0.14766562 
  142800    293.95055   -623.03464    149420.05   -47500.716    4036.7029   -51537.419   0.15193889 
  143000    289.35811   -249.09148    148857.67   -47566.476    3973.6369   -51540.113   0.15211349 
  143200     289.2601   -412.78434    149106.82   -47533.664    3972.2909   -51505.955   0.15316637 
  143400    292.44069    -730.3876    149576.84   -47492.685    4015.9687   -51508.653   0.15277976 
  143600     291.0005   -550.74073    149300.35   -47483.388    3996.1911   -51479.579   0.14976035 
  143800    291.91137    -240.0274    148920.84   -47498.185    4008.6997   -51506.884   0.14872884 
  144000    292.61098   -486.37647    149280.58   -47485.095    4018.3071   -51503.402   0.15415979 
  144200    289.48379   -793.45427     149651.2   -47454.341    3975.3627   -51429.704    0.1599039 
  144400    295.87385   -435.18706    149239.15   -47460.843    4063.1148   -51523.958   0.14911708 
  144600    296.78942    -224.5001    148925.48   -47437.458     4075.688   -51513.146   0.14910309 
  144800    297.56599   -588.51812     149391.8   -47404.753    4086.3522   -51491.105    0.1582046 
  145000    293.14198   -752.66053     149622.1   -47446.583    4025.5992   -51472.182   0.15878712 
  145200    297.41154   -352.19174    149139.04   -47481.768    4084.2313   -51565.999   0.14329007 
  145400    291.84667   -346.11717    148999.85   -47488.229    4007.8112    -51496.04   0.15052003 
  145600    292.79021   -632.47911    149455.76   -47503.636    4020.7684   -51524.404   0.14756321 
  145800    292.86645   -679.68589    149518.37   -47518.638    4021.8155   -51540.453   0.14238931 
  146000    295.36064    -354.9221    149078.15    -47509.72    4056.0671   -51565.787   0.14664411 
  146200    290.90401    -356.9352    149069.86   -47541.429    3994.8661   -51536.295   0.14755872 
  146400    288.51914   -683.16197    149481.17   -47489.803    3962.1156   -51451.919      0.15257 
  146600    298.88147   -633.21999    149439.25   -47453.965    4104.4173   -51558.382   0.14992723 
  146800    294.44083   -314.48481    149036.27   -47412.878    4043.4357   -51456.313   0.15225973 
  147000    287.99266   -380.04046    149150.74   -47426.081    3954.8857   -51380.967   0.15402823 
  147200    296.35964   -716.55793    149555.21   -47390.347     4069.786   -51460.133    0.1513003 
  147400    293.60166   -570.10766    149373.46   -47457.389    4031.9118   -51489.301   0.15240663 
  147600    293.89375   -281.59186    148967.35   -47473.196    4035.9229   -51509.119   0.14850221 
  147800     290.7162   -440.74651    149168.63   -47514.425    3992.2869   -51506.712   0.14650278 
  148000    297.15758   -737.25172    149523.04    -47476.59    4080.7437   -51557.333    0.1532977 
  148200    290.17831    -561.5742    149311.01   -47519.786    3984.9003   -51504.687   0.15071811 
  148400    289.25687   -323.67052    148993.33   -47570.966    3972.2466   -51543.213    0.1489943 
  148600    293.55513   -488.81783    149220.95   -47540.609    4031.2728   -51571.881   0.15223334 
  148800    288.56384   -708.98413    149503.76   -47539.848    3962.7294   -51502.577   0.15513147 
  149000    291.90082   -477.31166    149233.76    -47548.95    4008.5548   -51557.504   0.15171835 
  149200     293.1128   -317.93729    149007.22   -47557.218    4025.1984   -51582.416   0.14428429 
  149400    293.04137   -522.37998    149310.51   -47577.777    4024.2176   -51601.995   0.14424247 
  149600    291.18625   -678.27771    149481.79   -47574.937     3998.742   -51573.679   0.14905372 
  149800    291.01298   -390.19057    149120.82   -47564.008    3996.3625   -51560.371   0.14602319 
  150000    289.81598   -291.07735    149012.24   -47522.606    3979.9246   -51502.531    0.1472437 
  150200    290.58477   -624.07241    149440.56   -47465.155     3990.482   -51455.637   0.14905483 
  150400    294.01108   -650.63476    149531.76   -47434.549    4037.5341   -51472.083   0.14858951 
  150600    296.95422   -383.73016    149092.75    -47489.76    4077.9511   -51567.711   0.14782871 
  150800    295.62098   -308.19026    149006.21   -47453.192    4059.6423   -51512.834   0.15022508 
  151000    292.31033   -686.79594    149447.49   -47489.275    4014.1784   -51503.453   0.14991656 
  151200    290.57028   -623.54521    149437.02    -47474.44     3990.283   -51464.723   0.14899048 
  151400    302.07399   -322.69948    148995.75   -47391.326    4148.2588   -51539.585   0.14889542 
  151600    297.29665   -359.60465     149093.5   -47377.165    4082.6536   -51459.819   0.15145246 
  151800     297.9503   -686.69482    149558.91   -47385.428    4091.6299   -51477.058   0.15269239 
  152000    293.91217   -639.74834    149438.83   -47387.084    4036.1759    -51423.26   0.15998818 
  152200    291.06285   -243.21066    148975.05   -47410.556    3997.0474   -51407.603   0.15496244 
  152400    295.72968   -431.61264    149161.89   -47459.953    4061.1349   -51521.088   0.14891426 
  152600    292.88748   -730.87499     149576.3   -47424.467    4022.1042   -51446.571   0.15475265 
  152800    292.32035   -532.72719    149338.65   -47357.764    4014.3161   -51372.081     0.159675 
  153000    294.30164   -279.72129    148978.39   -47430.481    4041.5243   -51472.006   0.15233853 
  153200    302.04342   -453.56063    149252.04   -47371.014     4147.839   -51518.853   0.14943761 
  153400    292.78502   -754.71912    149585.23   -47420.176    4020.6972   -51440.873   0.15505023 
  153600    290.13386   -453.84776    149232.35   -47450.288    3984.2898   -51434.577   0.15003816 
  153800    293.10677   -257.16545     148925.2   -47482.784    4025.1156     -51507.9   0.14672157 
  154000      295.257   -542.15539    149333.27   -47495.116    4054.6439    -51549.76    0.1493648 
  154200    295.03023   -766.87324    149615.27   -47437.375    4051.5297   -51488.904   0.15416989 
  154400    292.64026   -411.06688    149165.19   -47434.732    4018.7093   -51453.441   0.15299587 
  154600    293.21464   -278.51398    148961.28   -47458.492    4026.5969   -51485.089   0.15178235 
  154800    295.65053   -629.19893    149447.07   -47471.068    4060.0481   -51531.116   0.14562634 
  155000    294.60078    -711.1445    149564.27   -47457.941    4045.6322   -51503.573   0.15188343 
[...]
  163200    293.82935   -531.26008    149287.93   -47529.275    4035.0385   -51564.314   0.15232893 
  163400      291.101   -543.61375    149340.79   -47563.331    3997.5712   -51560.902    0.1464672 
  163600    288.54094   -442.69212    149218.51   -47511.899     3962.415   -51474.314   0.14702175 
  163800    292.45723   -454.37103    149182.16   -47574.331    4016.1958   -51590.527   0.14688813 
  164000    285.73737   -549.04708    149280.91   -47590.499    3923.9146   -51514.414   0.15049029 
  164200    296.12332   -506.34476    149271.45    -47587.61    4066.5407    -51654.15   0.14383336 
  164400     288.9067   -442.41179    149159.14   -47529.487    3967.4378   -51496.925   0.15122962 
  164600    291.98696   -452.86269    149192.19   -47508.208    4009.7377   -51517.946    0.1515814 
  164800    292.37968   -562.20839    149334.51   -47545.201    4015.1308   -51560.331   0.14992985 
  165000    292.27129   -522.10882    149300.49   -47520.589    4013.6423   -51534.231   0.15038228 
  165200    294.82815   -425.18681    149137.05   -47518.897    4048.7547   -51567.652   0.15257996 
  165400    291.90612   -493.66001    149172.27   -47547.832    4008.6276   -51556.459   0.15365718 
  165600     295.3773   -597.99283    149363.27   -47484.547    4056.2959   -51540.842   0.15016822 
  165800    294.59146   -504.29487    149307.69   -47509.411    4045.5042   -51554.915   0.14674418 
  166000    291.19899   -396.69378    149088.92   -47468.473    3998.9169    -51467.39    0.1519806 
  166200     290.7972   -481.68942    149192.29   -47497.698    3993.3993   -51491.097   0.15087211 
  166400     291.2081   -649.16319     149451.1   -47489.927     3999.042   -51488.969   0.15238597 
  166600    289.84491   -511.35523    149284.42   -47486.387    3980.3218   -51466.708   0.14800123 
  166800    293.40824   -291.68898    148992.99   -47549.924    4029.2556    -51579.18   0.14517938 
  167000    291.58157    -500.3765    149219.06   -47550.497    4004.1707   -51554.668   0.14856474 
  167200    294.39415   -723.15792     149532.5   -47494.807    4042.7947   -51537.601   0.15057163 
  167400     296.1806   -531.00405    149264.25   -47544.352    4067.3274   -51611.679   0.15058298 
  167600    293.24396   -303.33733    148940.03   -47527.477    4026.9997   -51554.477   0.14915956 
  167800     293.0063   -542.47488     149241.8   -47596.828    4023.7359   -51620.564   0.14921929 
  168000    289.66689   -722.84246    149528.92   -47580.972    3977.8773   -51558.849   0.14659979 
  168200    294.18575   -414.25681    149139.32   -47581.343    4039.9328   -51621.275   0.14398477 
  168400    288.75665   -303.99386    148905.88   -47539.128    3965.3773   -51504.506   0.15574514 
  168600    286.51269   -631.41299    149357.53   -47547.635    3934.5618   -51482.197   0.15423848 
  168800    289.13114   -692.85769    149517.12   -47585.687    3970.5199   -51556.206    0.1514046 
  169000    290.04279   -380.85079    149012.97   -47575.608    3983.0393   -51558.647   0.15085378 
  169200    291.42207   -317.98958    148922.22   -47545.831    4001.9804   -51547.811   0.14778765 
  169400    289.54638   -654.34088    149430.36   -47567.681    3976.2223   -51543.904   0.14874123 
  169600    294.71718   -655.87338    149428.79   -47577.546    4047.2308   -51624.777   0.14677602 
  169800    286.40449   -293.80029    148913.77   -47586.254     3933.076    -51519.33   0.15045146 
  170000    287.89844   -372.22807    149007.17   -47626.404    3953.5918   -51579.996   0.14486656 
  170200    285.54035   -726.63244    149524.14   -47630.597    3921.2091   -51551.806   0.14407769 
  170400    288.83627   -596.89561    149363.89   -47602.092    3966.4706   -51568.562   0.14395884 
  170600    289.55686   -249.14384    148882.08   -47586.385    3976.3662   -51562.751   0.14305963 
  170800    283.53043    -415.9245    149125.51   -47609.699    3893.6077   -51503.307   0.14710777 
  171000    288.55721   -786.74189    149603.41   -47605.842    3962.6385    -51568.48   0.15031892 
  171200    284.72945   -536.13169    149281.04   -47633.172    3910.0733   -51543.246   0.14755193 
  171400    285.76401   -250.01638    148839.64   -47632.283    3924.2806   -51556.563   0.14545729 
  171600    287.64528   -492.82955    149199.16   -47595.531    3950.1152   -51545.646   0.14635301 
  171800    289.58745   -820.32352    149629.79   -47569.414    3976.7862   -51546.201   0.15237417 
  172000     287.2191   -484.79995    149227.05   -47578.531    3944.2627   -51522.794   0.14779985 
  172200    291.66066   -217.26265    148866.56   -47587.393    4005.2568    -51592.65   0.14080338 
  172400    290.14352    -554.8195     149326.5   -47552.694    3984.4225   -51537.116   0.14576861 
  172600    291.26476   -805.00114     149599.8   -47534.361      3999.82   -51534.181   0.15104438 
  172800     293.0806   -398.33439    149123.64   -47545.569    4024.7562   -51570.325   0.14527125 
  173000    285.89108   -288.38391    148921.84   -47565.491    3926.0255   -51491.516    0.1549586 
  173200    289.19811   -622.47613    149364.79   -47601.491    3971.4397   -51572.931   0.15054536 
  173400    289.50778   -714.31171    149491.78   -47584.821    3975.6921   -51560.513   0.15007478 
  173600    292.99562   -361.85932    149078.81   -47538.972    4023.5893   -51562.562   0.14345174 
  173800    288.87876   -341.50988    149060.32   -47539.743    3967.0542   -51506.797   0.14564458 
  174000    288.54364   -675.80071    149445.09   -47500.901     3962.452   -51463.353   0.15508308 
  174200    289.59297   -612.28227    149422.74   -47495.089    3976.8621   -51471.951   0.15123881 
  174400    295.82171    -375.5659    149077.01   -47480.495    4062.3989   -51542.894   0.14516806 
  174600    289.61184   -398.27251     149158.7   -47492.234    3977.1212   -51469.355   0.14485972 
  174800    294.21824   -631.79082    149518.64   -47453.176     4040.379   -51493.555   0.14311845 
  175000     291.7752   -633.86187     149413.8   -47502.358    4006.8297   -51509.187    0.1492182 
  175200     292.7929   -297.31423    149046.62    -47501.65    4020.8054   -51522.455   0.14640649 
  175400    294.13201   -417.49273    149184.58    -47511.14    4039.1949   -51550.335   0.14658721 
  175600    291.48054    -672.8339     149505.1   -47520.821    4002.7833   -51523.605    0.1496081 
  175800    287.31708   -523.93298    149342.88   -47504.937    3945.6081   -51450.545   0.14769737 
  176000     292.4258   -315.52835    149058.23   -47493.364    4015.7642   -51509.128   0.14425585 
  176200    297.31185   -503.71794    149234.78   -47442.185    4082.8623   -51525.048   0.14967209 
  176400    294.31371   -640.81646    149436.22   -47480.222    4041.6901   -51521.912   0.15903586 
  176600    300.43015    -445.0129    149248.59   -47461.049    4125.6847   -51586.733   0.14591432 
  176800    294.58648   -389.97084    149091.56   -47469.497     4045.436   -51514.933    0.1458333 
  177000    292.61348   -548.11859    149272.64   -47484.004    4018.3415   -51502.345    0.1477911 
  177200    292.89984   -604.72367    149368.09   -47496.533     4022.274   -51518.807   0.15478323 
  177400    287.92046   -487.40426     149153.6   -47588.478    3953.8942   -51542.372   0.15485861 
  177600    289.46071   -418.39171    149085.27    -47553.43    3975.0458   -51528.476   0.15246988 
  177800    292.83861   -557.63449    149302.26   -47530.932    4021.4332   -51552.365   0.14829401 
  178000     293.4052   -569.90654    149355.82    -47487.65    4029.2139   -51516.864    0.1474585 
  178200    289.38417   -472.37316    149142.67   -47525.082    3973.9948   -51499.077   0.14883004 
  178400    288.66855   -405.66771     149103.2   -47500.776    3964.1673   -51464.943   0.15361954 
  178600    293.45704   -594.05872    149304.18    -47514.87    4029.9258   -51544.796   0.15350488 
  178800    296.65693   -536.19268    149301.27   -47483.891    4073.8686    -51557.76   0.14533474 
  179000    292.21208   -442.46842    149155.96   -47458.874    4012.8293   -51471.703   0.15030422 
  179200    296.10414   -468.33478    149197.52   -47483.107    4066.2773   -51549.385   0.14791452 
  179400    290.84926   -597.18774    149316.14   -47454.514    3994.1142   -51448.628    0.1548806 
  179600    289.63965   -535.51989    149259.11   -47460.947    3977.5031   -51438.451   0.15631093 
  179800    291.74722   -443.58796    149170.36   -47490.871    4006.4455   -51497.316   0.15146346 
  180000    295.84374   -513.93579    149228.32   -47457.694    4062.7014   -51520.395   0.15255226 
  180200     292.2634   -525.28032    149299.48   -47417.646    4013.5341    -51431.18   0.15303436 
  180400    295.48104   -509.87557    149286.32   -47373.662    4057.7205   -51431.382   0.15177768 
  180600    295.66299    -513.0171    149254.21   -47463.346    4060.2192   -51523.566   0.14775263 
  180800    297.89274   -483.99018    149238.35   -47428.587    4090.8394   -51519.426   0.15197828 
  181000    297.03451   -494.77672    149275.81   -47470.374    4079.0537   -51549.427   0.14766649 
  181200    295.80688   -496.58017    149283.09   -47453.887    4062.1951   -51516.082   0.15248615 
  181400    295.51344   -483.29032    149245.95   -47493.823    4058.1655   -51551.988   0.15012015 
  181600    292.15869   -487.60006    149227.71   -47514.731     4012.096   -51526.827   0.15042519 
  181800    292.52627   -514.44165    149277.69   -47485.662    4017.1439   -51502.806   0.15327784 
  182000    291.11862   -519.76835    149277.54   -47494.511    3997.8132   -51492.324   0.15357753 
  182200    294.20058   -493.72203    149239.43   -47511.032    4040.1364   -51551.169   0.15025096 
  182400    292.58603    -506.1347    149252.58   -47512.091    4017.9645   -51530.055   0.14525095 
  182600    292.14417    -466.8693    149252.95   -47474.676    4011.8967   -51486.573   0.14361393 
  182800    293.50707   -460.87686    149279.58   -47439.314    4030.6128   -51469.926   0.14686679 
  183000    291.62207   -533.64159    149311.51   -47439.641    4004.7269   -51444.368   0.15486814 
  183200    296.21464   -468.37426    149236.35   -47421.262    4067.7948   -51489.057   0.15278211 
  183400    293.27178   -474.07014    149184.92   -47430.187    4027.3817   -51457.569   0.15271872 
  183600     292.6279   -482.27045    149262.03   -47458.603    4018.5395   -51477.143   0.14589776 
  183800    290.20666   -529.90505    149315.54   -47491.409    3985.2896   -51476.699   0.15170289 
  184000    291.18495   -484.73064    149247.22   -47505.203    3998.7241   -51503.927   0.15412742 
  184200    291.50819   -448.12139    149196.44   -47547.876     4003.163   -51551.039   0.14617271 
  184400    289.02848   -547.15509    149247.67   -47556.905    3969.1102   -51526.016   0.14966505 
  184600    293.71487   -489.38265    149242.07   -47564.479    4033.4664   -51597.946   0.14364107 
  184800    291.18838   -465.31944    149144.54   -47552.587    3998.7712   -51551.358    0.1485021 
  185000    290.47874   -469.26657    149170.78   -47543.016     3989.026   -51532.042   0.15293684 
  185200    290.48234   -566.94346    149300.47   -47599.286    3989.0754   -51588.362    0.1514407 
  185400    288.91242   -546.74562     149239.8   -47577.368    3967.5164   -51544.885      0.15521 
  185600    290.22526   -437.32294    149111.35   -47581.813     3985.545   -51567.358   0.14680558 
  185800    288.71928   -472.35614     149173.7   -47525.532    3964.8641   -51490.396   0.15606251 
  186000     292.1947   -576.09684    149321.98   -47510.788    4012.5906   -51523.379   0.15603237 
  186200    288.21665   -568.98873    149279.65   -47502.833    3957.9617   -51460.795   0.15486979 
  186400    297.12148   -397.99641     149137.4   -47453.639     4080.248   -51533.887   0.14983162 
  186600    293.55391    -459.6917    149222.07   -47486.848     4031.256   -51518.104   0.14993406 
  186800    290.24814   -634.18128    149363.33   -47512.259    3985.8593   -51498.118   0.15458798 
  187000    290.74738   -510.46259    149220.47   -47484.315    3992.7151    -51477.03   0.15151502 
  187200    295.41603   -407.57346    149091.13   -47505.325    4056.8278   -51562.153   0.15334867 
  187400    289.40728   -514.55325    149287.49   -47488.912    3974.3121   -51463.224   0.15532829 
  187600    290.26647   -601.05138    149413.24   -47528.693     3986.111   -51514.804   0.15094341 
  187800    291.47983   -452.72467    149158.08   -47518.445    4002.7735   -51521.218   0.15145163 
  188000    293.77722   -356.83963    149036.23   -47493.574    4034.3227   -51527.897   0.15217452 
  188200    289.25828   -577.64262    149340.46    -47481.36    3972.2659   -51453.625    0.1526334 
  188400    294.37636   -643.90792    149422.38   -47468.077    4042.5505   -51510.627   0.15294721 
  188600     292.7853   -342.61268     149086.7   -47474.751    4020.7011   -51495.452   0.15180465 
  188800     293.0715   -392.74687    149040.86    -47489.78    4024.6313   -51514.411   0.15433041 
  189000    290.03555   -642.15174    149398.51   -47479.111    3982.9398   -51462.051   0.15529566 
  189200     296.1812   -615.13074    149390.85   -47483.176    4067.3355   -51550.512   0.15224649 
  189400    297.69853   -314.98901    149023.69   -47446.151    4088.1724   -51534.323   0.15245825 
  189600    294.86382    -358.6589    149105.11   -47460.902    4049.2446   -51510.146   0.15178346 
  189800    291.00027    -740.2752    149552.01   -47497.129    3996.1879   -51493.317   0.16107156 
  190000    288.22621   -609.09101    149386.12    -47529.72     3958.093   -51487.813   0.15010518 
  190200    293.93618    -214.1679    148902.43   -47506.568    4036.5057   -51543.074   0.14602767 
  190400    287.02044   -443.70517    149152.64   -47504.337    3941.5345   -51445.871   0.15246727 
  190600    295.99718   -778.73895    149653.29   -47444.767    4064.8084   -51509.576   0.15877638 
  190800    295.72369   -596.74119    149371.86   -47480.139    4061.0528   -51541.192   0.15419275 
  191000     293.9499   -222.33734    148854.76   -47495.435     4036.694   -51532.129   0.14740057 
  191200    292.88422    -476.0467    149209.96   -47488.046    4022.0594   -51510.105   0.15043631 
  191400    287.62314   -848.15574    149684.56   -47506.324    3949.8112   -51456.135   0.15470372 
  191600    290.87279   -473.82595    149200.93   -47463.619    3994.4373   -51458.056   0.15539775 
  191800    293.00414   -179.20773    148765.61   -47501.435    4023.7062   -51525.141   0.15734575 
  192000    292.05715   -586.25927     149312.1   -47500.014    4010.7017   -51510.715   0.15408807 
  192200    293.90763   -790.40182    149695.42   -47464.321    4036.1135   -51500.435   0.14998848 
  192400    292.81091   -389.32015    149137.95   -47477.234    4021.0527   -51498.287   0.14792663 
  192600    289.13205   -175.60675    148862.89   -47508.962    3970.5325   -51479.495   0.15084016 
  192800    290.14364   -629.64981    149443.98   -47481.405    3984.4242   -51465.829   0.15164859 
  193000    298.24984    -741.1543    149625.98   -47470.025    4095.7433   -51565.768   0.14862343 
  193200    293.63462   -329.12616    149048.03   -47427.137    4032.3644   -51459.501   0.15203705 
  193400    296.88847   -266.60324    149001.67   -47432.325    4077.0482   -51509.373   0.14643502 
  193600    294.73365   -690.87249    149584.23   -47440.939    4047.4569   -51488.396    0.1473838 
  193800    292.17521   -664.83589    149503.66   -47490.545     4012.323   -51502.868   0.15285957 
  194000    292.91879   -271.45447    148959.82   -47520.857    4022.5342   -51543.391   0.15362251 
  194200    288.66784   -412.81004    149109.85   -47505.903    3964.1577   -51470.061   0.15281109 
  194400    292.09172   -743.68905    149559.99   -47483.322    4011.1764   -51494.498   0.15403955 
  194600    292.92823   -592.66573    149376.78   -47508.276    4022.6638    -51530.94   0.15001757 
  194800    293.99572   -276.69423     149014.9   -47496.315    4037.3233   -51533.638     0.141448 
  195000    294.13733   -476.81597    149215.24   -47478.683    4039.2679   -51517.951   0.14375938 
  195200    292.70942   -668.08813    149494.96   -47460.743    4019.6591   -51480.402   0.15034563 
  195400      291.808   -508.62475    149310.81   -47465.026    4007.2802   -51472.306   0.14950928 
  195600    297.77902   -363.01288    149116.17   -47471.774    4089.2777   -51561.051   0.13854887 
  195800    293.79971   -508.35946    149275.72   -47516.606    4034.6316   -51551.237   0.14442561 
  196000    291.97985    -605.0181     149386.2    -47485.87    4009.6401    -51495.51   0.15454281 
  196200    293.79398   -469.46534    149222.14   -47474.165    4034.5528   -51508.718   0.15578128 
  196400    293.90503   -435.89584    149154.66   -47475.228    4036.0778   -51511.306   0.15211748 
  196600    288.90277   -547.02079    149310.72   -47540.721    3967.3838   -51508.105   0.14690329 
  196800    288.95741   -561.43261    149350.75   -47531.131    3968.1342   -51499.265   0.14574459 
  197000    297.45904   -452.62571     149189.6   -47543.474    4084.8836   -51628.357   0.14169159 
  197200    291.95049    -416.8675    149136.84   -47599.561    4009.2369   -51608.798   0.14584937 
  197400     288.7433   -542.76899    149274.25   -47555.196    3965.1939    -51520.39    0.1503382 
  197600    294.01677   -507.20287    149296.15   -47467.539    4037.6123   -51505.152   0.14645452 
  197800    294.32139   -445.59722     149223.1   -47455.435    4041.7956    -51497.23   0.14629426 
  198000    293.00915   -524.20566    149253.36   -47485.225    4023.7751       -51509   0.15260355 
  198200     285.8585     -578.729    149273.75   -47509.632    3925.5782    -51435.21   0.16067078 
  198400    294.66949   -524.17299    149217.07   -47436.715    4046.5759   -51483.291   0.15546583 
  198600    292.69794   -458.23175     149198.2   -47426.221    4019.5013   -51445.722   0.15427813 
  198800    294.62689   -522.80565    149251.74    -47459.92    4045.9908   -51505.911   0.15053759 
  199000    290.40314   -501.11382    149267.16   -47464.243    3987.9879   -51452.231   0.15054768 
  199200    294.77353   -484.64429    149219.63    -47458.53    4048.0046   -51506.535   0.15095304 
  199400    299.97565   -456.12004    149199.27   -47470.835    4119.4432   -51590.278   0.15085228 
  199600     293.2757   -485.10603    149260.05   -47493.225    4027.4355    -51520.66   0.14759144 
  199800    295.62336   -549.19834    149266.59   -47471.722     4059.675   -51531.397   0.15344364 
  200000    294.73962   -452.31337    149191.39   -47491.421    4047.5389    -51538.96   0.14894795 
Loop time of 110.719 on 6 procs for 200000 steps with 4608 atoms

Performance: 780.352 ns/day, 0.031 hours/ns, 1806.370 timesteps/s
97.9% CPU use with 6 MPI tasks x no OpenMP threads

MPI task timing breakdown:
Section |  min time  |  avg time  |  max time  |%varavg| %total
---------------------------------------------------------------
Pair    | 77.492     | 78.03      | 78.541     |   4.9 | 70.48
Neigh   | 12.36      | 12.52      | 12.858     |   6.1 | 11.31
Comm    | 9.3762     | 9.9451     | 10.574     |  14.5 |  8.98
Output  | 3.1102     | 3.1116     | 3.1179     |   0.2 |  2.81
Modify  | 5.7246     | 5.8196     | 5.8836     |   2.4 |  5.26
Other   |            | 1.293      |            |       |  1.17

Nlocal:        768.000 ave         785 max         755 min
Histogram: 1 0 0 2 2 0 0 0 0 1
Nghost:        1399.83 ave        1405 max        1396 min
Histogram: 2 0 0 1 1 0 0 1 0 1
Neighs:        0.00000 ave           0 max           0 min
Histogram: 6 0 0 0 0 0 0 0 0 0
FullNghs:      21890.7 ave       22381 max       21488 min
Histogram: 1 0 0 2 1 1 0 0 0 1

Total # of neighbors = 131344
Ave neighs/atom = 28.503472
Neighbor list builds = 12672
Dangerous builds = 0
write_data		data.${NAME}
write_data		data.ice_293K_-500atm_ML
System init for write_data ...
Total wall time: 0:02:44
