
# Define the lattice
#
variable	    lattice_constant equal 6.36339
lattice		    diamond ${lattice_constant} orient x 0 0 1 orient y 0 1 0 orient z -1 0 0
lattice		    diamond 6.36339 orient x 0 0 1 orient y 0 1 0 orient z -1 0 0
Lattice spacing in x,y,z = 6.3633900 6.3633900 6.3633900

# Define region
# multiples of lattice spacing
#
region 		    simbox block 0 9 0 8 0 8

# Create Atoms
#
create_box          1 simbox
Created orthogonal box = (0.0000000 0.0000000 0.0000000) to (57.270510 50.907120 50.907120)
  3 by 1 by 2 MPI processor grid
create_atoms        1 box
Created 4608 atoms
  create_atoms CPU = 0.001 seconds
mass                1 18.015

# Define potential
#
pair_style          sw
pair_coeff          * * /data/emrosky-sim/Freezing_Simulations/Melting/MLmW_fancy/ML_mW.sw mW
Reading sw potential file /data/emrosky-sim/Freezing_Simulations/Melting/MLmW_fancy/ML_mW.sw with DATE: 2019-02-27

# Add velocity/set timestep
#
velocity            all create ${TEMP} 120598 rot yes dist gaussian
velocity            all create 293 120598 rot yes dist gaussian
timestep            5.0

# Define output
#
compute	            1 all msd
thermo              100
thermo_style        custom step temp press vol etotal ke pe c_1[4]

# Neighbor lists
#
neigh_modify        delay 0 every 1 check yes

# Set fixes
#
fix                 1 all momentum 10 linear 1 1 1 rescale
fix                 2 all nve
fix                 3 all temp/csvr ${TEMP} ${TEMP} 500.0 928347
fix                 3 all temp/csvr 293 ${TEMP} 500.0 928347
fix                 3 all temp/csvr 293 293 500.0 928347
fix                 4 all press/berendsen iso ${PRES} ${PRES} 1000.0 modulus 20000
fix                 4 all press/berendsen iso -500 ${PRES} 1000.0 modulus 20000
fix                 4 all press/berendsen iso -500 -500 1000.0 modulus 20000

# Run 0.5 ns equilibration
#
dump		    1 all custom 1000 eq.${NAME}.dump id type x y z vx vy vz
dump		    1 all custom 1000 eq.ice_293K_-500atm_ML.dump id type x y z vx vy vz
run                 100000
Neighbor list info ...
  update every 1 steps, delay 0 steps, check yes
  max neighbors/atom: 2000, page size: 100000
  master list distance cutoff = 6.0032907
  ghost atom cutoff = 6.0032907
  binsize = 3.0016454, bins = 20 17 17
  1 neighbor lists, perpetual/occasional/extra = 1 0 0
  (1) pair sw, perpetual
      attributes: full, newton on
      pair build: full/bin/atomonly
      stencil: full/bin/3d
      bin: standard
Per MPI rank memory allocation (min/avg/max) = 4.779 | 4.779 | 4.779 Mbytes
Step Temp Press Volume TotEng KinEng PotEng c_1[4] 
       0          293   -623.02534    148418.52   -51873.535    4023.6494   -55897.184            0 
     100    199.22437   -355.87731    148316.83   -50235.036     2735.867   -52970.903   0.10166587 
     200    227.75993   -411.89907    148619.59   -49259.563    3127.7342   -52387.297   0.11655952 
     300    245.06859   -468.31739    148800.26   -48639.395    3365.4269   -52004.822   0.14660471 
     400     266.6547   -461.94069    148933.45   -48230.676    3661.8602   -51892.536   0.14758414 
     500     284.1785   -436.66571    149054.11   -47937.954    3902.5074   -51840.461   0.13887651 
     600    289.19577    -468.2612    149146.36   -47663.523    3971.4075   -51634.931   0.15639335 
     700    293.99089   -502.10959    149197.84   -47611.533    4037.2568    -51648.79   0.14614341 
     800    292.16596   -507.08352    149197.85   -47512.219    4012.1959   -51524.415   0.15687844 
     900    289.34406   -502.37947    149207.16   -47488.072    3973.4439   -51461.516   0.16960843 
    1000    289.83324   -494.44841    149180.56   -47539.188    3980.1615   -51519.349   0.14959939 
    1100    295.15938   -502.63846     149200.8     -47485.4    4053.3033   -51538.703    0.1565848 
    1200    298.89093   -450.83586    149206.01   -47480.282    4104.5472   -51584.829   0.15401798 
    1300    292.11894   -582.34057    149243.58   -47408.086    4011.5501   -51419.636   0.16681764 
    1400     288.4002   -515.34129    149219.34   -47501.426    3960.4822   -51461.909   0.16279018 
    1500    288.65203   -525.31231    149214.19    -47534.25    3963.9405   -51498.191   0.15233352 
    1600    295.70061   -479.05382    149189.53   -47464.903    4060.7358   -51525.639   0.16287971 
    1700    291.88311      -524.46    149210.59   -47491.395    4008.3116   -51499.706   0.15543191 
    1800    289.31336   -520.76007     149199.4   -47484.161    3973.0223   -51457.183   0.17035071 
    1900    295.19122   -519.26524    149213.43   -47399.305    4053.7406   -51453.046   0.16220513 
    2000     297.7776   -463.28643     149239.4    -47343.97    4089.2583   -51433.229   0.15414334 
    2100    289.13516   -516.61718    149226.91   -47514.435    3970.5752    -51485.01   0.16461373 
    2200    292.09473   -499.97721       149207   -47441.765    4011.2178   -51452.983   0.15216817 
    2300    297.61634   -481.24074    149208.91   -47375.865    4087.0437   -51462.909   0.17333567 
    2400    292.54837   -503.44863    149204.32   -47399.532    4017.4474   -51416.979   0.16588974 
    2500    298.76466   -483.97522    149233.24   -47453.912    4102.8132   -51556.725   0.14744957 
    2600    292.10253    -525.1728    149217.83   -47484.753    4011.3249   -51496.077    0.1704294 
    2700    296.74087   -455.83837    149196.93    -47453.26    4075.0213   -51528.281   0.14463808 
    2800    294.08601   -499.18215    149175.18   -47349.647    4038.5632    -51388.21    0.1740941 
    2900    298.60462   -491.89487    149205.37   -47369.256    4100.6154   -51469.872   0.16205099 
    3000    291.76571   -507.97538    149187.61   -47431.275    4006.6995   -51437.975   0.16673709 
    3100    297.40749   -442.59533    149213.94   -47406.091    4084.1756   -51490.267   0.15447651 
    3200    292.30283   -496.16703    149191.05   -47516.556    4014.0755   -51530.632   0.14941201 
    3300     291.5944   -461.13235    149138.98   -47573.313    4004.3469    -51577.66   0.14992794 
    3400    291.09285   -536.39912    149158.56   -47506.681    3997.4593    -51504.14   0.15782448 
    3500    294.83912   -455.36107     149167.3   -47473.639    4048.9053   -51522.545   0.16403438 
    3600    291.00859   -533.76841     149191.7   -47480.883    3996.3022   -51477.185   0.16212252 
    3700    292.79181   -511.16348    149212.06   -47440.887    4020.7904   -51461.677   0.15850521 
    3800     295.1681   -531.72516    149226.64   -47436.039    4053.4231   -51489.462   0.16306498 
    3900    292.61049   -506.74744     149241.5    -47441.94    4018.3004   -51460.241   0.15780475 
    4000    292.78977   -495.98861     149217.5   -47489.556    4020.7625   -51510.319   0.15592873 
    4100    288.74439   -513.84504     149198.5   -47500.973    3965.2089   -51466.182   0.16620475 
    4200    292.97608   -517.41849    149218.62   -47461.801    4023.3209   -51485.122   0.14812707 
    4300    286.25007   -527.24133    149175.41   -47589.824    3930.9554   -51520.779    0.1647742 
    4400    294.10799   -495.73814    149219.13   -47482.145    4038.8651    -51521.01   0.14386424 
    4500    291.13807   -534.88203    149197.41   -47543.436    3998.0803   -51541.516   0.16391492 
    4600    289.97504   -500.37295    149173.66   -47576.287    3982.1089   -51558.396   0.15387533 
    4700    291.94408   -486.15223    149191.45   -47475.011    4009.1489   -51484.159   0.15081048 
    4800    298.49038   -455.34875    149214.35   -47369.879    4099.0466   -51468.925   0.15984693 
    4900    295.67977   -446.29742    149251.56   -47338.024    4060.4496   -51398.474   0.15380007 
    5000    288.34106   -486.51625    149236.58   -47472.271    3959.6701   -51431.941   0.16335907 
    5100    292.77224   -555.42546    149232.97   -47404.136    4020.5216   -51424.658   0.15980059 
    5200    292.99097   -516.82572    149229.55    -47470.11    4023.5254   -51493.636   0.16084914 
    5300    289.45348   -470.42721    149201.99    -47576.65    3974.9465   -51551.596   0.15153528 
    5400    293.97629   -445.58725    149218.41   -47541.437    4037.0564   -51578.493   0.14512159 
    5500    293.28457   -493.86854    149195.74   -47504.292    4027.5573   -51531.849   0.16103475 
    5600    289.66458   -439.28238    149219.19   -47542.773    3977.8455   -51520.619   0.15236845 
    5700    293.40949   -507.42744    149225.38   -47536.403    4029.2727   -51565.676   0.15086144 
    5800     292.0278   -496.50738    149229.21   -47477.699    4010.2986   -51487.997    0.1571927 
    5900    289.75073   -518.04246    149224.82   -47560.439    3979.0285   -51539.467   0.14910482 
    6000    289.50182   -504.74161    149187.66    -47530.67    3975.6103    -51506.28   0.16089913 
    6100    289.23588   -550.57956    149199.94   -47614.703    3971.9583   -51586.661   0.15085387 
    6200       288.01   -526.95563    149162.59    -47585.91    3955.1238   -51541.033   0.16336701 
    6300    294.87674   -518.52538    149219.49   -47468.009     4049.422    -51517.43   0.15917189 
    6400    296.02467   -520.94298    149246.49     -47519.7     4065.186   -51584.886   0.14735246 
    6500    291.13078   -503.98376    149200.41   -47523.794    3997.9802   -51521.774   0.15537028 
    6600    292.39998   -486.82685    149209.96   -47531.188    4015.4095   -51546.597   0.15252564 
    6700    290.46654   -544.45623    149196.99   -47587.923    3988.8585   -51576.781   0.16081503 
    6800    291.62835   -502.19081    149223.56   -47543.939    4004.8131   -51548.752   0.15730372 
    6900     298.3542   -468.90138    149245.77   -47469.784    4097.1765    -51566.96   0.15251772 
    7000     292.8572   -468.36824    149214.89   -47471.699    4021.6884   -51493.387   0.16029381 
    7100    293.46221   -471.58965    149253.54   -47478.264    4029.9967   -51508.261   0.14172462 
    7200    288.60756   -533.35308    149222.18   -47593.853    3963.3299   -51557.182   0.16126979 
    7300    285.08601   -465.91479    149208.44   -47645.959    3914.9698   -51560.929   0.15143956 
    7400    288.97131   -480.80781     149222.7   -47531.616    3968.3251   -51499.941   0.15134503 
    7500     295.3198   -463.74187    149244.49   -47464.451    4055.5062   -51519.957   0.15758324 
    7600    288.98726   -502.06675    149259.19    -47440.83    3968.5441   -51409.374   0.15132325 
    7700     287.4663   -522.92276    149232.31   -47538.954    3947.6574   -51486.612   0.16525525 
    7800    288.69849   -533.60905    149231.86   -47604.718    3964.5785   -51569.296   0.15169975 
    7900    291.86692   -521.10045    149234.81   -47544.951    4008.0894    -51553.04   0.15286193 
    8000    292.98517   -513.47385    149252.26   -47439.778    4023.4458   -51463.224   0.15694688 
    8100      295.947   -500.12998    149264.62   -47400.023    4064.1193   -51464.142   0.15647341 
    8200    299.86424   -482.34864    149246.31   -47424.057    4117.9133    -51541.97   0.15825589 
    8300    294.19359   -508.50474    149264.66    -47387.25    4040.0405    -51427.29   0.16569262 
    8400      295.808   -505.89168    149283.09   -47362.229    4062.2105   -51424.439     0.157554 
    8500    298.00048   -474.12707    149268.13   -47453.556    4092.3189   -51545.875   0.15445695 
    8600     297.0839   -449.88572    149251.34   -47458.107     4079.732   -51537.839   0.14009008 
    8700    297.75137   -457.10604    149251.15   -47434.402     4088.898     -51523.3   0.16206448 
    8800     296.6388   -502.59058    149245.49    -47477.26    4073.6196    -51550.88   0.14829019 
    8900    291.46986   -540.64687    149210.26   -47545.328    4002.6366   -51547.965   0.15962598 
    9000    292.91482   -514.56676     149244.3   -47466.398    4022.4797   -51488.878   0.15329756 
    9100    298.39726   -472.99625    149239.33   -47518.739    4097.7677   -51616.506   0.14420354 
    9200    298.87411   -477.72296    149260.89   -47413.002    4104.3161   -51517.318   0.16773754 
    9300    286.86944   -536.68871    149255.75   -47567.191    3939.4609   -51506.652   0.14971445 
    9400    290.76256   -528.37888    149225.81   -47528.786    3992.9235    -51521.71   0.16352833 
    9500    292.89972   -469.67075    149232.28   -47570.386    4022.2723   -51592.659   0.14822754 
    9600    292.83731   -492.63653    149233.87   -47558.839    4021.4153   -51580.255   0.14455003 
    9700    297.35571   -493.99179    149261.37   -47436.874    4083.4646   -51520.339   0.15232186 
    9800    297.93002   -488.70335    149278.51   -47388.851    4091.3514   -51480.202   0.15789703 
    9900    296.22419   -516.03798    149287.31    -47425.92    4067.9259   -51493.845   0.15535917 
   10000    292.65366   -527.60431    149291.35   -47481.078    4018.8933   -51499.971   0.15364391 
   10100    298.62661   -487.63258    149271.79   -47431.576    4100.9174   -51532.493   0.15183049 
   10200    292.15173    -519.6935     149276.4   -47400.251    4012.0005   -51412.252   0.16127359 
   10300    297.08131   -533.18908    149277.78   -47403.589    4079.6965   -51483.285    0.1607879 
   10400    293.97047   -502.49972    149278.66   -47401.756    4036.9764   -51438.733   0.16086411 
   10500    293.34516   -496.31013    149264.72    -47453.89    4028.3894   -51482.279   0.15049276 
   10600    291.48137   -471.90602    149249.85   -47476.956    4002.7948    -51479.75   0.15772803 
   10700    292.40144   -473.56766    149226.36   -47489.171    4015.4297   -51504.601   0.15268681 
   10800    287.96088   -510.38511    149222.34    -47631.18    3954.4493    -51585.63   0.15145947 
   10900    289.67928   -504.73845    149194.83   -47616.689    3978.0473   -51594.737   0.16489799 
   11000    287.13381   -519.64963    149220.99   -47634.495    3943.0914   -51577.586   0.14687242 
   11100    297.66774   -449.42868    149223.66   -47536.971    4087.7496    -51624.72   0.14976247 
   11200    286.17203   -471.85605    149197.27   -47637.241    3929.8837   -51567.125   0.15200066 
   11300    291.06545   -496.59416    149206.26   -47548.787     3997.083    -51545.87   0.15209755 
   11400    294.20278    -505.2012    149224.33   -47531.251    4040.1668   -51571.418   0.16221476 
   11500    295.81526   -496.15975    149246.52   -47427.477    4062.3102   -51489.787    0.1537133 
   11600    293.26351   -498.24626    149265.22   -47429.611    4027.2681   -51456.879   0.16280497 
   11700    298.87058   -469.01444    149291.85   -47292.222    4104.2677   -51396.489   0.15959199 
   11800    294.39268   -509.22622    149285.02   -47365.675    4042.7746   -51408.449   0.15683869 
   11900    292.15237   -511.03948    149264.61   -47418.656    4012.0093   -51430.666   0.16800851 
   12000    293.24675   -519.61906    149280.41   -47380.763    4027.0379   -51407.801    0.1585196 
   12100    296.13985   -484.36138    149270.37   -47440.186    4066.7677   -51506.954   0.15939761 
   12200    297.53393   -449.37187    149270.16   -47440.079     4085.912   -51525.991   0.14390222 
   12300     291.5543   -471.47079     149226.3   -47494.257    4003.7963   -51498.053   0.16100176 
   12400    291.77939   -505.16407    149227.05   -47483.745    4006.8873   -51490.632   0.15444591 
   12500    296.94197   -501.82136    149232.27   -47420.709    4077.7829   -51498.491   0.16114413 
   12600    296.02027   -509.17566    149232.98   -47375.884    4065.1256   -51441.009   0.16438455 
   12700    293.12544   -487.69526    149244.98   -47461.549     4025.372   -51486.921   0.15854097 
   12800    292.34683   -475.75408     149225.9    -47439.24    4014.6797    -51453.92   0.15896607 
   12900    292.77182   -496.09593    149230.96   -47509.183    4020.5159   -51529.699   0.15889174 
   13000    295.49611   -493.41481    149214.03   -47477.577    4057.9275   -51535.505   0.15213435 
   13100     288.8494   -504.91097    149209.93   -47554.697     3966.651   -51521.348   0.16282545 
   13200    289.61068   -492.40623    149206.81   -47581.461    3977.1053   -51558.566   0.15037799 
   13300    287.28085   -487.10926    149193.17   -47664.668    3945.1106   -51609.778   0.15426206 
   13400     281.8601   -494.55077    149165.62   -47644.545    3870.6697   -51515.215   0.16126213 
   13500    290.74865   -502.53709     149216.5   -47559.399    3992.7325   -51552.131   0.14973785 
   13600    289.94568   -478.73017     149207.5   -47508.612    3981.7058   -51490.317   0.16817243 
   13700    293.59377   -470.78311    149203.58   -47539.033    4031.8034   -51570.836   0.14498448 
   13800     294.9015   -482.09957    149227.66   -47486.786    4049.7619   -51536.548   0.16145287 
   13900    293.21986   -510.01475    149232.35   -47479.113    4026.6687   -51505.782   0.15343583 
   14000    293.61297   -517.07383    149252.07   -47362.854     4032.067   -51394.921   0.16115683 
   14100    299.33922   -493.53682    149243.39   -47456.792    4110.7034   -51567.495   0.16320229 
   14200    291.75244   -506.69154    149247.61   -47463.831    4006.5172   -51470.348   0.15444794 
   14300    289.59515   -496.98799    149235.29    -47497.24    3976.8921   -51474.132   0.15785479 
   14400    288.33115   -486.41069    149229.04   -47555.499    3959.5339   -51515.033   0.15415895 
   14500    295.54099    -473.8831    149243.43   -47574.259    4058.5438   -51632.802   0.14902311 
   14600    297.17481   -463.00326    149246.67   -47525.937    4080.9804   -51606.918    0.1558433 
   14700    296.37151   -478.79927    149278.83   -47472.947    4069.9491   -51542.896   0.15067904 
   14800    286.24464   -536.32078    149273.23   -47452.542    3930.8809   -51383.423   0.16498155 
   14900    295.55826   -495.27003    149278.78   -47466.234    4058.7809   -51525.014   0.15695061 
   15000    296.50507   -500.22971     149262.3   -47534.713    4071.7831   -51606.496   0.15435423 
   15100    289.73202   -536.07675    149228.58   -47539.635    3978.7717   -51518.407   0.15934201 
   15200    288.27875   -514.60648    149261.47   -47473.156    3958.8144    -51431.97    0.1623598 
   15300    288.98184   -509.91012    149249.48   -47559.984    3968.4697   -51528.454   0.15757955 
   15400    288.38797   -469.69816    149243.36   -47553.663    3960.3144   -51513.977   0.14471343 
   15500    297.64794   -484.32184    149242.62   -47485.729    4087.4776   -51573.206   0.15335907 
   15600    296.80819   -489.43176    149266.46   -47360.516    4075.9458   -51436.462   0.16061241 
   15700     301.3219   -461.06531    149279.07   -47377.194    4137.9307   -51515.124   0.14907435 
   15800    295.70667   -508.78764    149247.49   -47373.387     4060.819   -51434.206    0.1676228 
   15900    294.80985   -504.16654    149253.22   -47399.368    4048.5034   -51447.872   0.15507114 
   16000    294.69828   -515.68791    149258.39   -47448.867    4046.9712   -51495.838   0.15605756 
   16100    292.66233   -498.54751    149252.35   -47485.401    4019.0124   -51504.413   0.15993401 
   16200    292.09778   -501.67425    149249.78   -47494.756    4011.2597   -51506.016   0.15046888 
   16300    288.76631   -528.55625    149237.09   -47512.075    3965.5099   -51477.585   0.17155235 
   16400    289.18801    -502.2343    149240.56   -47523.359     3971.301    -51494.66   0.14907766 
   16500     291.2114   -488.88805    149225.22   -47434.703    3999.0873    -51433.79   0.15884626 
   16600    296.57884   -474.08783    149260.01   -47360.681    4072.7961   -51433.477   0.15670216 
   16700     297.3847   -478.65617    149238.98   -47407.028    4083.8627    -51490.89    0.1553952 
   16800    293.08955   -518.49921    149254.63   -47461.094    4024.8792   -51485.973   0.15289079 
   16900    293.77457   -504.03265    149236.34   -47485.563    4034.2863   -51519.849   0.15835356 
   17000    291.65972   -480.58875    149216.08   -47533.253    4005.2439   -51538.497   0.15401679 
   17100    295.49049   -476.71876    149230.72   -47484.744    4057.8503   -51542.594   0.15024366 
   17200    286.99059   -516.60192    149196.29    -47546.42    3941.1247   -51487.544   0.16309951 
   17300    280.77567   -565.80427    149183.53   -47643.335    3855.7777   -51499.113   0.15695794 
   17400    288.43678   -490.16867    149194.01   -47633.202    3960.9846   -51594.187   0.15293743 
   17500    290.31088   -490.84385    149198.55   -47524.473    3986.7209   -51511.194   0.15643211 
   17600    291.67369   -525.60541    149221.67   -47531.971    4005.4358   -51537.407   0.15251751 
   17700    289.54759   -513.46646    149197.08   -47593.402    3976.2388   -51569.641   0.15886836 
   17800    287.33257   -516.75126    149170.54   -47535.585    3945.8209   -51481.406   0.16210819 
   17900    290.14805   -525.18977    149211.23   -47480.667    3984.4848   -51465.152   0.15378723 
   18000    296.12256    -508.5606    149226.74   -47387.884    4066.5302   -51454.415   0.16560355 
   18100    292.68881   -486.92325    149256.35   -47395.012     4019.376   -51414.388   0.15224818 
   18200    293.70963   -529.21742     149231.3    -47445.55    4033.3945   -51478.944   0.15913545 
   18300    290.96903   -454.67945     149251.6   -47446.206    3995.7589   -51441.965    0.1611258 
   18400    294.80822    -497.1377    149224.49   -47543.254     4048.481   -51591.735   0.15193147 
   18500    291.60195    -502.5289     149217.9   -47474.247    4004.4506   -51478.698   0.16019434 
   18600    293.09271   -508.72797    149239.04   -47425.166    4024.9225   -51450.089   0.16145344 
   18700    295.08407   -495.56529    149243.18   -47446.115    4052.2691   -51498.385   0.15618168 
   18800    293.51472   -496.84649    149251.66   -47461.574    4030.7178   -51492.292   0.15924367 
   18900    290.34685   -511.43646    149231.44   -47416.471    3987.2148   -51403.686   0.15955681 
   19000    290.76939   -521.34883    149227.75   -47456.192    3993.0174   -51449.209   0.16316083 
   19100    299.26318   -467.27103    149237.31    -47364.68    4109.6591   -51474.339   0.15556347 
   19200    297.43557    -469.3601    149229.02   -47397.007    4084.5613   -51481.568   0.16285293 
   19300    296.90282   -467.44718    149263.69   -47285.641    4077.2452   -51362.886   0.15646797 
   19400    297.81352   -488.74041    149252.04   -47360.904    4089.7516   -51450.655    0.1626501 
   19500    298.23801     -523.039    149245.33   -47362.781    4095.5808   -51458.362    0.1621508 
   19600    298.42691   -488.81605    149234.32   -47352.532    4098.1749   -51450.707    0.1543321 
   19700    296.06496   -498.41216    149256.91   -47412.434    4065.7393   -51478.173   0.16394498 
   19800    296.55567   -485.86959    149230.39   -47356.741     4072.478   -51429.219   0.15260118 
   19900    295.07872   -486.18331    149228.03   -47442.823    4052.1956   -51495.018   0.16227179 
   20000    296.66321   -508.40945    149247.15   -47473.943    4073.9548   -51547.898   0.15493755 
   20100    289.84623   -494.38609     149218.8     -47516.3    3980.3399    -51496.64   0.15512166 
   20200    292.79052   -490.31749    149231.64   -47490.115    4020.7727   -51510.887   0.15938864 
   20300    288.85704   -520.00123    149235.12   -47452.913    3966.7559   -51419.669    0.1597322 
   20400    286.44845   -513.69315    149237.73   -47517.695    3933.6797   -51451.375   0.15679797 
   20500    289.12298   -510.23432     149223.1    -47558.57     3970.408   -51528.978   0.16244689 
   20600    288.81275   -493.34457    149205.64   -47579.246    3966.1476   -51545.393   0.15401139 
   20700    287.29918   -526.36803    149218.43   -47523.664    3945.3624   -51469.026    0.1637773 
   20800    298.45043   -458.09225    149252.99   -47379.058     4098.498   -51477.556   0.14906616 
   20900    295.17541   -481.21944    149238.96   -47489.575    4053.5234   -51543.098   0.15665128 
   21000    295.03277   -501.47019     149222.6   -47500.693    4051.5647   -51552.258     0.154669 
   21100    295.36052   -507.33623    149245.71   -47380.126    4056.0655   -51436.191   0.15828693 
   21200    295.57194   -484.27177    149270.06   -47400.932    4058.9689     -51459.9   0.16232592 
   21300    298.74517   -468.70657    149291.91   -47395.307    4102.5455   -51497.852   0.15336597 
   21400     293.2065   -524.64431    149238.19   -47433.878    4026.4852   -51460.363   0.15970301 
   21500    297.76853    -464.0809     149283.8   -47338.241    4089.1336   -51427.375   0.15535789 
   21600     293.6147   -532.21781    149297.33   -47342.628    4032.0908   -51374.719   0.16312837 
   21700    293.15616   -539.32489    149264.27   -47483.915    4025.7939   -51509.709   0.15813934 
   21800    293.36881   -498.98028    149227.18   -47514.525    4028.7142   -51543.239   0.15335835 
   21900    290.94003   -508.01494    149237.19   -47484.676    3995.3606   -51480.037    0.1617916 
   22000    288.37448    -491.9677    149233.47   -47516.501     3960.129    -51476.63   0.15630235 
   22100    292.18047    -499.3999    149239.47    -47568.64    4012.3952   -51581.035    0.1543988 
   22200    288.23501   -513.62707    149215.68   -47649.768    3958.2138   -51607.982   0.15470374 
   22300    291.00025   -466.13558    149263.22   -47538.536    3996.1877   -51534.724   0.14427688 
   22400    298.99258   -504.98736    149267.91   -47484.084    4105.9431   -51590.027   0.15717118 
   22500    297.74052   -462.25464    149279.68   -47428.705     4088.749   -51517.454   0.14641216 
   22600    293.17459   -500.07503    149286.27   -47472.184    4026.0469   -51498.231   0.16305387 
   22700    291.11927   -505.38614    149269.55   -47528.905    3997.8221   -51526.727   0.15742719 
   22800    291.48198   -542.77635    149303.29   -47452.613    4002.8031   -51455.416   0.15702256 
   22900    298.23896   -460.18791    149311.83   -47486.734    4095.5939   -51582.328    0.1524857 
   23000    287.79895   -520.31973       149286   -47557.367    3952.2255   -51509.593   0.15215536 
   23100    290.32229   -498.62992    149303.67   -47497.738    3986.8776   -51484.616   0.15487909 
   23200    294.36828   -495.10812    149299.41   -47442.685    4042.4395   -51485.124   0.15925832 
   23300    298.03814   -494.97364    149311.56    -47443.84    4092.8361   -51536.676   0.14781672 
   23400    297.04012   -515.05208    149306.17   -47491.429    4079.1308    -51570.56   0.15004987 
   23500    299.03717   -485.68479    149300.22   -47370.757    4106.5554   -51477.313   0.15794131 
   23600    286.66467   -530.60156    149307.53   -47387.928    3936.6489   -51324.577   0.16249927 
   23700    295.29107   -522.26717     149315.4   -47383.748    4055.1118    -51438.86   0.16477019 
   23800    297.23096    -511.0967    149325.07   -47391.565    4081.7515   -51473.317   0.15702987 
   23900    293.65412   -522.98726    149301.99   -47488.856    4032.6321   -51521.489   0.15393397 
   24000    293.45046   -520.59477    149297.61   -47435.598    4029.8354   -51465.433   0.15440091 
   24100    297.22475   -537.46772    149296.76   -47368.807    4081.6661   -51450.473   0.16292216 
   24200    295.95688   -483.76173    149278.95   -47493.046    4064.2551   -51557.301    0.1468594 
   24300     290.4755   -482.68993    149272.38   -47539.796    3988.9815   -51528.778   0.15712221 
   24400    291.45651   -488.69346    149261.78   -47562.327    4002.4534    -51564.78   0.14870933 
   24500     290.9847   -492.70744     149250.5   -47516.973    3995.9742   -51512.948   0.14854495 
   24600     290.9723   -490.96426    149255.01   -47566.073    3995.8039   -51561.877   0.15747504 
   24700    288.58787   -506.85207    149245.65   -47568.337    3963.0594   -51531.396   0.14827837 
   24800    293.15468   -480.10205    149265.51   -47510.686    4025.7736    -51536.46   0.15559811 
   24900    288.21962   -487.89201    149233.49   -47563.684    3958.0025   -51521.686    0.1543682 
   25000     289.4007   -507.82333    149241.81   -47551.861    3974.2217   -51526.083    0.1510622 
   25100    288.96279    -498.5549    149218.85   -47600.274     3968.208   -51568.482   0.15663809 
   25200    287.48977   -528.60118    149178.94   -47731.736    3947.9796   -51679.715    0.1504299 
   25300    288.14268   -495.36433    149218.13   -47568.123    3956.9459   -51525.068   0.15610685 
   25400    291.52464   -496.90494     149240.9   -47613.415     4003.389   -51616.804   0.14701485 
   25500    291.47496   -500.39103    149231.54   -47497.888    4002.7066   -51500.594    0.1538293 
   25600    293.95554   -490.53709    149239.01   -47411.336    4036.7714   -51448.108   0.15754425 
   25700    290.93689   -492.76971    149238.84   -47506.383    3995.3176     -51501.7   0.15644001 
   25800     292.6584   -500.86619    149229.18   -47359.393    4018.9584   -51378.352   0.16666028 
   25900     292.5918   -511.11068    149246.62   -47384.073    4018.0437   -51402.117    0.1557602 
   26000    294.24438   -488.34985    149234.31   -47431.058    4040.7379   -51471.796   0.16451752 
   26100    296.83359   -510.86274    149256.81    -47414.08    4076.2946   -51490.375    0.1567756 
   26200    291.81353   -504.60159    149268.64   -47521.823    4007.3562   -51529.179   0.15779851 
   26300    285.89127   -502.66382    149238.08   -47480.909    3926.0282   -51406.937   0.16506705 
   26400    288.73793   -528.17984    149226.26   -47543.201    3965.1202   -51508.321   0.15229691 
   26500    297.20263   -529.37597    149237.38    -47455.24    4081.3624   -51536.602   0.15788119 
   26600    291.94211   -502.88665    149260.29   -47397.438    4009.1218    -51406.56   0.16256269 
   26700    295.62904   -506.07518    149280.17   -47406.727     4059.753    -51466.48   0.15239099 
   26800    294.79319   -535.96524    149279.87   -47461.777    4048.2746   -51510.051   0.16192934 
   26900    296.76513    -470.1936    149271.99   -47393.116    4075.3544    -51468.47   0.15131908 
   27000    296.13041   -501.82995    149291.02   -47429.038     4066.638   -51495.676   0.15845563 
   27100    301.57833   -497.25638    149281.71   -47375.349    4141.4522   -51516.802   0.15839116 
   27200    292.93927   -497.91991    149283.65   -47443.809    4022.8154   -51466.625    0.1546776 
   27300    298.29565   -484.97994    149280.55   -47270.425    4096.3725   -51366.798   0.16422469 
   27400    296.58161   -493.53453    149294.38   -47398.299    4072.8343   -51471.134   0.15191841 
   27500    292.02702   -540.15215    149253.62   -47509.957    4010.2878   -51520.245   0.15751569 
   27600    290.28876   -471.55815    149210.29   -47554.659    3986.4171   -51541.076   0.14867147 
   27700    298.70725   -509.66954    149231.08   -47455.511    4102.0248   -51557.536   0.16216082 
   27800    299.21639   -504.99733     149246.9   -47433.319    4109.0166   -51542.335   0.15492983 
   27900    291.80683   -491.64018    149225.85   -47489.247     4007.264   -51496.512   0.15417701 
   28000    290.88449   -537.64801    149210.88   -47560.097     3994.598   -51554.695   0.15984541 
   28100    289.05182   -489.64481    149198.36   -47532.683    3969.4307   -51502.113   0.15545436 
   28200    294.43416   -508.54817    149231.25   -47505.826    4043.3442    -51549.17   0.16256645 
   28300    294.89451   -498.51738    149242.09   -47529.264     4049.666    -51578.93   0.15409633 
   28400    292.86712    -476.2939    149242.73   -47458.364    4021.8246   -51480.188   0.15392042 
   28500    294.87641   -489.81785    149238.11   -47492.751    4049.4174   -51542.168   0.15764193 
   28600    286.63525   -539.75285    149212.82   -47494.273    3936.2448   -51430.518   0.16145987 
   28700    294.45173   -501.63934    149206.42   -47496.703    4043.5854   -51540.289    0.1589823 
   28800    292.14186   -510.45612    149209.96   -47536.293     4011.865   -51548.158   0.15524355 
   28900    296.58749   -469.10421     149223.4   -47509.499     4072.915   -51582.414   0.15142538 
   29000    295.76849   -514.98146    149221.67    -47446.68     4061.668   -51508.348   0.16424465 
   29100    292.17234   -501.20612    149249.84   -47447.125    4012.2836   -51459.409   0.15805537 
   29200    292.60345   -509.22383    149285.37   -47380.107    4018.2037   -51398.311   0.16824799 
   29300    303.98337   -456.90805    149266.38   -47384.433    4174.4796   -51558.912   0.15387581 
   29400    297.68782   -503.65691    149266.19   -47403.789    4088.0254   -51491.815   0.15674088 
   29500    299.10009   -478.64446    149230.45   -47442.224    4107.4194   -51549.644   0.15999908 
   29600    293.66882    -514.6051    149237.59   -47415.232    4032.8341   -51448.066   0.16198953 
   29700     296.0583   -486.52526    149240.63   -47494.492    4065.6479    -51560.14   0.15970159 
   29800    291.82124   -485.64394    149216.43   -47582.355    4007.4621   -51589.817   0.15213107 
   29900    289.03596   -502.59308     149224.2   -47558.809    3969.2129   -51528.022   0.15337016 
   30000    291.26727   -494.52228    149213.64   -47524.983    3999.8546   -51524.838   0.15907569 
   30100    293.17728   -501.40696    149236.42   -47496.059    4026.0839   -51522.142   0.15809014 
   30200    293.50398   -499.77945    149243.65   -47507.961    4030.5704   -51538.531   0.16172907 
   30300    292.90473   -487.27327    149221.11   -47490.251    4022.3412   -51512.592   0.15423669 
   30400    290.35893   -495.72677    149239.63   -47534.643    3987.3807   -51522.023    0.1569583 
   30500     291.9605   -536.16349    149197.89    -47628.26    4009.3744   -51637.634   0.15189484 
   30600    295.58208   -483.07208    149200.43   -47503.967    4059.1081   -51563.075   0.16080148 
   30700    294.44238   -495.83549       149228   -47537.776     4043.457   -51581.233   0.16169224 
   30800     297.5143    -480.6787    149261.53   -47468.853    4085.6424   -51554.495    0.1463623 
   30900     294.7009   -514.96712    149277.28   -47455.414    4047.0072   -51502.421   0.16249549 
   31000    293.20499   -515.21024    149223.25   -47481.638    4026.4644   -51508.103   0.16000294 
   31100    286.72966   -545.90968       149217   -47496.238    3937.5415    -51433.78    0.1624439 
   31200    292.77701   -507.48171    149220.53   -47435.395    4020.5871   -51455.982   0.17062642 
   31300     297.2217   -455.06511    149245.82   -47365.443    4081.6244   -51447.068   0.15412538 
   31400    292.16646   -510.16015    149233.13   -47492.144    4012.2027   -51504.346   0.16051226 
   31500    293.79846   -537.46156    149225.86   -47434.512    4034.6144   -51469.126   0.16368631 
   31600    295.86529   -516.66246    149219.63   -47462.682    4062.9973   -51525.679   0.15996817 
   31700    293.17137   -484.06036    149236.14   -47432.468    4026.0028   -51458.471   0.17029351 
   31800    293.26773   -506.56877    149239.05   -47492.906    4027.3261   -51520.232   0.15278836 
   31900    294.06045   -496.70487    149236.82   -47488.461    4038.2122   -51526.673   0.15836406 
   32000    296.46095   -464.37428    149239.64   -47432.627    4071.1773   -51503.805   0.15696956 
   32100    289.79669   -521.96477    149245.79   -47480.321    3979.6597   -51459.981   0.16226129 
   32200    291.26913   -475.99044    149222.33   -47600.114    3999.8801   -51599.994   0.15346703 
   32300    293.55034   -470.50967    149217.89   -47543.872     4031.207   -51575.079   0.15864268 
   32400    286.42747   -532.77808    149206.08   -47634.593    3933.3916   -51567.985   0.15890017 
   32500     293.0022   -472.44583    149226.23   -47491.627    4023.6796   -51515.307   0.15327354 
   32600    293.42388   -502.97737    149245.52   -47446.627    4029.4704   -51476.098   0.16650869 
   32700    290.74741    -496.9628    149235.91   -47539.658    3992.7156   -51532.374   0.15370834 
   32800    292.80273   -492.91826     149240.3   -47406.209    4020.9404   -51427.149    0.1596633 
   32900    296.74139   -479.52451    149235.97   -47475.981    4075.0284   -51551.009   0.16122712 
   33000     295.4194   -473.76865    149236.44   -47463.502     4056.874   -51520.376   0.15169279 
   33100    291.23991   -520.36737    149204.83   -47496.108    3999.4788   -51495.587   0.16970102 
   33200    295.84955   -455.53438    149241.68    -47472.45    4062.7811   -51535.231   0.16000633 
   33300    293.43789   -526.96362    149252.85     -47480.4    4029.6628   -51510.063   0.15359624 
   33400    296.61467   -502.06996    149233.01    -47500.63    4073.2882   -51573.918   0.16508896 
   33500    292.68036   -465.86548    149208.29   -47523.589    4019.2599   -51542.849    0.1483123 
   33600    291.59713   -496.24142    149204.14   -47535.911    4004.3844   -51540.296   0.16193535 
   33700    297.10021   -468.29116    149227.92   -47426.698     4079.956   -51506.654   0.16215688 
   33800    304.57755   -498.23821    149286.82   -47325.914    4182.6392   -51508.553   0.16085998 
   33900    297.02852   -483.34374     149293.3   -47349.989    4078.9714    -51428.96   0.16384021 
   34000    295.88298   -523.43947    149248.04    -47498.61    4063.2402    -51561.85   0.15655779 
   34100    295.46271   -468.64186    149240.38   -47516.852    4057.4689   -51574.321   0.15534985 
   34200    289.43391    -500.4509    149215.96   -47511.317    3974.6777   -51485.994    0.1586848 
   34300    289.33145   -501.38032    149214.42   -47548.692    3973.2708   -51521.963   0.16343993 
   34400    294.09583   -487.52852    149229.91   -47471.789     4038.698   -51510.487   0.15626473 
   34500    295.53413   -499.92286    149249.64   -47397.747    4058.4496   -51456.197    0.1593938 
   34600    294.72581   -505.14269    149268.93   -47395.582    4047.3493   -51442.932   0.16669948 
   34700    290.89198   -492.61413    149232.69   -47507.418    3994.7009   -51502.119   0.15344153 
   34800    288.61353    -514.7391    149242.61   -47509.992    3963.4118   -51473.404   0.16687818 
   34900     293.9521   -514.78206    149235.23   -47484.732    4036.7242   -51521.456   0.16223362 
   35000     295.3295   -480.69447    149240.57   -47463.111    4055.6394    -51518.75   0.15397347 
   35100    294.90855   -493.07747    149227.68   -47474.397    4049.8588   -51524.256   0.16728286 
   35200    293.10628   -486.84655    149226.84   -47414.108    4025.1089   -51439.217   0.15509808 
   35300    291.40178   -529.25861     149241.1   -47502.467    4001.7017   -51504.169   0.16237446 
   35400    295.82269   -482.64909    149218.95   -47499.321    4062.4123   -51561.733   0.15611154 
   35500    291.88169   -501.66719     149225.7   -47482.924    4008.2921   -51491.216   0.15473714 
   35600    293.81604   -502.93065    149236.72   -47451.139    4034.8558   -51485.994   0.16559396 
   35700    296.88378   -494.28929    149238.01     -47471.9    4076.9838   -51548.884   0.15860278 
   35800    295.58351    -500.6621    149287.86   -47310.465    4059.1277   -51369.593   0.16451967 
   35900    295.49521   -540.23635    149266.62   -47426.391    4057.9152   -51484.307   0.16202944 
   36000    295.16108   -525.79828    149259.66   -47485.575    4053.3267   -51538.901   0.15395711 
   36100    289.23961   -503.78775    149241.91   -47526.216    3972.0096   -51498.225   0.15988082 
   36200    287.11068   -520.76975    149215.48   -47550.482    3942.7739   -51493.256   0.15386565 
   36300    288.75843   -512.72562    149218.11   -47483.111    3965.4017   -51448.513   0.16704513 
   36400    287.65676   -476.90867    149208.43    -47534.73    3950.2728   -51485.002   0.15581591 
   36500    291.62543   -512.33438    149226.78   -47517.845     4004.773   -51522.618   0.15693406 
   36600    288.33849   -520.61068    149213.29   -47518.759    3959.6348   -51478.394   0.16305032 
   36700    288.90056   -524.79996    149236.93   -47557.418    3967.3534   -51524.771   0.15507478 
   36800    292.26424   -528.20516    149204.22   -47634.428    4013.5455   -51647.973   0.15879601 
   36900    296.72593   -479.68181    149197.49   -47546.557    4074.8162   -51621.373   0.14861378 
   37000     291.0219   -512.49943    149198.43   -47534.745     3996.485    -51531.23   0.16109415 
   37100     291.6429   -519.20304    149209.09   -47579.163    4005.0129   -51584.176   0.15592376 
   37200    291.35442   -500.31872    149198.64    -47581.19    4001.0513   -51582.241   0.15293308 
   37300    287.82415   -511.49873    149200.98   -47578.961    3952.5716   -51531.533   0.16309541 
   37400    289.59699   -499.88686    149209.32   -47590.322    3976.9172   -51567.239   0.15176141 
   37500    290.95639   -497.86972    149189.47   -47560.933    3995.5854   -51556.518   0.15715634 
   37600    290.35934   -496.02731    149170.73   -47606.731    3987.3863   -51594.117   0.15228494 
   37700    292.29749   -461.43337    149158.87   -47688.265    4014.0021   -51702.267   0.14709323 
   37800    283.92849   -503.33725    149162.02   -47710.936    3899.0741    -51610.01    0.1550864 
   37900    291.97587   -514.50316    149174.34   -47609.722    4009.5854   -51619.307   0.14758759 
   38000    292.30755   -512.90603    149191.65   -47540.969    4014.1403    -51555.11   0.16164485 
   38100    292.93918   -431.30804    149192.14   -47472.321    4022.8142   -51495.136   0.15484387 
   38200    291.03187   -479.63938    149209.44   -47444.409    3996.6219   -51441.031   0.15581794 
   38300     292.7724   -491.61488    149199.75   -47500.581    4020.5239   -51521.105    0.1636069 
   38400    295.94694   -511.00909    149224.15   -47433.842    4064.1185   -51497.961   0.15771562 
   38500    291.72673   -519.91635    149212.89   -47494.722    4006.1642   -51500.886   0.16080453 
   38600    294.64151   -491.95823    149224.89   -47448.446    4046.1916   -51494.638   0.16018084 
   38700     294.1729    -503.3402    149215.42   -47421.995    4039.7563   -51461.752    0.1585953 
   38800    292.69208   -483.65889    149195.74   -47454.246    4019.4209   -51473.666   0.16461433 
   38900    296.69394   -520.56837     149219.1   -47396.636    4074.3768   -51471.013   0.15606925 
   39000    292.96192   -545.56121    149200.23   -47452.231    4023.1265   -51475.357   0.16340991 
   39100    292.57561   -459.57317    149194.49   -47475.077    4017.8214   -51492.899   0.15721176 
   39200    288.01645   -525.68552    149188.77   -47604.448    3955.2123    -51559.66   0.16252992 
   39300    289.92859   -487.91829    149189.39   -47605.994     3981.471   -51587.465   0.15196179 
   39400    294.33676   -461.03027    149227.86   -47482.362    4042.0067   -51524.369   0.15329782 
   39500    296.21147   -471.41475    149223.18   -47462.798    4067.7512   -51530.549   0.16094187 
   39600    295.52918   -511.97951    149214.14   -47456.875    4058.3817   -51515.257   0.14971628 
   39700    295.44944   -486.24268     149187.3   -47438.155    4057.2866   -51495.441   0.17034411 
   39800    291.37354   -496.92937    149195.29   -47463.022     4001.314   -51464.336   0.15675655 
   39900    295.78712   -506.99667    149192.88   -47424.221    4061.9238   -51486.145   0.16043751 
   40000    294.82106    -491.4327    149207.55   -47500.121    4048.6573   -51548.778   0.15993343 
   40100    292.90197   -496.43753    149184.23   -47512.083    4022.3032   -51534.386   0.15655293 
   40200    295.48643   -495.66588    149178.87   -47491.752    4057.7946   -51549.547   0.16249586 
   40300    295.09042   -440.39801    149205.72   -47504.823    4052.3563    -51557.18   0.15558376 
   40400    289.54583   -504.86723    149205.36   -47593.447    3976.2147   -51569.661   0.15124327 
   40500    296.17278   -498.09498    149208.44   -47447.539    4067.2199   -51514.759   0.16004259 
   40600    292.38766   -506.82062    149207.15   -47522.145    4015.2404   -51537.385   0.15710611 
   40700    290.01863   -509.01703    149190.83   -47528.288    3982.7075   -51510.995   0.16126265 
   40800    292.29349   -520.22637    149214.45   -47504.328    4013.9473   -51518.275   0.16015563 
   40900    294.99889   -464.24297    149205.77   -47486.883    4051.0993   -51537.982   0.15490233 
   41000    289.01125   -535.10438    149213.84   -47556.213    3968.8736   -51525.086   0.15903685 
   41100     290.6286   -470.67076    149231.83   -47531.548    3991.0839   -51522.632   0.15362317 
   41200    295.33296   -481.26175    149241.45   -47406.262    4055.6871   -51461.949   0.16621546 
   41300     295.0404    -479.2713    149254.73   -47500.354    4051.6694   -51552.023   0.14907737 
   41400    297.19911   -484.37116    149248.98   -47448.386    4081.3141     -51529.7   0.16170031 
   41500    296.14154   -536.29407    149244.34   -47459.142    4066.7909   -51525.933   0.15569755 
   41600    296.69957   -486.96976    149245.07   -47466.705    4074.4541   -51541.159   0.15204974 
   41700    286.41184   -539.31323    149188.22   -47575.129    3933.1769   -51508.306   0.17329574 
   41800    292.76756   -502.80726    149224.18   -47492.123    4020.4575   -51512.581   0.15087615 
   41900    295.01673   -467.58965    149201.87   -47571.211    4051.3444   -51622.555   0.15359831 
   42000    295.05673   -447.72027    149204.84   -47539.787    4051.8936    -51591.68   0.14999741 
   42100    293.90954    -476.5417    149205.57   -47611.947    4036.1398   -51648.087   0.14431736 
   42200    290.47614   -506.80497    149205.98    -47572.96    3988.9903   -51561.951   0.15934911 
   42300     290.6781   -492.27269    149218.87   -47531.038    3991.7637   -51522.802    0.1526961 
   42400    285.83199   -499.83622    149222.98   -47559.169    3925.2141   -51484.383   0.16264936 
   42500    293.54923   -479.13891    149244.29   -47517.855    4031.1917   -51549.046   0.15434497 
   42600    286.13954   -515.97549    149221.16   -47558.321    3929.4375   -51487.759   0.15543856 
   42700     286.3851   -510.10642    149202.13   -47627.762    3932.8097   -51560.572   0.15731549 
   42800    296.28689   -492.56072    149233.94   -47544.114    4068.7869   -51612.901   0.15349783 
   42900    291.84198   -474.11601    149228.25   -47564.548    4007.7468   -51572.295   0.15283511 
   43000    285.07608   -501.63078    149222.75   -47579.684    3914.8335   -51494.517    0.1514408 
   43100    290.96361   -496.14232    149214.68   -47497.817    3995.6845   -51493.501   0.15910983 
   43200    293.11171    -530.2695    149221.36    -47514.44    4025.1835   -51539.623   0.15930246 
   43300    293.47185   -481.19917    149203.28   -47506.172    4030.1292   -51536.301    0.1520087 
   43400    293.98436   -517.38001    149215.54   -47438.938    4037.1672   -51476.105   0.16673743 
   43500    289.81538   -508.63096    149240.99    -47494.04    3979.9164   -51473.956   0.15268556 
   43600    292.94557   -502.46109    149221.38   -47540.011    4022.9019   -51562.913   0.15387027 
   43700    287.05874   -529.40587    149196.83     -47578.4    3942.0605    -51520.46   0.16208809 
   43800    282.64582   -490.72238    149223.19   -47622.015    3881.4597   -51503.475   0.14970014 
   43900    293.55187   -483.17223    149212.21   -47532.117    4031.2281   -51563.345   0.16122734 
   44000    289.97866   -471.09762    149220.19   -47620.827    3982.1587   -51602.986   0.14369281 
   44100    289.67716   -490.17355    149194.15   -47571.303    3978.0183   -51549.321   0.15761977 
   44200    287.46485   -500.12937    149191.56   -47529.062    3947.6375   -51476.699   0.15942246 
   44300    283.00392   -544.22435    149210.79   -47535.355    3886.3773   -51421.732   0.15927962 
   44400     295.6917   -483.42547    149222.95   -47550.287    4060.6134     -51610.9   0.15390777 
   44500    291.78687   -497.05828    149200.39   -47548.743      4006.99   -51555.733   0.14877604 
   44600    292.01154   -492.63928    149218.75   -47561.584    4010.0754   -51571.659   0.15311651 
   44700    288.02926   -492.25184    149227.58   -47545.389    3955.3883   -51500.777   0.15199191 
   44800    294.94541   -476.01859    149216.08   -47500.462     4050.365   -51550.827   0.15794462 
   44900    292.81881    -502.0643    149249.22   -47493.337    4021.1612   -51514.499   0.15672041 
   45000    287.18868   -504.71788    149223.59   -47533.815    3943.8449    -51477.66   0.15445836 
   45100    293.31045   -521.21988       149251   -47415.908    4027.9127   -51443.821   0.16030993 
   45200     291.4007   -513.68326     149248.9   -47454.438    4001.6869   -51456.124   0.15578926 
   45300    292.35546   -503.13557    149245.88   -47476.719    4014.7983   -51491.517    0.1517522 
   45400    289.99654   -505.56923    149248.69   -47544.936    3982.4041    -51527.34    0.1545153 
   45500    298.00033   -461.21982    149258.59   -47478.123     4092.317    -51570.44   0.14531582 
   45600    295.99877   -511.39924    149271.24   -47475.956    4064.8303   -51540.787   0.15732997 
   45700    295.98379   -500.39774    149268.55   -47426.549    4064.6246   -51491.173   0.15570346 
   45800    293.65915   -502.51622    149263.32   -47505.611    4032.7013   -51538.312   0.15638852 
   45900    294.34511     -492.815    149287.49   -47366.759    4042.1212   -51408.881   0.15586227 
   46000    295.45189    -523.9696    149278.64   -47436.262    4057.3203   -51493.583   0.15327694 
   46100    297.78104   -524.56025    149293.71   -47339.873    4089.3055   -51429.178   0.16466768 
   46200    296.89214   -508.86634    149284.15   -47394.696    4077.0986   -51471.795   0.15222076 
   46300    297.15012   -516.10185    149276.77    -47388.83    4080.6413   -51469.472   0.16336361 
   46400    298.80817   -507.15297    149255.41   -47430.446    4103.4106   -51533.857   0.15288594 
   46500    296.15407    -501.7389    149268.59   -47398.407     4066.963    -51465.37   0.15547394 
   46600    300.38137   -478.63154    149276.63   -47456.079    4125.0147   -51581.094   0.15278522 
   46700     297.6608   -496.60135    149282.01   -47387.888    4087.6543   -51475.543   0.15080838 
   46800    294.73077   -511.65348    149278.86   -47405.626    4047.4174   -51453.043   0.16265753 
   46900    298.08059    -462.3525    149298.83   -47459.192    4093.4191   -51552.611   0.14604157 
   47000    294.66061   -503.37079     149271.7   -47490.908    4046.4539   -51537.361   0.15010514 
   47100    294.49093   -533.80396    149227.26   -47503.839    4044.1237   -51547.963   0.16057806 
   47200    293.82514   -506.36356    149236.06   -47470.786    4034.9807   -51505.767   0.15151119 
   47300    291.30972   -511.29992    149244.14   -47595.482    4000.4375   -51595.919   0.15412141 
   47400    292.64919   -491.15526    149248.76   -47524.231    4018.8319   -51543.063   0.15188728 
   47500    290.06919   -475.30547    149242.13   -47532.775    3983.4018   -51516.177   0.15248462 
   47600    292.34996   -522.16317    149247.42   -47524.419    4014.7227   -51539.142   0.15179769 
   47700    295.37557   -524.24471    149241.32   -47449.802    4056.2722   -51506.074   0.15542121 
   47800    290.88053   -506.20147    149243.01   -47510.805    3994.5437   -51505.349   0.15641559 
   47900    294.37103    -505.9571    149230.34   -47563.734    4042.4772   -51606.211   0.14499882 
   48000    295.63845   -507.15784    149229.45   -47518.555    4059.8822   -51578.437   0.15474678 
   48100    288.24049   -470.43089    149205.95   -47557.041     3958.289    -51515.33   0.15220962 
   48200    288.98442    -508.5064    149195.54   -47548.417    3968.5051   -51516.922   0.15102723 
   48300    293.13488   -503.52947    149214.73   -47505.069    4025.5017    -51530.57   0.15921125 
   48400    289.17246   -518.57621    149227.12   -47537.521    3971.0874   -51508.609   0.14530366 
   48500    287.23316   -565.27094    149200.94   -47628.949    3944.4558   -51573.405   0.15777349 
   48600    288.15138   -489.93494    149197.44   -47612.833    3957.0653   -51569.898   0.14877769 
   48700    297.52588   -461.10505    149228.78   -47507.187    4085.8014   -51592.989    0.1421202 
   48800    295.91284   -472.92101    149212.88   -47496.896    4063.6502   -51560.547   0.15947447 
   48900    290.57382   -519.04577    149200.06   -47524.865    3990.3316   -51515.197   0.14646742 
   49000    292.81691   -502.42669    149197.43   -47560.908    4021.1351   -51582.043    0.1511051 
   49100    298.98665   -479.23074    149214.62   -47472.414    4105.8617   -51578.275   0.15305753 
   49200      290.385   -507.39892    149224.45   -47503.981    3987.7387   -51491.719   0.15068637 
   49300    292.84705   -532.82705    149221.48   -47574.717     4021.549   -51596.266   0.15489044 
   49400    288.46871   -511.99764     149189.1   -47584.616    3961.4231   -51546.039   0.14982723 
   49500    288.28699   -513.06442    149200.85   -47530.416    3958.9276   -51489.344   0.15645144 
   49600    293.01373    -490.0765    149218.63   -47524.865     4023.838   -51548.703    0.1535697 
   49700    292.98011   -497.34928    149230.78   -47530.035    4023.3763   -51553.411   0.15197923 
   49800     293.9508   -497.38511    149214.72   -47539.896    4036.7063   -51576.602    0.1511746 
   49900    293.65061   -507.45843    149216.19   -47519.489     4032.584   -51552.073   0.15068347 
   50000    294.16306   -477.36568    149222.26   -47530.014    4039.6213   -51569.635   0.15264342 
   50100    288.65247   -505.19912    149245.92   -47381.553    3963.9465     -51345.5   0.15421548 
   50200    289.64585   -505.34391    149262.34   -47466.501    3977.5882   -51444.089   0.15597781 
   50300    292.65547   -474.44449    149262.25   -47477.341    4018.9182    -51496.26    0.1515646 
   50400     298.7112   -460.17732    149270.44   -47501.234     4102.079   -51603.313   0.13969085 
   50500    295.69167   -474.97624    149288.11   -47409.615    4060.6131   -51470.228   0.15705007 
   50600    295.68217   -502.64414    149311.23   -47329.482    4060.4826   -51389.965   0.14750144 
   50700    292.92875   -503.21562    149263.57   -47577.774     4022.671   -51600.445   0.14750614 
   50800    289.81184   -521.29369    149263.67   -47555.332    3979.8677   -51535.199   0.14943496 
   50900    290.82932   -488.90961    149255.67   -47582.096    3993.8404   -51575.936   0.14406239 
   51000    292.90408    -502.9214    149244.26   -47537.938    4022.3322   -51560.271   0.15168419 
   51100    293.73717   -482.05951    149236.72   -47546.424    4033.7727   -51580.197   0.14560754 
   51200     291.8852   -451.97065     149235.7   -47610.021    4008.3403   -51618.361   0.14303323 
   51300    289.67775   -474.64097    149195.82   -47610.703    3978.0263   -51588.729   0.14895498 
   51400    288.81709   -497.88532    149233.06   -47555.684    3966.2072   -51521.891   0.15005619 
   51500    288.71044   -523.43783    149245.33     -47616.3    3964.7426   -51581.043   0.14908938 
   51600    292.73275   -499.57004    149227.73   -47527.067    4019.9794   -51547.046   0.14717535 
   51700    295.78842   -504.74848    149267.24   -47428.859    4061.9416   -51490.801   0.15165622 
   51800    300.08221   -512.50045    149256.39   -47472.015    4120.9065   -51592.921   0.14656601 
   51900    296.47155   -498.79419       149244   -47540.938    4071.3229   -51612.261   0.14753037 
   52000    291.11571   -489.76473    149236.69   -47517.244    3997.7733   -51515.017   0.14924051 
   52100     291.8078   -499.76419     149241.6   -47600.505    4007.2774   -51607.782   0.14576232 
   52200    287.74312   -498.81543       149238   -47654.806    3951.4588   -51606.265   0.14899719 
   52300    287.92689   -474.20013    149234.72   -47631.467    3953.9824   -51585.449   0.13960173 
   52400    280.06161   -491.06061    149220.57   -47719.495    3845.9718   -51565.467   0.14814878 
   52500    290.34737   -450.38431    149244.18   -47565.907     3987.222   -51553.129   0.14629447 
   52600    291.76298   -514.53749    149279.76   -47537.821    4006.6619   -51544.483   0.14679808 
   52700    292.80118   -516.03942    149281.44   -47472.213    4020.9192   -51493.133   0.15070525 
   52800    299.13307    -466.8344    149314.06   -47445.123    4107.8724   -51552.996   0.14343085 
   52900    293.49578   -472.59036     149334.7   -47470.104    4030.4577   -51500.562   0.14782439 
   53000    296.13902   -500.59772    149333.94   -47417.625    4066.7563   -51484.381   0.14636043 
   53100    294.29135   -478.75505     149275.6   -47553.136    4041.3829   -51594.519   0.14311797 
   53200    287.20081   -507.35942    149256.18   -47606.578    3944.0115    -51550.59   0.14892288 
   53300     293.1331   -461.89648    149263.99   -47562.943    4025.4772    -51588.42   0.14050648 
   53400    294.84669   -484.13258    149281.84   -47494.956    4049.0092   -51543.965   0.15336345 
   53500    293.87664   -505.16471    149307.18   -47486.356     4035.688   -51522.044    0.1463484 
   53600    293.15741   -481.53772    149292.71   -47557.492    4025.8111   -51583.303   0.14384852 
   53700    291.09068   -524.49522    149307.54   -47539.796    3997.4295   -51537.225   0.14703944 
   53800    291.23584   -523.07414    149293.33   -47566.648     3999.423   -51566.071   0.14378789 
   53900    290.06215     -492.919    149276.07   -47567.929    3983.3052   -51551.234   0.14752724 
   54000    292.01716   -513.77178    149269.39   -47577.155    4010.1525   -51587.307   0.14384368 
   54100     292.5492   -504.64129    149275.11   -47549.534    4017.4587   -51566.993   0.14825501 
   54200    290.55382   -522.78659    149280.29   -47498.379     3990.057   -51488.437   0.15196548 
   54300    294.15773   -488.68021    149280.78   -47423.564     4039.548   -51463.112   0.15142921 
   54400     299.9174   -460.45605    149313.43   -47342.222    4118.6432   -51460.866   0.14778891 
   54500    290.75206   -505.58487     149310.9   -47413.857    3992.7794   -51406.637   0.14933168 
   54600    296.34725   -491.88865    149296.69   -47428.446    4069.6159   -51498.062   0.15150071 
   54700    291.94839    -548.2584    149272.99   -47488.334     4009.208   -51497.542   0.15054938 
   54800    293.22306   -515.51227    149283.04   -47412.036    4026.7126   -51438.749   0.15492511 
   54900    295.76447   -525.89952    149305.08   -47429.707    4061.6128   -51491.319   0.15579863 
   55000    293.46405   -510.77812    149319.34   -47463.124    4030.0221   -51493.146   0.14601183 
   55100     291.5701   -519.88431    149258.62   -47479.751    4004.0132   -51483.764   0.15959629 
   55200     285.3847   -519.78673     149235.3   -47594.437    3919.0716   -51513.509   0.14702139 
   55300    285.81525   -497.59018     149217.5   -47642.414    3924.9842   -51567.398    0.1443257 
   55400    289.97317   -514.38128    149212.71   -47605.503    3982.0832   -51587.586   0.15363555 
   55500    291.27426    -466.5648     149232.4    -47562.54    3999.9506   -51562.491   0.14238585 
   55600    296.45863   -487.42058    149261.04   -47459.435    4071.1454    -51530.58   0.15162462 
   55700    292.23328   -539.51696    149281.31   -47418.175    4013.1204   -51431.295   0.15566454 
   55800    296.62649   -490.86122     149270.6   -47408.514    4073.4505   -51481.965   0.14731457 
   55900    295.33283   -455.46454    149263.23   -47418.815    4055.6853   -51474.501   0.15730469 
   56000    291.45889   -490.40986    149272.88   -47432.323    4002.4859   -51434.809   0.14916543 
   56100    291.84802   -556.17319     149287.3   -47421.541    4007.8298   -51429.371   0.15523605 
   56200    286.98826   -527.98884    149279.12   -47456.299    3941.0927   -51397.391   0.15556693 
   56300    291.13822   -502.71845    149240.83    -47526.29    3998.0824   -51524.372   0.15207178 
   56400    290.05649   -479.74432     149233.1   -47572.659    3983.2274   -51555.886    0.1468063 
   56500    285.79632   -534.45797    149234.16   -47628.723    3924.7242   -51553.448    0.1485854 
   56600    289.21384    -489.6088    149220.77   -47681.373    3971.6557   -51653.029   0.14344442 
   56700    286.81117   -482.75417       149222   -47657.291    3938.6608   -51595.952   0.14400549 
   56800    289.47175   -508.38109    149249.51   -47547.662    3975.1974   -51522.859   0.15314852 
   56900    285.46115   -480.13836    149265.33   -47642.658    3920.1215   -51562.779   0.14085056 
   57000    289.04991   -517.25096    149234.77   -47633.639    3969.4044   -51603.043   0.14465826 
   57100    289.17451   -497.12284    149249.82   -47546.628    3971.1156   -51517.744   0.15327563 
   57200    292.26061   -510.11589    149244.74   -47495.101    4013.4957   -51508.597   0.14901245 
   57300    287.74873   -531.22302     149215.9   -47638.114    3951.5359    -51589.65   0.14876386 
   57400    296.53385   -507.31463    149209.69   -47515.411    4072.1783   -51587.589   0.15185175 
   57500    289.54204   -497.79182    149234.65   -47477.875    3976.1627   -51454.037    0.1478663 
   57600    289.01677   -517.35038    149203.53   -47586.559    3968.9493   -51555.509   0.15237175 
   57700    295.13436   -498.10341    149247.63   -47502.944    4052.9597   -51555.903   0.14446316 
   57800    294.48338   -518.32719     149225.4   -47448.292    4044.0201   -51492.312   0.15424747 
   57900    296.39746   -506.28118    149235.81   -47487.462    4070.3053   -51557.767   0.15080861 
   58000    294.42981   -474.72216    149246.92   -47442.751    4043.2845   -51486.035   0.14855047 
   58100    291.40527   -520.13529    149216.27   -47491.588    4001.7496   -51493.337   0.15350356 
   58200    297.82107   -503.88432    149240.55   -47389.474    4089.8552   -51479.329   0.15320087 
   58300    294.84419   -490.07643     149215.6   -47456.035    4048.9749    -51505.01    0.1529249 
   58400    294.81101   -501.18432    149246.66   -47501.372    4048.5192   -51549.892   0.14883877 
   58500    292.26879     -529.692    149240.46    -47504.45     4013.608   -51518.058   0.15416823 
   58600    290.84389    -530.8897    149234.47   -47544.615    3994.0405   -51538.655   0.14981246 
   58700    294.22807   -476.82604    149234.11   -47494.068     4040.514   -51534.582   0.14959805 
   58800    292.18624   -521.96995    149232.87   -47537.433    4012.4744   -51549.907   0.15177219 
   58900    296.43638   -498.28533    149261.45   -47459.225    4070.8398   -51530.065   0.14532481 
   59000    295.70153   -486.57045    149284.29   -47424.137    4060.7485   -51484.885   0.15150667 
   59100    300.25461   -509.78502    149278.34   -47391.632    4123.2741   -51514.907   0.15261789 
   59200    291.94992   -497.96668    149268.58   -47511.995    4009.2291   -51521.225   0.14782803 
   59300    294.15965    -478.4805    149261.17   -47485.422    4039.5744   -51524.997   0.15156291 
   59400    292.84182   -512.42269    149274.21   -47469.618    4021.4772   -51491.095   0.14705532 
   59500    288.66094    -499.0253    149228.16    -47578.75    3964.0629   -51542.812   0.15270033 
   59600     287.0305   -497.38391    149242.82    -47555.19    3941.6727   -51496.863   0.15085153 
   59700     291.8461    -536.4775    149252.78   -47485.231    4007.8034   -51493.035   0.15378918 
   59800    287.50677   -509.11662    149224.65   -47600.092    3948.2132   -51548.306   0.14798803 
   59900    283.63484   -507.80429    149211.88   -47595.792    3895.0415   -51490.834   0.15256914 
   60000    289.43475   -511.39086    149227.72   -47556.755    3974.6893   -51531.444   0.15028088 
   60100    293.32864   -481.82082    149212.94   -47516.828    4028.1626   -51544.991   0.15076092 
   60200    292.08141   -496.15185    149230.55   -47485.459    4011.0349   -51496.494   0.14942945 
   60300    297.85658   -503.10813    149220.33   -47442.828    4090.3429   -51533.171   0.15700737 
   60400    294.87258   -492.30672    149237.44   -47393.785    4049.3648    -51443.15   0.15410968 
   60500    294.21817   -478.00858    149247.29   -47422.646     4040.378   -51463.024   0.15764943 
   60600    289.74777   -489.12108    149232.92    -47481.07    3978.9878   -51460.058   0.15518631 
   60700    295.73395   -498.69504    149286.13   -47308.905    4061.1936   -51370.098    0.1564086 
   60800     301.2099   -496.45291    149269.83   -47334.487    4136.3927   -51470.879   0.16058855 
   60900    296.92507   -516.28233    149276.69   -47429.695    4077.5508   -51507.246   0.14876452 
   61000    296.62913    -505.4877    149285.58   -47474.507    4073.4868   -51547.994   0.15452649 
   61100    292.68468   -514.23336    149282.29   -47457.336    4019.3192   -51476.655   0.15019031 
   61200    295.96071   -486.64767    149273.09    -47394.09    4064.3077   -51458.398   0.15314977 
   61300    291.35792   -486.14681    149271.65   -47489.222    4001.0994   -51490.322   0.14881485 
   61400    290.22829   -519.87123    149241.95   -47540.863    3985.5867    -51526.45   0.15150886 
   61500    293.55083   -512.16679    149240.55   -47484.344    4031.2137   -51515.558   0.15294716 
   61600    293.60786   -505.71839    149237.08   -47526.094    4031.9969   -51558.091   0.14936919 
   61700    287.62856   -559.16508       149241    -47583.45    3949.8856   -51533.336   0.15413929 
   61800    291.02999   -521.77267    149223.64   -47572.333    3996.5961   -51568.929   0.14836099 
   61900    291.97625   -480.30946    149225.09   -47467.438    4009.5906   -51477.028   0.15700611 
   62000    290.47189   -498.01051    149244.13   -47482.097    3988.9319   -51471.029     0.155887 
   62100    292.84102   -510.80484    149223.43   -47552.016    4021.4662   -51573.483   0.14943859 
   62200    295.35556   -461.64451    149247.69   -47445.493    4055.9973   -51501.491   0.15444434 
   62300    297.39995    -457.2163    149235.71   -47487.708    4084.0722    -51571.78   0.14931795 
   62400    290.79915    -476.3274    149242.44    -47541.14     3993.426   -51534.566   0.14946727 
   62500    289.46482   -503.46261    149238.26   -47527.122    3975.1022   -51502.225   0.15725381 
   62600    290.35729   -503.56127    149247.95   -47561.223    3987.3581   -51548.581   0.14943347 
   62700    293.89607   -483.70414     149215.2   -47593.068    4035.9548   -51629.023   0.14542101 
   62800    288.47047   -501.69835    149204.64   -47564.293    3961.4473    -51525.74   0.15108472 
   62900    288.85922   -485.17975     149236.4   -47471.314    3966.7857     -51438.1   0.15230388 
   63000    289.74295   -505.50272    149241.86   -47503.275    3978.9217   -51482.197   0.15504115 
   63100    287.34316     -505.132    149246.24   -47582.126    3945.9664   -51528.093   0.14930462 
   63200    291.27849     -491.921    149259.47   -47456.962    4000.0086   -51456.971   0.15122433 
   63300     293.5736   -465.76586    149253.59   -47560.229    4031.5264   -51591.756   0.14734105 
   63400    286.69369   -478.28879    149234.59   -47646.664    3937.0475   -51583.712    0.1460063 
   63500    282.54012   -464.61984    149225.85   -47615.263    3880.0082   -51495.271   0.14533979 
   63600    286.23873   -549.84958     149240.4   -47671.435    3930.7997   -51602.235   0.15100458 
   63700    286.55127   -482.21208    149245.49   -47631.851    3935.0916   -51566.943   0.15189035 
   63800    285.15543   -531.94111    149231.87   -47701.659    3915.9232   -51617.582   0.13952154 
   63900    290.80875   -500.64593    149229.84   -47591.759    3993.5579   -51585.317   0.15520227 
   64000    292.76055   -487.74538    149262.27   -47512.324    4020.3611   -51532.685   0.14943328 
   64100    293.03562   -542.42402     149262.7   -47459.981    4024.1385    -51484.12   0.15660562 
   64200    292.78123   -518.11482    149291.73   -47445.588    4020.6451   -51466.233   0.15722148 
   64300    291.93292   -494.39383    149298.59    -47483.12    4008.9957   -51492.116   0.14555029 
   64400    291.86633   -522.93477    149263.92   -47543.555    4008.0812   -51551.637   0.15330848 
   64500    294.13241   -493.92698    149250.46   -47532.848    4039.2003   -51572.048   0.14563267 
   64600    290.93286   -511.54424    149234.88   -47572.701    3995.2623   -51567.963   0.15175736 
   64700    290.18358   -470.79832    149233.47    -47579.68    3984.9727   -51564.653   0.15075426 
   64800    293.81168    -465.7846    149245.64    -47523.28    4034.7959   -51558.076   0.15002683 
   64900    296.19834   -508.75884    149262.79   -47440.105     4067.571   -51507.676   0.15036184 
   65000    291.28772   -484.87779    149276.72   -47422.585    4000.1354   -51422.721   0.15624961 
   65100    291.11417    -498.6678    149297.35   -47496.302     3997.752   -51494.054   0.15749776 
   65200    290.56645   -514.26207    149289.34   -47516.225    3990.2304   -51506.455    0.1544835 
   65300    297.10148   -496.80507    149274.34   -47449.701    4079.9734   -51529.674   0.15069298 
   65400    289.98279   -489.41544    149274.89   -47490.655    3982.2154   -51472.871   0.15483915 
   65500    294.18018   -511.58711       149278   -47425.499    4039.8564   -51465.356    0.1517009 
   65600     287.2417    -533.0165    149288.02   -47444.236     3944.573   -51388.809   0.16283026 
   65700    295.43895   -481.55302    149289.55   -47397.439    4057.1426   -51454.582   0.15559904 
   65800    298.47793   -480.58951       149278   -47471.648    4098.8757   -51570.524   0.14882798 
   65900    291.97859   -508.77938    149274.22   -47479.763    4009.6228   -51489.385   0.15958774 
   66000    295.39078   -477.88679    149278.53   -47484.466     4056.481   -51540.947   0.14277488 
   66100    295.63391   -499.18943    149260.88   -47455.319    4059.8198   -51515.139   0.15658767 
   66200     286.4053   -539.11009    149250.12    -47590.76    3933.0871   -51523.847   0.15655906 
   66300    288.94906    -499.2077    149245.14   -47520.935    3968.0196   -51488.954    0.1541256 
   66400    290.93681   -495.33067    149252.73   -47524.932    3995.3165   -51520.248   0.15421164 
   66500    288.60807   -508.70011    149251.87   -47552.944    3963.3368   -51516.281   0.15515992 
   66600    286.70279   -523.01042    149240.97    -47559.96    3937.1724   -51497.132    0.1575472 
   66700    292.31896   -454.42094    149239.59   -47544.685     4014.297   -51558.982   0.15388804 
   66800    288.94831   -540.31845    149237.01   -47572.039    3968.0092   -51540.048   0.15264502 
   66900    289.58409   -491.98378    149232.43   -47579.548    3976.7401   -51556.288   0.15351938 
   67000    285.46645   -500.47846    149209.94   -47681.855    3920.1942   -51602.049   0.15164547 
   67100    290.48248   -472.71689     149222.1   -47514.821    3989.0774   -51503.899   0.15737385 
   67200    286.99221   -491.42479     149203.3    -47626.91    3941.1469   -51568.057   0.15653125 
   67300     289.4013   -505.81648    149206.56   -47545.298      3974.23   -51519.527   0.15876167 
   67400    287.75504   -500.39785    149226.67   -47522.299    3951.6225   -51473.922   0.15534142 
   67500    297.38228   -493.01104    149217.05   -47508.418    4083.8295   -51592.248   0.15537667 
   67600    292.80113   -508.50793    149229.89   -47362.715    4020.9184   -51383.633   0.16670611 
   67700    292.72916   -501.84971    149231.36   -47441.306    4019.9302   -51461.237   0.15751722 
   67800    293.58719   -483.56406    149218.81   -47479.767    4031.7131    -51511.48   0.15559914 
   67900    293.30474   -530.52615    149236.55   -47515.607    4027.8342   -51543.441   0.15831962 
   68000    293.84575   -442.40118    149218.42   -47547.978    4035.2637   -51583.242   0.15219598 
   68100    294.57542   -506.75792    149222.32   -47549.083     4045.284   -51594.367   0.15296699 
   68200     295.6044   -467.48384    149237.45   -47519.239    4059.4146   -51578.654   0.15126441 
   68300    295.76284   -498.95872     149230.5   -47464.543    4061.5903   -51526.133   0.16160781 
   68400    288.36857   -512.22284    149237.36   -47430.664    3960.0479   -51390.712   0.16087848 
   68500    295.19767   -518.31133    149240.83   -47430.054    4053.8292   -51483.883   0.15977941 
   68600    289.42217    -486.2399     149220.6   -47520.381    3974.5165   -51494.898   0.15903647 
   68700    294.56613   -478.55751    149212.96   -47498.338    4045.1564   -51543.495   0.15506539 
   68800    290.56705   -481.29365    149214.09   -47488.655    3990.2387   -51478.894   0.15749503 
   68900    293.26969   -453.81367    149196.36   -47485.562     4027.353   -51512.915   0.15088148 
   69000    291.46768   -530.60671    149194.41    -47487.74    4002.6067   -51490.347   0.16028026 
   69100     292.2677   -496.16868    149182.51   -47555.739    4013.5931   -51569.332   0.15631635 
   69200    290.44067   -476.72696    149191.22   -47564.303    3988.5032   -51552.807   0.15122792 
   69300    288.14397    -487.6265    149169.04   -47596.308    3956.9636   -51553.272   0.15479199 
   69400    286.06581   -502.84816    149136.05   -47642.526    3928.4251   -51570.951   0.15551595 
   69500    289.22872   -486.91963    149159.48   -47510.552    3971.8599   -51482.412   0.15902669 
   69600    297.08018   -479.50862    149220.24   -47403.525    4079.6809   -51483.206   0.15968635 
   69700    289.76207   -535.90384    149193.48   -47500.338    3979.1842   -51479.522   0.15925978 
   69800    291.73309    -508.3281    149179.01   -47496.858    4006.2514   -51503.109   0.15810498 
   69900    289.02886   -512.75084     149163.7   -47591.242    3969.1153   -51560.357   0.15461665 
   70000    290.06327    -471.9175    149182.75   -47520.985    3983.3206   -51504.306   0.15558448 
   70100    290.80857     -529.976    149144.95   -47643.956    3993.5554   -51637.511   0.15260129 
   70200    294.18372   -448.58816    149206.92   -47479.352     4039.905   -51519.257    0.1540292 
   70300    296.82741   -484.84029    149189.22   -47487.791    4076.2097   -51564.001   0.15411592 
   70400    296.91275    -488.3725    149215.92    -47378.26    4077.3816   -51455.642   0.15482258 
   70500    293.88517   -489.95215    149196.95   -47450.767    4035.8051   -51486.572   0.16768307 
   70600     294.2362   -498.14197    149228.05   -47508.686    4040.6257   -51549.311    0.1509347 
   70700    291.59409   -486.53524    149217.61   -47476.703    4004.3426   -51481.046   0.15877533 
   70800    293.29122   -558.96816    149205.42   -47509.662    4027.6487   -51537.311   0.16298778 
   70900    291.67251   -487.46343    149207.96   -47498.581    4005.4196   -51504.001   0.15415766 
   71000     290.3604   -498.80274    149202.06   -47526.723    3987.4009   -51514.124   0.15782752 
   71100     292.2473   -502.26344    149209.52   -47518.393    4013.3129   -51531.706   0.15163189 
   71200    283.08827   -521.96127    149225.14   -47558.803    3887.5358   -51446.339    0.1563399 
   71300    293.19187   -485.59509    149237.77   -47615.585    4026.2843   -51641.869   0.14933368 
   71400    291.98077   -488.52901    149210.35   -47544.629    4009.6528   -51554.282   0.15025808 
   71500    291.41037   -519.40895    149214.48   -47497.708    4001.8197   -51499.528   0.15841483 
   71600    296.68807   -503.77862    149230.91   -47516.577    4074.2962   -51590.873   0.15523324 
   71700    298.37551    -459.0051    149261.95   -47506.464    4097.4691   -51603.933    0.1499113 
   71800    283.21969   -537.27705    149214.38    -47682.16    3889.3404     -51571.5   0.15357736 
   71900    286.61736   -522.01624    149209.89   -47626.949    3935.9992   -51562.948   0.15419599 
   72000    292.36644   -494.86474    149219.54   -47593.105    4014.9491   -51608.054   0.15754344 
   72100    296.25943   -502.72552    149242.66   -47457.508    4068.4098   -51525.917   0.15050714 
   72200    299.99823   -461.39978    149272.56    -47347.59    4119.7532   -51467.343   0.16098349 
   72300    299.56931   -481.10638    149293.81   -47323.863    4113.8631   -51437.726   0.15646798 
   72400    294.35588   -499.06532    149272.97   -47447.658    4042.2692   -51489.928   0.14747721 
   72500    293.64839   -508.41806    149259.54   -47441.674    4032.5535   -51474.228     0.160214 
   72600    291.24732   -519.09129     149286.1   -47384.179    3999.5806   -51383.759   0.15270997 
   72700    284.63913   -530.70093    149248.18    -47546.07     3908.833   -51454.903   0.16295052 
   72800    298.31824    -460.9419    149256.36   -47465.315    4096.6827   -51561.997   0.15262196 
   72900    296.44108   -517.60106    149224.65   -47477.178    4070.9044   -51548.083   0.15446321 
   73000    288.21189   -498.74025     149229.2   -47490.253    3957.8963   -51448.149   0.16278235 
   73100     296.4784    -469.5712    149220.92   -47439.669    4071.4169   -51511.086   0.14932085 
   73200    291.95908   -486.15606    149238.52   -47426.466    4009.3549   -51435.821   0.15962812 
   73300    294.69506   -511.24969    149253.37   -47404.297     4046.927   -51451.224   0.15793925 
   73400    293.13458   -513.79876    149269.25   -47384.816    4025.4976   -51410.314   0.15837331 
   73500    303.48652   -501.44091    149280.63   -47400.217    4167.6565   -51567.873   0.15416947 
   73600    293.16969   -531.50714    149259.76   -47433.693    4025.9797   -51459.673     0.158233 
   73700    293.98654   -528.79879    149243.65   -47499.549    4037.1971   -51536.747   0.15713313 
   73800    291.98056   -470.91107    149225.87   -47589.157    4009.6499   -51598.807   0.14729075 
   73900    288.12822   -509.41404    149216.71   -47569.813    3956.7473    -51526.56   0.15390422 
   74000    295.50467   -492.26905    149193.66   -47490.242    4058.0451   -51548.287   0.15532427 
   74100    299.91421   -492.69835    149234.46   -47320.905    4118.5994   -51439.504   0.15633446 
   74200    296.14964   -513.62111    149219.19   -47489.257    4066.9021   -51556.159   0.15668146 
   74300    292.67648   -476.33601    149208.68   -47487.438    4019.2067   -51506.644   0.15405328 
   74400    286.01554   -545.77959    149204.99   -47521.778    3927.7347   -51449.513   0.15931177 
   74500    291.16641   -474.31807    149207.04   -47540.415    3998.4695   -51538.884   0.15541845 
   74600    289.34947   -511.41091    149217.76   -47543.633    3973.5182   -51517.152   0.15245458 
   74700    292.44652   -526.44178    149223.73   -47455.284    4016.0487   -51471.333   0.16191075 
   74800     286.8522   -482.35175    149239.41   -47512.817    3939.2242   -51452.041   0.15096216 
   74900    293.05329    -441.4803       149245   -47518.368    4024.3813   -51542.749   0.15245127 
   75000    290.72493   -495.52054    149219.23   -47495.531    3992.4068   -51487.937   0.15848881 
   75100     292.3972   -483.55113    149257.66   -47429.538    4015.3715   -51444.909   0.15563591 
   75200    287.26558   -522.58833    149237.39   -47473.629     3944.901    -51418.53   0.16553063 
   75300    293.50624   -511.71714    149225.09   -47523.082    4030.6015   -51553.684   0.15292208 
   75400    292.36177   -492.17183    149242.29   -47539.588    4014.8848   -51554.473   0.15586308 
   75500     293.8946   -472.61397    149246.16   -47537.423    4035.9347   -51573.357   0.14861993 
   75600    292.37656   -519.60944    149248.13   -47460.509     4015.088   -51475.597   0.15719015 
   75700    291.64073   -492.46541    149263.17   -47418.044    4004.9831   -51423.027    0.1556703 
   75800    296.24766   -499.82105    149288.04   -47446.985    4068.2482   -51515.233   0.15220483 
   75900    290.16701   -533.80279    149268.75   -47462.271    3984.7452   -51447.016   0.15759999 
   76000    296.87186   -491.54371    149283.49   -47469.564    4076.8201   -51546.384   0.15226297 
   76100    287.74367   -499.47201    149256.76   -47554.263    3951.4663   -51505.729   0.15434773 
   76200    288.04576   -530.93056    149268.39   -47608.663    3955.6149   -51564.278   0.15135079 
   76300    285.88735   -502.72248    149273.55   -47543.911    3925.9743   -51469.885   0.15224627 
   76400    284.68302    -536.2675    149268.74   -47540.714    3909.4357   -51450.149   0.15430243 
   76500    292.13508   -482.50489    149277.96   -47530.652    4011.7719   -51542.424    0.1495055 
[...]
   81900    290.13518    -455.3682    149241.76   -47566.496     3984.308   -51550.804   0.14501154 
   82000    294.42178   -469.92791       149255   -47478.926    4043.1742     -51522.1   0.15126096 
   82100     288.4644    -501.6657    149276.88   -47428.327    3961.3639    -51389.69     0.155859 
   82200    295.24965   -493.20704    149289.66   -47440.987    4054.5429   -51495.529   0.15371995 
   82300    291.00575   -518.96046    149270.35   -47516.299    3996.2632   -51512.562   0.15498232 
   82400    297.13023   -509.42031    149298.43   -47395.229    4080.3682   -51475.598   0.15458571 
   82500    300.33908   -477.37018    149318.52   -47292.833     4124.434   -51417.267   0.15515945 
   82600     294.1006   -537.27491    149309.04   -47398.888    4038.7636   -51437.652    0.1567798 
   82700    289.55155   -509.70863    149271.82   -47476.855    3976.2932   -51453.148   0.15034309 
   82800    287.20475   -499.31429    149257.11   -47492.911    3944.0656   -51436.976   0.14957164 
   82900    297.78808   -492.69911    149273.06   -47446.348    4089.4022    -51535.75   0.15222537 
   83000    296.16654   -494.65151    149305.09   -47379.226    4067.1342    -51446.36   0.15178477 
   83100      293.405   -510.87847    149288.58   -47420.223    4029.2112   -51449.434   0.15472688 
   83200    294.46476    -486.4476    149269.25   -47453.044    4043.7644   -51496.808   0.15356243 
   83300    298.22616   -470.15643    149288.96   -47442.544    4095.4181   -51537.962   0.14608994 
   83400    290.27545   -505.15657    149276.97   -47527.315    3986.2342    -51513.55   0.15104324 
   83500    289.09577   -525.01591    149247.83    -47637.06    3970.0343   -51607.094   0.14518889 
   83600    290.28094    -461.0623    149249.62   -47571.685    3986.3096   -51557.995   0.14740438 
   83700    288.23703   -499.85739    149263.98   -47599.205    3958.2416   -51557.446     0.149101 
   83800    292.29059   -475.54552    149248.08   -47559.477    4013.9074   -51573.385   0.14671735 
   83900    289.55286   -524.97974    149251.32   -47564.708    3976.3112   -51541.019   0.15261378 
   84000    286.10151   -494.84883    149239.11   -47575.263    3928.9152   -51504.178   0.15162623 
   84100    287.34921   -551.90427    149267.66   -47508.969    3946.0494   -51455.018   0.15002477 
   84200    289.28224   -520.92475    149272.74   -47466.788    3972.5949   -51439.383   0.15730528 
   84300    291.58646   -499.56858    149286.87   -47515.015    4004.2378   -51519.253   0.14904635 
   84400    293.99381   -466.92975    149272.08   -47512.465     4037.297   -51549.762   0.14725177 
   84500    291.30491   -448.57416    149254.11   -47564.839    4000.3715    -51565.21   0.14826399 
   84600     292.8354    -459.3526    149282.47   -47482.327     4021.389   -51503.716   0.14822539 
   84700    292.07953   -485.61042    149284.29   -47491.376     4011.009   -51502.385   0.15035166 
   84800    289.58959     -501.463    149269.85   -47484.211    3976.8156   -51461.027   0.15509627 
   84900    295.83124   -494.28392    149289.32   -47407.902    4062.5297   -51470.432   0.15411269 
   85000    292.50543   -504.35691    149288.28    -47481.58    4016.8577   -51498.437   0.14849391 
   85100    292.44508   -496.80541    149290.08   -47502.763    4016.0289   -51518.792   0.15161492 
   85200     290.9008   -506.06705    149278.86   -47541.115     3994.822   -51535.937    0.1443659 
   85300    288.15831   -507.63517    149280.81   -47550.586    3957.1605   -51507.746   0.15507178 
   85400    286.90588    -507.2454    149293.21   -47579.996    3939.9614   -51519.957   0.14530739 
   85500    289.41085   -496.70305    149305.17   -47521.332    3974.3611   -51495.693    0.1526819 
   85600    291.56991   -524.32751    149290.48   -47553.525    4004.0105   -51557.535   0.14911715 
   85700    289.21608   -492.69217    149278.02   -47494.961    3971.6864   -51466.648   0.15287779 
   85800    292.60292   -473.60455    149299.57   -47488.398    4018.1965   -51506.595   0.14942336 
   85900    291.97634   -483.93907    149305.96   -47458.732     4009.592   -51468.324   0.15535259 
   86000    290.36205   -514.90323    149293.18   -47510.678    3987.4235   -51498.101   0.14987287 
   86100    293.88668   -489.75504    149291.02   -47484.762    4035.8259   -51520.587    0.1489851 
   86200     295.1906   -457.67666     149279.3   -47442.165     4053.732   -51495.897   0.15550787 
   86300    290.96154   -505.27461    149266.97   -47493.255     3995.656   -51488.911   0.14984604 
   86400     289.7018    -532.9779    149253.01    -47551.95    3978.3566   -51530.307   0.15808203 
   86500    290.53054   -497.27688     149257.3   -47586.494    3989.7374   -51576.232   0.14904833 
   86600    295.70484    -487.2848    149288.21   -47428.793    4060.7939   -51489.587    0.1507712 
   86700     297.3563   -508.54594    149286.35   -47427.302    4083.4728   -51510.775     0.156113 
   86800    291.16584   -520.78816    149302.51   -47550.184    3998.4617   -51548.646   0.14881367 
   86900    292.89441    -530.0244    149273.63   -47531.407    4022.1994   -51553.606   0.15084793 
   87000    288.24374   -523.73909    149272.09   -47505.345    3958.3337   -51463.679   0.15494422 
   87100    293.79308   -508.40334    149287.14   -47478.704    4034.5405   -51513.245   0.14785729 
   87200    295.82283   -503.77285    149297.57   -47413.335    4062.4143   -51475.749   0.15568405 
   87300    294.92082   -521.23544    149311.63    -47424.83    4050.0273   -51474.857   0.15751489 
   87400    289.25956   -503.70944    149294.14   -47476.675    3972.2835   -51448.958   0.15122804 
   87500     293.4268   -528.58878     149283.8   -47457.702    4029.5105   -51487.213   0.15613838 
   87600    298.52975   -476.40989    149289.42   -47477.837    4099.5873   -51577.424   0.15040485 
   87700     296.0622   -488.40218    149285.03    -47448.27    4065.7013   -51513.972   0.14537901 
   87800    289.22418   -552.92182     149254.1   -47538.006    3971.7976   -51509.803   0.15549996 
   87900     291.8654   -472.89299    149252.75   -47553.641    4008.0684    -51561.71   0.14678581 
   88000    291.58555   -505.13776    149247.57    -47528.53    4004.2254   -51532.756   0.15554319 
   88100    291.16324   -483.98651    149247.27   -47488.891    3998.4259   -51487.317    0.1529707 
   88200    288.77056   -525.18931    149244.29   -47595.259    3965.5682   -51560.827   0.15234006 
   88300    295.70988   -479.18317     149235.5   -47532.175    4060.8631   -51593.038   0.14664317 
   88400    294.83271   -484.92587    149267.64   -47465.728    4048.8173   -51514.546   0.15633586 
   88500    290.57663   -521.28416    149243.87   -47538.041    3990.3703   -51528.412   0.14866459 
   88600    292.92512   -474.34751    149242.68   -47528.349    4022.6212    -51550.97   0.15160558 
   88700    296.65611   -462.39915    149226.93   -47497.299    4073.8572   -51571.156   0.14958005 
   88800    288.45693   -520.22772    149206.71   -47558.887    3961.2614   -51520.148   0.15142073 
   88900    292.94276   -491.43881    149225.56   -47494.794    4022.8633   -51517.657   0.15687924 
   89000    293.23157   -499.80859    149263.14   -47462.956    4026.8295   -51489.786   0.15262363 
   89100    289.47011   -515.03649    149257.79   -47516.957    3975.1749   -51492.132   0.15681056 
   89200    291.58879   -485.77996    149261.61   -47469.328    4004.2699   -51473.598   0.15180312 
   89300    287.44661   -491.27528    149282.51   -47598.092    3947.3869   -51545.479   0.14774665 
   89400    295.04796   -479.33737     149294.8   -47495.527    4051.7732     -51547.3   0.14512701 
   89500    291.23818   -535.33864    149282.75   -47597.373    3999.4551   -51596.828   0.15420774 
   89600    294.38745   -478.54376    149255.17   -47618.721    4042.7027   -51661.423   0.14210084 
   89700    289.55805   -517.88943    149265.79   -47538.025    3976.3825   -51514.408   0.15417006 
   89800    293.26251   -489.01422    149272.71   -47468.228    4027.2544   -51495.482   0.15267358 
   89900    296.81572   -512.94703    149295.04   -47461.498    4076.0491   -51537.547    0.1519426 
   90000    290.65707   -494.53707    149276.25   -47475.616     3991.475   -51467.091   0.15462197 
   90100    292.79638    -492.9393     149277.8   -47456.066    4020.8531   -51476.919   0.15245569 
   90200    293.03126   -501.71142    149266.45   -47532.546    4024.0787   -51556.625   0.15252231 
   90300    290.78675   -503.77091    149248.06   -47499.893    3993.2557   -51493.148   0.15072652 
   90400    295.79822   -481.42365    149269.11   -47484.481    4062.0763   -51546.557   0.15062813 
   90500    294.70405   -499.58596     149280.2   -47500.706    4047.0504   -51547.756   0.14850354 
   90600     293.4925   -497.92746     149267.5   -47523.434    4030.4127   -51553.846   0.15416108 
   90700    290.96776   -501.53757    149264.19   -47560.824    3995.7416   -51556.566   0.14836067 
   90800    285.97364   -476.22718    149253.46   -47573.718    3927.1593   -51500.877   0.15056088 
   90900    290.88436   -494.19157    149244.23   -47547.078    3994.5962   -51541.675   0.15115234 
   91000    292.37116   -496.84943    149246.18   -47568.677    4015.0139   -51583.691   0.14693192 
   91100    287.61228   -482.10685    149218.63    -47674.44    3949.6621   -51624.102   0.15015532 
   91200    290.86239   -519.78593    149227.14   -47614.169    3994.2945   -51608.464   0.14673034 
   91300    294.50675   -460.36189    149218.76   -47543.501    4044.3411   -51587.842      0.15208 
   91400    294.79281   -525.14439    149233.82   -47518.373    4048.2694   -51566.643    0.1543906 
   91500    295.65004   -511.97508    149305.74   -47361.368    4060.0414   -51421.409    0.1546098 
   91600    293.80483   -500.27271    149275.96   -47419.901    4034.7019   -51454.603   0.15603464 
   91700    293.86064   -502.97129     149261.3   -47503.346    4035.4683   -51538.814   0.15103383 
   91800    291.93707   -514.00017    149260.71   -47469.687    4009.0527    -51478.74   0.15492419 
   91900    292.38799   -458.76884    149267.15   -47462.223     4015.245   -51477.468   0.15035263 
   92000    286.21055   -506.80598    149266.31   -47509.059    3930.4127   -51439.472   0.15517632 
   92100    294.37965   -512.89031    149291.53   -47493.662    4042.5956   -51536.258    0.1465982 
   92200    297.46559   -495.19519    149268.26   -47525.361    4084.9736   -51610.335   0.15609636 
   92300    292.83085   -539.18211    149282.05    -47395.87    4021.3266   -51417.197   0.15341164 
   92400    292.67225   -487.62468    149284.16   -47446.835    4019.1486   -51465.984   0.15702943 
   92500    293.99429    -481.7462    149275.51   -47438.082    4037.3036   -51475.386   0.15157842 
   92600    301.49711    -503.4991    149316.87   -47353.734    4140.3368   -51494.071   0.14930201 
   92700    290.67694   -528.73958    149287.38    -47479.95    3991.7478   -51471.697   0.15373582 
   92800     289.3178   -531.55111    149268.78     -47491.4    3973.0832   -51464.483   0.15672253 
   92900    285.05194   -508.68693    149232.85    -47523.09     3914.502   -51437.592   0.15458578 
   93000    291.14778   -523.30983    149237.78    -47536.25    3998.2137   -51534.464   0.15529376 
   93100    296.65296   -523.32478    149236.69   -47449.287     4073.814   -51523.101   0.15154346 
   93200    293.64927   -483.14429    149260.07   -47509.068    4032.5656   -51541.634   0.14756599 
   93300    294.42809   -483.11135     149246.8    -47556.67    4043.2609   -51599.931   0.15498179 
   93400    293.48852   -492.08226    149225.54     -47617.4    4030.3581   -51647.758   0.14372946 
   93500      288.328   -549.33014    149228.17   -47619.852    3959.4908   -51579.342   0.15368394 
   93600     293.5467   -511.49803     149236.9    -47567.15     4031.157   -51598.307   0.15091096 
   93700    291.14759   -492.71348    149262.07   -47542.786    3998.2111   -51540.997   0.15159241 
   93800    288.25741   -503.16606    149241.23    -47542.71    3958.5213   -51501.232   0.15359462 
   93900    286.56072   -516.90889    149243.59   -47627.606    3935.2215   -51562.828   0.14959508 
   94000    292.36854    -489.4788    149233.13   -47591.706    4014.9778   -51606.684   0.14713951 
   94100    293.69431   -474.59763    149276.67   -47472.684    4033.1841   -51505.868   0.15181618 
   94200    295.93469   -471.71634    149263.07   -47456.162    4063.9503   -51520.112   0.15518644 
   94300    292.86755   -490.61733     149267.8   -47472.866    4021.8305   -51494.696   0.14960206 
   94400    289.75024   -519.23601    149277.73   -47464.625    3979.0218   -51443.647   0.15924056 
   94500    292.99763   -501.98354    149282.52   -47467.111    4023.6168   -51490.728    0.1538676 
   94600    295.05674   -495.40032    149282.98   -47474.077    4051.8938   -51525.971   0.15040677 
   94700    292.17732    -527.6274    149249.75   -47517.449    4012.3519   -51529.801    0.1583633 
   94800    288.38248   -505.83469    149253.86   -47561.248    3960.2388   -51521.487   0.14608947 
   94900    287.24922   -495.53498     149238.4   -47579.381    3944.6763   -51524.057   0.15338764 
   95000    291.35431   -486.71288    149242.93   -47537.518    4001.0499   -51538.568   0.15358502 
   95100    298.99031   -461.90408    149257.76   -47499.488    4105.9119     -51605.4   0.14602364 
   95200    291.33799   -506.47868    149250.44   -47533.284    4000.8257    -51534.11   0.15359978 
   95300    294.69055   -466.22925    149248.82   -47484.928     4046.865   -51531.793   0.15244718 
   95400    296.09539    -514.2051    149254.77   -47454.493    4066.1572    -51520.65   0.14940804 
   95500    294.38841   -509.43151    149263.85   -47474.469    4042.7158   -51517.184   0.15806622 
   95600    292.89218   -509.81292     149260.5   -47461.771    4022.1687    -51483.94    0.1535643 
   95700    289.43531   -521.46234    149245.94   -47497.999     3974.697   -51472.696   0.15648616 
   95800    296.51975    -500.1076    149226.23   -47437.003    4071.9848   -51508.988   0.15786761 
   95900    295.78655   -501.68429    149246.24   -47461.608     4061.916   -51523.524   0.14970339 
   96000    296.21076   -487.42283    149254.27   -47422.424    4067.7415   -51490.165   0.15838033 
   96100    296.92355   -466.60174    149285.11   -47370.625    4077.5299   -51448.155   0.15469101 
   96200    294.32882   -470.93299    149286.99   -47398.159    4041.8976   -51440.057   0.15256446 
   96300    292.64945   -474.11402    149284.91   -47420.526    4018.8354   -51439.361   0.15453052 
   96400    293.84212   -502.54151    149258.37   -47470.759    4035.2139   -51505.973   0.15594287 
   96500    294.91899    -509.6954    149269.14   -47468.036    4050.0021   -51518.038   0.15219427 
   96600    292.59387   -502.07566    149260.79   -47517.917    4018.0722   -51535.989   0.15627607 
   96700     293.8502   -513.66184    149244.74   -47483.366    4035.3249   -51518.691     0.153417 
   96800    289.33316   -494.98232    149248.58    -47504.09    3973.2942   -51477.384   0.15231873 
   96900    293.86725    -467.7516     149229.4   -47512.282     4035.559   -51547.841   0.15927059 
   97000    290.29964    -533.3102    149223.77   -47590.534    3986.5665   -51577.101   0.15132766 
   97100    285.22092    -528.8752    149243.15   -47557.735    3916.8225   -51474.557   0.15838887 
   97200    293.85455   -482.98954    149240.37   -47496.277    4035.3847   -51531.661   0.15380341 
   97300    298.40002   -489.41316     149281.1   -47387.317    4097.8057   -51485.123   0.15429979 
   97400    295.65212   -508.36726    149269.78   -47481.693    4060.0699   -51541.763   0.15417004 
   97500    298.41178   -477.22602    149248.75   -47451.178    4097.9671   -51549.145    0.1511141 
   97600    298.25248    -461.5584    149263.75   -47396.736    4095.7796   -51492.516   0.15196704 
   97700    297.10769   -477.67781    149271.39   -47351.412    4080.0587   -51431.471   0.16378182 
   97800    292.44624   -505.98534    149250.36   -47459.728    4016.0449   -51475.773   0.15505472 
   97900     293.6849    -503.8118    149266.55   -47423.121    4033.0549   -51456.176   0.15434683 
   98000    288.59839   -525.04826    149231.65   -47509.178     3963.204   -51472.382   0.15836752 
   98100     293.6139   -485.36251    149226.62   -47489.709    4032.0798   -51521.788   0.15051322 
   98200    300.19287   -462.63859    149234.38   -47483.421    4122.4262   -51605.847    0.1500283 
   98300    293.61237   -503.12348    149245.28   -47420.304    4032.0589   -51452.363    0.1576997 
   98400    293.16315   -512.79292    149253.44   -47469.757    4025.8899   -51495.647   0.15222016 
   98500    297.01084   -522.46574    149238.71   -47443.264    4078.7286   -51521.993   0.15818737 
   98600    293.61561    -510.5495    149239.57   -47454.653    4032.1033   -51486.756   0.15386467 
   98700    292.80375   -481.60615    149221.15   -47416.393    4020.9544   -51437.347   0.15272221 
   98800    290.05352   -517.76424    149232.46   -47431.424    3983.1866   -51414.611   0.16382604 
   98900    291.92285   -505.65976    149225.33   -47493.496    4008.8574   -51502.353   0.15117561 
   99000    291.66747   -506.17907    149225.33   -47487.222    4005.3504   -51492.573   0.15698086 
   99100    287.02543   -526.45567    149195.23    -47545.63    3941.6031   -51487.233   0.15712023 
   99200    287.87684   -491.18222     149209.3   -47548.612    3953.2952   -51501.907   0.15024925 
   99300    296.03542   -496.83155    149243.96   -47477.179    4065.3336   -51542.513   0.15774576 
   99400    293.52023   -480.59255    149215.42   -47519.234    4030.7935   -51550.027   0.14842909 
   99500    289.52301   -483.84103       149197    -47469.12    3975.9014   -51445.021   0.15550339 
   99600    291.64083   -488.32585    149212.87   -47465.153    4004.9846   -51470.137   0.15736005 
   99700    292.01749   -526.78878    149206.21   -47512.544    4010.1571   -51522.702   0.15291689 
   99800    294.36395   -486.12602    149207.25   -47525.005      4042.38   -51567.385   0.15383604 
   99900    294.96408   -498.53665    149216.51   -47580.039    4050.6213    -51630.66   0.15148898 
  100000    295.65991    -498.7402    149205.09   -47492.754    4060.1769   -51552.931   0.15078375 
Loop time of 53.4936 on 6 procs for 100000 steps with 4608 atoms

Performance: 807.573 ns/day, 0.030 hours/ns, 1869.383 timesteps/s
97.9% CPU use with 6 MPI tasks x no OpenMP threads

MPI task timing breakdown:
Section |  min time  |  avg time  |  max time  |%varavg| %total
---------------------------------------------------------------
Pair    | 39.075     | 39.283     | 39.595     |   2.8 | 73.44
Neigh   | 6.2978     | 6.3905     | 6.5387     |   4.1 | 11.95
Comm    | 4.6534     | 5.1125     | 5.3355     |  10.0 |  9.56
Output  | 0.17395    | 0.17502    | 0.17994    |   0.5 |  0.33
Modify  | 1.8605     | 1.9087     | 1.9352     |   2.1 |  3.57
Other   |            | 0.6237     |            |       |  1.17

Nlocal:        768.000 ave         781 max         750 min
Histogram: 1 0 0 0 1 2 0 0 1 1
Nghost:        1397.17 ave        1424 max        1386 min
Histogram: 2 2 0 1 0 0 0 0 0 1
Neighs:        0.00000 ave           0 max           0 min
Histogram: 6 0 0 0 0 0 0 0 0 0
FullNghs:      21870.0 ave       22262 max       21319 min
Histogram: 1 0 0 0 1 1 1 0 1 1

Total # of neighbors = 131220
Ave neighs/atom = 28.476562
Neighbor list builds = 6310
Dangerous builds = 0

undump              1
unfix               2
unfix               3
unfix               4




################################################
#######         Run Simulation         #########
################################################

reset_timestep      0
log                 log.run_${NAME}
log                 log.run_ice_293K_-500atm_ML
