

read_data data.ice_${TEMP}K_${PRES}atm_ML group ice
read_data data.ice_293K_${PRES}atm_ML group ice
read_data data.ice_293K_-500atm_ML group ice
Reading data file ...
  orthogonal box = (-0.049618549 -0.044105377 -0.044105377) to (57.320129 50.951225 50.951225)
  3 by 1 by 2 MPI processor grid
  reading atoms ...
  4608 atoms
  reading velocities ...
  4608 velocities
  read_data CPU = 0.023 seconds
read_data data.liq_${TEMP}K_${PRES}atm_ML add append shift ${X_HI} ${YZ_LO} ${YZ_LO} group water
read_data data.liq_293K_${PRES}atm_ML add append shift ${X_HI} ${YZ_LO} ${YZ_LO} group water
read_data data.liq_293K_-500atm_ML add append shift ${X_HI} ${YZ_LO} ${YZ_LO} group water
read_data data.liq_293K_-500atm_ML add append shift 50.951225377158 ${YZ_LO} ${YZ_LO} group water
read_data data.liq_293K_-500atm_ML add append shift 50.951225377158 0.0441053771574609 ${YZ_LO} group water
read_data data.liq_293K_-500atm_ML add append shift 50.951225377158 0.0441053771574609 0.0441053771574609 group water
Reading data file ...
  orthogonal box = (-0.049618549 -0.10044509 -0.10044509) to (104.44738 51.095776 51.095776)
  3 by 1 by 2 MPI processor grid
  reading atoms ...
  4608 atoms
  reading velocities ...
  4608 velocities
  read_data CPU = 0.013 seconds

write_data data.icewater_test
System init for write_data ...
WARNING: Communication cutoff is 0.0. No ghost atoms will be generated. Atoms may get lost. (../comm_brick.cpp:167)

# Define potential
#
pair_style sw
pair_coeff * * /data/emrosky-sim/Freezing_Simulations/Melting/MLmW_fancy/ML_mW.sw mW
Reading sw potential file /data/emrosky-sim/Freezing_Simulations/Melting/MLmW_fancy/ML_mW.sw with DATE: 2019-02-27

# Delete water and ice atoms that are overlapping
#
delete_atoms overlap 2.5 water ice
System init for delete_atoms ...
Neighbor list info ...
  update every 1 steps, delay 10 steps, check yes
  max neighbors/atom: 2000, page size: 100000
  master list distance cutoff = 6.0032907
  ghost atom cutoff = 6.0032907
  binsize = 3.0016454, bins = 35 18 18
  2 neighbor lists, perpetual/occasional/extra = 1 1 0
  (1) command delete_atoms, occasional, copy from (2)
      attributes: full, newton on
      pair build: copy
      stencil: none
      bin: none
  (2) pair sw, perpetual
      attributes: full, newton on
      pair build: full/bin/atomonly
      stencil: full/bin/3d
      bin: standard
Deleted 695 atoms, new total = 8521

# set timestep
#
timestep 10.0

# Define output
#
compute 1 all msd
thermo 50
thermo_style custom step temp press vol etotal ke pe c_1[4]

# Neighbor lists
#
neigh_modify delay 0 every 1 check yes

# Set fixes
#
fix 1 all momentum 10 linear 1 1 1 rescale
fix 2 all nph iso ${PRES} ${PRES} ${PCOUPL}
fix 2 all nph iso -500 ${PRES} ${PCOUPL}
fix 2 all nph iso -500 -500 ${PCOUPL}
fix 2 all nph iso -500 -500 10000.0
fix 3 all temp/csvr ${TEMP} ${TEMP} ${TCOUPL} 837492
fix 3 all temp/csvr 293 ${TEMP} ${TCOUPL} 837492
fix 3 all temp/csvr 293 293 ${TCOUPL} 837492
fix 3 all temp/csvr 293 293 5000.0 837492


# Fix ice atoms in place
#
velocity ice set 0.0 0.0 0.0
fix 4 ice setforce 0.0 0.0 0.0

# Run 1.0 ns equilibration of water
#
dump 1 all atom 1000 eq.all.${NAME}.dump
dump 1 all atom 1000 eq.all.coexist_293K_-500atm_ML.dump
run 100000
Neighbor list info ...
  update every 1 steps, delay 0 steps, check yes
  max neighbors/atom: 2000, page size: 100000
  master list distance cutoff = 6.0032907
  ghost atom cutoff = 6.0032907
  binsize = 3.0016454, bins = 35 18 18
  1 neighbor lists, perpetual/occasional/extra = 1 0 0
  (1) pair sw, perpetual
      attributes: full, newton on
      pair build: full/bin/atomonly
      stencil: full/bin/3d
      bin: standard
Per MPI rank memory allocation (min/avg/max) = 4.591 | 4.599 | 4.604 Mbytes
Step Temp Press Volume TotEng KinEng PotEng c_1[4] 
       0    134.13187   -1157.8544    273892.17   -83999.463    3406.4803   -87405.943            0 
      50    159.40258   -1139.0986    272582.82   -83682.768    4048.2678   -87731.036   0.84030729 
     100    168.46036   -221.37104    269954.09   -83346.763    4278.3037   -87625.066    1.8352003 
     150    172.23582    112.87755    268946.09   -82993.545    4374.1872   -87367.732     2.876829 
     200    178.99484   -346.53993    269673.56   -82758.487    4545.8429    -87304.33    3.9189481 
     250    181.96069   -507.18453    270744.27   -82451.968    4621.1649   -87073.133     4.991321 
     300    189.62608   -879.43112    271390.81   -82109.006    4815.8389   -86924.845    6.2743947 
     350    192.26186   -520.62835    271386.97   -81893.843    4882.7785   -86776.622     7.546491 
     400    193.79871   -283.64268    271306.34   -81662.698    4921.8093   -86584.508    8.9118091 
     450    206.12652   -349.34113    271335.23   -81400.256    5234.8926   -86635.148    10.412353 
     500    204.92919   -420.16561    271748.99   -81198.147    5204.4845   -86402.631    11.997224 
     550    209.71524   -523.81294    272115.48   -80996.668    5326.0335   -86322.701    13.592187 
     600    213.17843   -673.33633    272250.81   -80800.332    5413.9864   -86214.319    15.360333 
     650    212.82944   -664.06031    272102.71   -80598.592    5405.1232   -86003.716    17.129299 
     700    220.13026   -376.84337     272163.4   -80403.084    5590.5386   -85993.622    18.813972 
     750    219.78479   -524.38835    272720.56   -80231.272    5581.7649   -85813.037    20.446934 
     800    224.37242   -476.58653    272921.09   -80039.786    5698.2745    -85738.06    22.344971 
     850    227.50561   -512.39121    272962.22   -79846.596    5777.8467   -85624.442     24.38585 
     900    225.41494   -388.44307     272965.1   -79669.353    5724.7508   -85394.104    26.537143 
     950    235.54081   -600.13942    273215.51   -79507.401    5981.9125   -85489.313     28.62287 
    1000    233.82816   -770.50435    273439.31   -79363.519    5938.4173   -85301.937    30.988384 
    1050    238.48921   -359.81723    273380.84   -79241.751    6056.7917   -85298.543    33.323819 
    1100    240.52777   -573.52725     273628.5   -79132.867    6108.5639   -85241.431    35.560245 
    1150    241.39171   -500.53255     273841.7   -79008.682    6130.5049   -85139.187    37.650315 
    1200    244.34118    -864.4615    274139.23   -78903.709    6205.4113    -85109.12    40.323206 
    1250     244.6594   -553.63887    274108.41   -78802.477    6213.4928    -85015.97    42.672784 
    1300     248.0138   -377.22468    274111.17   -78709.101     6298.683   -85007.784    44.971208 
    1350    249.13701    -708.5723    274395.88   -78621.623    6327.2084   -84948.831    47.690758 
    1400    256.73542   -511.73891    274403.91   -78500.503    6520.1815   -85020.685     49.96334 
    1450    257.03816   -398.97383    274509.08   -78384.793      6527.87   -84912.663    52.558414 
    1500    259.79057   -707.59527    274975.01   -78314.066    6597.7717   -84911.838    55.484658 
    1550     254.8804   -677.73968    275304.04   -78226.897    6473.0705   -84699.968    58.382789 
    1600    257.35832   -360.82439    275194.97   -78141.111     6536.001   -84677.112    60.924037 
    1650    259.50312   -413.24867    275148.81   -78073.783    6590.4713   -84664.254    63.898625 
    1700    265.16018    -433.3232    275038.57   -77974.263    6734.1409   -84708.404    66.625098 
    1750    265.79338   -500.93556    274940.64   -77915.314     6750.222   -84665.536      69.6938 
    1800    268.86441   -98.360809    274769.42   -77833.702    6828.2154   -84661.918    72.556559 
    1850    268.95317   -395.26269    275049.27   -77741.068    6830.4697   -84571.538    75.364676 
    1900    268.49428   -414.33342     275493.9   -77644.498    6818.8153   -84463.313    78.464768 
    1950    265.43917   -615.40738    276092.23   -77558.106    6741.2263   -84299.332    81.647979 
    2000    271.71732   -767.72142    276395.41   -77463.639    6900.6694   -84364.309    84.358932 
    2050    271.78041   -636.91536     275964.1   -77445.773    6902.2716   -84348.045    87.349489 
    2100    271.82126   -271.60057    275303.63   -77416.471     6903.309   -84319.781    89.981888 
    2150     276.8287   -168.71111    275126.29   -77364.163    7030.4806   -84394.643    93.703632 
    2200    271.38988   -467.58471    275446.74   -77288.502    6892.3535   -84180.856    97.295805 
    2250    273.69403   -818.70817    276086.81   -77252.396    6950.8709   -84203.267    100.90779 
    2300    280.92459   -570.60863    276466.67     -77153.9    7134.5018   -84288.402    103.94704 
    2350    278.49997   -653.85815    276435.33   -77064.567    7072.9249   -84137.492    107.02729 
    2400     281.3315   -534.02507    276071.95   -77041.177    7144.8359   -84186.013    110.04322 
    2450    278.55229   -456.65016    275710.75   -76992.289    7074.2536   -84066.543    112.42823 
    2500    286.60292   -480.38823    275726.13    -76925.52    7278.7116   -84204.232     115.6081 
    2550    281.84857   -440.67303    276143.44   -76897.999    7157.9678   -84055.967    118.74485 
    2600    281.34509   -700.22887    276721.22   -76870.146    7145.1811   -84015.327    122.09464 
    2650    282.78307   -850.22391    277089.05   -76781.499    7181.7008     -83963.2    124.86556 
    2700    288.14503   -418.98901    276613.82   -76756.785    7317.8758   -84074.661    127.46937 
    2750    278.46826   -77.856849    275963.94   -76773.231    7072.1196    -83845.35    129.83678 
    2800    285.55472   -462.49113       276046   -76750.052    7252.0909   -84002.143    132.81607 
    2850    288.18475   -639.32521    276519.34   -76753.979    7318.8844   -84072.864      136.179 
    2900    289.82706   -606.03607    276915.32   -76763.706    7360.5935   -84124.299    139.08821 
    2950    282.64711   -816.61973    276768.68   -76756.894    7178.2479   -83935.142    141.77297 
    3000      283.585   -277.66721    276153.18   -76715.465    7202.0669   -83917.531    144.58045 
    3050    285.53096   -416.96212    275979.97   -76721.053    7251.4875    -83972.54    147.33693 
    3100    287.14865   -257.91553    276099.58   -76708.364    7292.5711   -84000.935    150.43413 
    3150     284.9164    -734.2285    276599.56   -76707.089    7235.8799   -83942.969    154.06656 
    3200    285.63107   -732.10347    276583.02   -76667.676    7254.0299   -83921.706    156.89651 
    3250    296.35524   -739.43077    276208.01   -76646.942    7526.3863   -84173.328    159.37385 
    3300    291.06454   -247.87003    275902.54   -76601.772    7392.0211   -83993.793    162.34386 
    3350    287.44362   -426.78905    276167.24   -76503.417    7300.0624   -83803.479    164.84187 
    3400    285.15585   -344.98319    276876.26   -76546.804    7241.9611   -83788.765    168.37777 
    3450    291.34796   -548.23533    276988.12   -76572.725     7399.219   -83971.944     171.4213 
    3500    287.43774   -722.29796    276736.69    -76556.03    7299.9129   -83855.943    173.94292 
    3550    292.10064   -280.18168    276344.81   -76511.592    7418.3343   -83929.926     177.1381 
    3600    293.09233   -351.97173    276360.53   -76523.675      7443.52   -83967.195    180.57764 
    3650    293.38402   -688.02609     276591.6   -76537.425    7450.9277   -83988.352    183.94665 
    3700    295.84372   -702.20585    276469.44   -76536.215    7513.3956    -84049.61    186.45819 
    3750    281.04382   -384.02947    276216.07   -76555.756    7137.5298   -83693.286    190.26954 
    3800    289.42139   -534.08767    276293.23    -76559.02    7350.2908   -83909.311    193.13005 
    3850    289.57026   -624.49971    276628.75   -76546.083    7354.0715   -83900.154    196.29603 
    3900    289.73689   -428.41544    276821.55   -76559.927    7358.3034   -83918.231    199.04184 
    3950    289.96483   -595.81225    276986.05   -76508.384    7364.0923   -83872.476    202.60899 
    4000    287.91537   -737.73492    276833.53   -76513.223    7312.0432   -83825.266    205.45778 
    4050    294.76298   -380.86713     276260.7   -76506.009    7485.9484   -83991.958    208.19185 
    4100    296.64325   -225.29942    275777.49   -76506.026    7533.7007   -84039.726    210.77573 
    4150    293.72674   -181.95044    276030.41   -76467.638    7459.6317    -83927.27    213.66202 
    4200    287.38683   -627.09673    276843.68   -76456.073    7298.6202   -83754.693    217.15739 
    4250    289.15436    -646.6019    277202.06    -76425.78    7343.5091   -83769.289     220.6536 
    4300    293.49564   -400.84375     276962.9   -76439.681    7453.7625   -83893.444    223.56479 
    4350    289.22416   -758.72529    276742.69   -76451.391    7345.2818   -83796.673    226.40734 
    4400    289.27041   -425.17097    276204.06   -76445.596    7346.4565   -83792.052    228.87889 
    4450    292.14802   -409.40249    276093.83   -76384.531    7419.5376   -83804.069     231.6957 
    4500    292.52474   -581.81553     276665.8   -76331.233     7429.105   -83760.338    235.37305 
    4550    298.70146   -469.95038    277165.09   -76286.452    7585.9722   -83872.424    238.53917 
    4600    297.81697   -702.22393     277150.1   -76278.856    7563.5091   -83842.365     241.4214 
    4650    299.34644   -413.50158    276530.77   -76230.465    7602.3522   -83832.817     244.6003 
    4700    300.19778   -428.98631    276139.75   -76214.891    7623.9735   -83838.864    247.48759 
    4750    289.93752   -174.94437    276502.61   -76224.638    7363.3987   -83588.036    249.99428 
    4800    296.69235   -755.43967    277114.67   -76226.292    7534.9478    -83761.24    253.29207 
    4850    295.74574    -571.0106    277061.78   -76234.772    7510.9073   -83745.679    256.14352 
    4900    298.78198   -402.59419    276728.36   -76238.838    7588.0169   -83826.855    258.41988 
    4950    294.04081   -328.01456    276683.55    -76249.65     7467.608   -83717.258    262.63237 
    5000    296.04212   -569.75435    277056.37   -76262.994    7518.4341   -83781.428    266.03823 
    5050    292.33808   -759.97801    277359.33   -76270.782    7424.3644   -83695.146     269.3525 
    5100       292.54   -346.16641    277061.78   -76284.292    7429.4926   -83713.785    271.72419 
    5150    295.79508   -308.20005    276746.34   -76307.822    7512.1603   -83819.982    274.36917 
    5200      292.333   -655.77887    276860.21   -76304.574    7424.2356    -83728.81    276.94316 
    5250    295.03126   -275.60418    276840.83   -76295.272    7492.7619   -83788.034    279.82755 
    5300    295.21852   -482.35257    276876.17   -76279.794    7497.5176   -83777.311     282.8138 
    5350     295.0204   -238.33533    276872.45   -76244.729    7492.4861   -83737.215    286.14745 
    5400    297.01635   -741.77886    276911.77    -76304.21    7543.1763   -83847.386     289.4753 
    5450    294.87339   -401.26399    276662.73   -76288.418    7488.7526   -83777.171    291.93105 
    5500    297.25054   -342.74218    276429.22   -76293.165    7549.1239   -83842.289    294.83857 
    5550    294.53718   -452.74303    276454.17   -76345.406     7480.214    -83825.62    297.89358 
    5600    292.12546   -622.21951    276786.23    -76401.79    7418.9647   -83820.754     302.2432 
    5650    285.49015   -825.72289    277056.94   -76479.014     7250.451   -83729.465     305.0653 
    5700    293.21639   -628.21872    276720.25   -76454.178    7446.6705   -83900.848    308.20326 
    5750    291.29655   -348.81243    276402.83   -76435.137    7397.9132    -83833.05     310.9934 
    5800    289.01123   -597.43033    276599.32   -76433.261    7339.8741   -83773.135    313.92405 
    5850    294.45076   -472.72786    276682.19    -76365.21    7478.0191   -83843.229    317.35971 
    5900     291.0896   -619.43952    276822.84   -76392.636    7392.6575   -83785.293    320.61929 
    5950    296.28824   -327.80442    276705.15   -76404.114    7524.6848   -83928.798    323.53182 
    6000    288.40518   -440.37336    276692.28   -76402.355    7324.4826   -83726.838     326.1795 
    6050    294.18327   -456.00619    276806.98   -76341.963    7471.2258   -83813.189    329.11006 
    6100    294.76259   -507.29837     276742.8    -76348.52    7485.9385   -83834.458    331.88051 
    6150    295.72859   -488.00547     276737.7   -76338.566    7510.4716   -83849.038    334.79365 
    6200    290.88694   -363.16563    276620.58    -76358.59    7387.5106   -83746.101    337.75236 
    6250    292.07595   -142.60571     276604.1   -76339.155    7417.7074   -83756.862    340.70201 
    6300    297.15631   -158.50383    276803.14   -76300.167    7546.7308   -83846.898    343.72952 
    6350    294.02206   -599.62242    277065.13   -76269.485    7467.1318   -83736.617    346.83112 
    6400    291.93875   -421.27281     277007.9   -76333.975    7414.2229   -83748.198    350.00672 
    6450    289.98029   -15.940055    276717.42    -76341.38     7364.485   -83705.865    352.15863 
    6500    295.67058   -352.84418    276494.62   -76282.425    7508.9984   -83791.424     354.1619 
    6550      299.069   -562.45596    276711.29   -76268.716    7595.3065   -83864.023    357.01991 
    6600    294.82359   -384.16544     276871.9   -76276.844    7487.4877   -83764.331    359.69503 
    6650    292.50079   -433.66173     276950.6   -76327.582    7428.4967   -83756.079     362.8674 
    6700    289.68651   -549.36459    276923.96   -76341.643    7357.0238   -83698.667    365.32329 
    6750    293.14812   -384.33828    276823.51   -76364.712    7444.9366   -83809.649    368.06225 
    6800    296.50898   -493.89355    276912.04    -76336.82    7530.2908   -83867.111    370.60755 
    6850    286.82905   -907.00958    277242.16   -76325.701    7284.4544   -83610.155    373.82035 
    6900     291.4872   -606.65445    277070.88   -76295.385     7402.755    -83698.14    376.96572 
    6950     292.4501   -588.76562    277150.93   -76279.964    7427.2095   -83707.173    380.54821 
    7000    295.03681   -444.66737    277096.68   -76257.713    7492.9028   -83750.615    383.62982 
    7050    290.39505   -284.37144    276780.33   -76239.459    7375.0183   -83614.477    386.57831 
    7100    295.34784   -351.17909    276603.14   -76247.185    7500.8019   -83747.987    389.27272 
    7150    287.42641   -391.23151       276858   -76301.334    7299.6253   -83600.959     392.4666 
    7200    294.08786   -592.49146    277178.48     -76340.5    7468.8029   -83809.303    395.32468 
    7250    293.63889   -706.19549    277099.04   -76289.719    7457.4004    -83747.12    398.31574 
    7300    297.74514   -581.00238    276928.55       -76272    7561.6851   -83833.685    400.72488 
    7350     295.9116   -589.64007    276850.97   -76264.309    7515.1193   -83779.428    402.94319 
    7400    303.16771   -427.54826    276964.06   -76223.523    7699.3992   -83922.922    405.92319 
    7450    299.59935    -687.2648    277055.63   -76194.273    7608.7754   -83803.049    408.53121 
    7500     292.8496   -626.99035    276864.78   -76266.523    7437.3553   -83703.878    411.29169 
    7550    294.75487   -652.58875    276584.01   -76296.473    7485.7425   -83782.216    414.79258 
    7600    290.90557   -355.51889    276306.45   -76245.842    7387.9838   -83633.826    417.84479 
    7650    288.94587   -355.07761    276473.06   -76254.275    7338.2142   -83592.489    420.57107 
    7700    294.36939   -534.31798    276912.18    -76241.51    7475.9528   -83717.463    425.26504 
    7750    302.65658   -685.51895    277414.03   -76205.689    7686.4184   -83892.107     429.3846 
    7800    291.63331   -562.06807    277424.45   -76235.993    7406.4658   -83642.459    431.20067 
    7850    298.88676   -582.11154    277014.66   -76216.724    7590.6782   -83807.402    433.27997 
    7900    294.44629   -418.68346     276664.8   -76259.111    7477.9057   -83737.016     436.2372 
    7950    292.20552   -355.31261    276711.58   -76305.721    7420.9979   -83726.719    439.57568 
    8000    294.99158   -485.17012    276977.56   -76293.167     7491.754   -83784.921    442.01125 
    8050    292.84045    -351.9699    276979.84   -76281.655    7437.1229   -83718.777    445.45367 
    8100     293.4564   -721.29672    276975.36   -76317.225    7452.7659   -83769.991     448.8212 
    8150    298.06741     -554.676    276871.61   -76272.168    7569.8694   -83842.038    451.86708 
    8200    294.31801    -451.9156    276907.51   -76290.034    7474.6479   -83764.682    453.60761 
    8250    293.09943    -582.2336    276864.13   -76289.151    7443.7003   -83732.851    455.88897 
    8300    296.85196   -417.15323    276543.36   -76277.957    7539.0013   -83816.959    458.83923 
    8350    292.06839   -182.35693    276300.64   -76342.899    7417.5153   -83760.414    461.90428 
    8400    294.23476   -479.06796     276558.3   -76344.042    7472.5335   -83816.575      466.144 
    8450    293.40465   -451.98069    276780.84   -76345.344    7451.4517   -83796.795    470.08277 
    8500    295.14144   -434.19639    276836.19     -76332.8    7495.5601   -83828.361    472.83719 
    8550    292.70133   -594.35752    276996.86   -76355.215    7433.5897   -83788.805    476.14945 
    8600    291.94338   -333.78713    277031.48   -76345.658    7414.3406   -83759.999    479.50822 
    8650    289.16005   -733.79841    277068.62   -76341.583    7343.6536   -83685.237    482.98883 
    8700    293.89489   -427.99193    276789.09   -76340.244    7463.9022   -83804.146     486.6342 
    8750    294.63447   -294.70737    276618.66   -76311.589    7482.6847   -83794.273    489.33549 
    8800    289.28622   -731.55958    276787.22   -76326.434     7346.858   -83673.292    492.60789 
    8850    291.56169   -519.10339    276851.81   -76367.219     7404.647   -83771.866    496.02641 
    8900    295.24323   -503.49345     276920.4   -76397.626    7498.1453   -83895.771    499.33327 
    8950    294.32461   -594.84453    277030.28   -76379.267    7474.8154   -83854.082     501.4754 
    9000    292.75222    -602.7608     276864.5   -76364.011    7434.8823   -83798.893    504.88118 
    9050    292.94955    -436.6781    276687.43   -76361.216    7439.8936   -83801.109    506.59636 
    9100    291.88535   -591.57038     276648.7   -76423.549    7412.8667   -83836.416      508.007 
    9150    293.35486   -504.43327    276886.72   -76384.611    7450.1872   -83834.798    510.75606 
    9200    292.37947   -521.27349    277022.63   -76383.904    7425.4156   -83809.319     513.5141 
    9250    291.89169   -354.24373    276945.68   -76425.637    7413.0279   -83838.665    516.33147 
    9300    294.69739   -752.41746    276626.07   -76472.774    7484.2827   -83957.057    518.11906 
    9350    289.37867   -247.24981    276146.65   -76454.861    7349.2059   -83804.067    521.38752 
    9400    288.17295   -293.68775    276404.97   -76444.683    7318.5848   -83763.267    524.64929 
    9450    289.62135   -820.58304    276925.13   -76392.321    7355.3691    -83747.69    528.96306 
    9500    286.75806   -728.27782    276949.61   -76409.405    7282.6515   -83692.057    532.17307 
    9550    296.50236   -460.95582     276574.2   -76401.907    7530.1227    -83932.03    534.12764 
    9600    292.74926   -467.38348    276303.01   -76375.188     7434.807   -83809.995     536.5664 
    9650    293.97934    -239.1892    276381.75   -76412.172    7466.0469   -83878.219    539.33104 
    9700    289.33274   -445.05522    277057.38   -76411.843    7348.0395   -83759.882    542.99508 
    9750    290.41064   -869.18039    277624.25   -76403.217    7375.4143   -83778.631     546.3264 
    9800    293.58926   -938.51325    277294.52    -76411.62    7456.1402    -83867.76    548.27632 
    9850    291.53706   -290.42144    276339.52   -76407.514    7404.0214   -83811.536     549.0573 
    9900     295.2124   -481.03216    275964.11   -76415.316    7497.3622   -83912.678    551.26494 
    9950    297.19749   -525.85454    276312.09    -76396.67    7547.7766   -83944.447    554.39772 
   10000    300.00303   -590.21453     276924.4   -76392.168    7619.0276   -84011.195    558.23709 
   10050    291.13875   -798.58392    277324.09   -76380.475    7393.9058   -83774.381    560.10329 
   10100     292.6398   -461.57369    276942.25   -76360.401    7432.0272   -83792.428    562.37609 
   10150    290.88556   -275.68282    276508.61   -76343.303    7387.4755   -83730.778    564.26041 
   10200     294.3032    -478.9839    276589.56     -76327.7    7474.2718   -83801.972    565.50866 
   10250    293.35993    -568.5507    276717.33   -76331.623     7450.316   -83781.939    567.50568 
   10300    297.51602   -559.29483    276718.85   -76314.959     7555.866   -83870.825    570.19491 
   10350    294.35951   -584.01202    276813.87   -76319.605    7475.7018   -83795.307    574.26048 
   10400    293.15814   -656.55696    276642.04   -76386.276    7445.1912   -83831.467    577.46771 
   10450    291.36675    -325.1662    276341.77    -76364.54    7399.6963   -83764.236    578.76006 
   10500    295.64367    -356.8547    276581.57    -76365.21     7508.315   -83873.525     582.6837 
   10550    287.65724   -290.23103    277247.95   -76345.638    7305.4877   -83651.126    588.00679 
   10600    293.93988   -628.08899    277517.31   -76337.159    7465.0446   -83802.203    590.66755 
   10650     295.9686   -367.13529    277104.82   -76314.298     7516.567   -83830.865    592.81067 
   10700    290.94738   -528.63671    276568.46   -76344.021    7389.0455   -83733.067    595.20021 
   10750    292.50564   -276.28263    276123.03   -76325.052    7428.6199   -83753.672    596.55627 
   10800    294.02161   -448.98467    276128.15   -76347.424    7467.1203   -83814.544    599.22884 
   10850    291.75203   -405.80919    276484.45   -76291.067    7409.4809   -83700.548    603.05941 
   10900    292.28165   -685.62719     277064.8   -76295.361    7422.9313   -83718.293    606.52341 
   10950    294.65092   -480.45056    277412.75   -76299.297    7483.1025   -83782.399    610.19553 
   11000    292.80559   -731.49672    277322.26   -76338.614    7436.2378   -83774.852     613.9681 
   11050    294.22667   -563.73605    276692.43   -76367.639    7472.3282   -83839.967    615.97325 
   11100    291.05601   -605.90491     276232.6   -76343.816    7391.8045   -83735.621    618.16708 
   11150    291.97957    148.78354    275953.71   -76355.855    7415.2597   -83771.115    620.61491 
   11200    294.03202   -323.72627    276299.85   -76349.367    7467.3846   -83816.752    623.10902 
   11250    288.75141   -423.79051    276989.34   -76369.563    7333.2757   -83702.838    625.01316 
   11300    289.99795   -451.68521    277394.54   -76350.806    7364.9333    -83715.74    629.45183 
   11350    288.68452   -677.08701    277465.77   -76378.819    7331.5769   -83710.396    631.32613 
   11400      295.407   -502.52152    277055.22   -76388.996    7502.3044     -83891.3    634.12124 
   11450    286.84472   -391.13133    276566.54   -76444.265    7284.8523   -83729.118     636.4309 
   11500    292.94539   -401.42793    276444.23   -76442.378     7439.788   -83882.166    637.96936 
   11550    295.45321   -504.59517    276702.82   -76467.383    7503.4779   -83970.861    641.65211 
   11600    292.43596   -367.07998    277023.54   -76442.342    7426.8504   -83869.193    646.51166 
   11650    290.63956   -671.86057    277232.48   -76421.975     7381.228   -83803.203    648.92213 
   11700    292.45849   -459.38295    276940.72   -76386.253    7427.4225   -83813.675    652.13441 
   11750    291.52944    -546.2651    276509.62   -76409.031    7403.8278   -83812.859    655.37028 
   11800    294.74626   -542.52829    276148.96   -76434.026    7485.5239    -83919.55    658.75754 
   11850      290.583   -341.31062    276403.42   -76358.242    7379.7916   -83738.034    661.33722 
   11900     293.6009   -558.36959    276937.58   -76446.794    7456.4357    -83903.23    665.26294 
   11950    289.52417   -738.00478    277042.71   -76431.987    7352.9011   -83784.888    667.04425 
   12000    287.73558   -538.60146    276580.13   -76439.794    7307.4771   -83747.271      669.871 
   12050     291.0065   -443.15664    276104.07   -76433.589     7390.547   -83824.136     670.8416 
   12100    292.04748   -75.997003    276055.59   -76398.596    7416.9842    -83815.58    672.10697 
   12150    292.72802     -644.275    276920.95   -76383.056    7434.2676   -83817.324    676.78102 
   12200    293.54663   -549.30731    277536.42   -76371.425    7455.0576   -83826.483    680.78122 
   12250    292.90138    -706.1534    277540.22   -76334.537    7438.6705   -83773.207    682.52698 
   12300    293.93455   -494.97458    277009.15   -76355.487    7464.9092   -83820.396    683.73631 
   12350    291.21181   -285.80836    276323.23   -76392.379    7395.7613   -83788.141     686.4009 
   12400    288.30308   -421.96205    276260.31   -76430.091    7321.8896   -83751.981    688.88943 
   12450    290.31327   -197.41775    276589.17   -76401.292    7372.9415   -83774.233    693.62593 
   12500    298.83207   -929.20716    276982.69   -76367.207    7589.2891   -83956.496    696.01697 
   12550    292.38664   -592.23182    276691.98   -76417.139    7425.5979   -83842.737     696.9005 
   12600    293.79364   -377.52187    276370.63   -76357.421    7461.3306   -83818.751    699.60278 
   12650    290.54541   -111.52971    276438.22   -76376.405    7378.8369   -83755.242    702.60211 
   12700    290.61291   -507.87877    276834.94   -76347.639    7380.5512    -83728.19    706.23705 
   12750     292.6461   -755.81682    277184.83   -76395.644    7432.1871   -83827.832    709.48809 
   12800    292.37954   -529.89223    276961.43   -76414.907    7425.4174   -83840.325    711.73538 
   12850    294.74616   -523.75193    276287.53   -76418.362    7485.5213   -83903.883     713.4654 
   12900    295.87731   -321.72199    275699.37   -76411.512    7514.2487    -83925.76    715.13282 
   12950    295.05787    -168.3913    275984.43   -76424.614    7493.4378   -83918.052    717.48996 
   13000    292.86596   -719.98745    277132.67   -76393.931    7437.7709   -83831.701    721.77845 
   13050    290.46105    -457.3142     277747.4   -76367.206    7376.6946   -83743.901    726.73553 
   13100     295.1979   -638.23123    277259.75   -76343.423     7496.994   -83840.417    727.95126 
   13150    291.97259   -215.90785    276165.01   -76378.189    7415.0824   -83793.271    727.80099 
   13200    292.99909   -238.90752    275613.08   -76404.239    7441.1517   -83845.391    728.90697 
   13250    293.19394    -437.1435    276207.35   -76452.451    7446.1003   -83898.551    731.96955 
   13300    295.13403   -687.20356    276969.57   -76449.089    7495.3718   -83944.461    734.92844 
   13350    294.61091   -724.65009    277232.28    -76425.54    7482.0865   -83907.626    738.60311 
   13400     292.4612   -753.34956    276765.06   -76457.512    7427.4914   -83885.003    742.01154 
   13450      294.774   -333.26798    275933.94   -76490.008    7486.2284   -83976.237    742.67256 
   13500    289.91167   -476.36712    275918.26   -76452.723    7362.7421   -83815.465    744.02422 
   13550     290.3023   -325.19555    276254.75   -76534.947    7372.6628    -83907.61    746.43818 
   13600    289.87101   -586.01223    276584.13   -76537.252    7361.7096   -83898.961     749.4706 
   13650    286.42394   -386.69971    276730.46   -76538.662     7274.166   -83812.828    751.52862 
   13700    294.05806   -448.16789       276557   -76531.373    7468.0459   -83999.419    753.56338 
   13750    291.15926    -305.5454    276240.78   -76511.768    7394.4265   -83906.194    754.47831 
   13800    288.57729    -709.3209     276169.7   -76562.713    7328.8537   -83891.566    754.79337 
   13850    293.60378   -567.24867    276211.03   -76551.099    7456.5088   -84007.608    756.85883 
   13900    293.37161   -866.60832    276301.68    -76520.44    7450.6126   -83971.053    758.93179 
   13950    293.06469   -374.76388    276099.18   -76545.733    7442.8179   -83988.551    761.87225 
   14000    292.03063   -362.48032     276192.8   -76495.439    7416.5564   -83911.995    763.59102 
   14050    292.10278   -800.36101    276720.72   -76477.224    7418.3886   -83895.613    766.57131 
   14100    287.46546   -742.84403    277150.57   -76461.552    7300.6171   -83762.169    769.56083 
   14150    287.38194   -668.18295    277211.59   -76454.688    7298.4959   -83753.184    773.10271 
   14200    292.37971   -347.36141    277054.49   -76445.728    7425.4217    -83871.15    774.37332 
   14250    292.68607   -368.53944    276604.05   -76367.712    7433.2023   -83800.914    775.55618 
   14300    291.55551   -135.10866    276252.52   -76395.255    7404.4899   -83799.745     779.0187 
   14350    291.67272   -368.52453    276540.37   -76398.509    7407.4668   -83805.976    782.14175 
   14400    291.77491   -772.89859    277108.44   -76359.857    7410.0619   -83769.919    785.89735 
   14450     295.7857   -420.98875    277281.75   -76411.214    7511.9221   -83923.136    788.88808 
   14500    291.22991   -647.08557    277014.54   -76418.673    7396.2209   -83814.894    790.37919 
   14550    292.57816   -499.10387    276617.01   -76468.065    7430.4618   -83898.526    791.75067 
   14600    290.91082   -450.62347    276375.82   -76462.514    7388.1172   -83850.631    794.22278 
   14650    286.54991   -574.34949    276451.96   -76475.009    7277.3654   -83752.375    796.64892 
   14700    292.25164   -597.66768    276702.82   -76440.763    7422.1692   -83862.933    798.17395 
   14750     293.0874   -401.80593    276636.82   -76453.548    7443.3946   -83896.943    800.68911 
   14800    289.07335   -429.04002    276536.88   -76502.646    7341.4517   -83844.097      803.381 
   14850     289.1349   -273.33089    276531.14   -76520.787    7343.0151   -83863.802    806.60673 
   14900    290.83216   -284.79855    276515.21   -76527.098    7386.1195   -83913.218    808.98773 
   14950    285.55335    -535.8689    276491.15   -76604.031    7252.0562   -83856.087    811.80219 
   15000    287.99763    -572.7356    276407.78   -76594.007    7314.1323   -83908.139     813.5967 
   15050    288.51637   -379.49198    276330.85    -76598.61    7327.3064   -83925.917    815.86601 
   15100    287.70276   -471.16529     276215.4   -76573.362    7306.6435   -83880.005    818.92074 
   15150    286.57471   -280.61389    276112.48   -76579.503     7277.995   -83857.498    822.74008 
   15200    289.92072   -456.16419    276519.66     -76566.8    7362.9719   -83929.772    825.89046 
   15250    290.53886   -677.98292    277072.36   -76572.246    7378.6707   -83950.916    828.93826 
   15300    285.71898   -852.32869    277356.73   -76514.728    7256.2626    -83770.99    831.88257 
   15350     289.3334   -704.49482    276922.69    -76515.89     7348.056   -83863.946    834.46777 
   15400    286.78604    -468.7929    276343.83   -76478.018    7283.3622   -83761.381    836.99261 
   15450    290.72053   -441.69748    276228.41   -76481.876    7383.2844    -83865.16    839.22698 
   15500    287.11766   -385.36796    276676.31   -76458.595     7291.784   -83750.379     842.8484 
   15550    289.67283   -636.24157     277431.7   -76464.059    7356.6766   -83820.736    847.38513 
   15600    285.81911    -747.1164    277476.85   -76454.626    7258.8054   -83713.432    850.02461 
   15650    292.81886   -612.75722    276630.55   -76470.426    7436.5748       -83907    851.16672 
   15700     291.1803   -282.45518    275974.64   -76444.893     7394.961   -83839.855    852.79391 
   15750    291.34557   -430.39268     276266.4    -76448.56    7399.1583   -83847.718    856.77123 
   15800    287.51391   -661.78113    276991.17   -76434.354    7301.8475   -83736.201    861.68355 
   15850    289.41695   -783.56766    277411.77   -76404.741    7350.1779   -83754.919    866.03147 
   15900    288.97937    -718.3237    277128.02   -76411.115    7339.0651    -83750.18    870.22266 
   15950    287.24189   -316.86311    276413.78   -76385.386    7294.9391   -83680.325    872.91743 
   16000    290.58478   -338.27935    276048.51   -76355.414    7379.8367    -83735.25    875.76958 
   16050    294.29274   -168.63161    276329.85   -76318.016    7474.0061   -83792.022    879.41434 
   16100    296.32287   -560.81471    277124.06     -76302.5    7525.5642   -83828.065    883.11389 
   16150    297.38546   -526.04878    277312.87   -76301.853    7552.5504   -83854.403    887.76236 
   16200    295.55359   -322.55328    277126.73   -76250.836    7506.0272   -83756.863    891.12171 
   16250    294.39253   -729.80801    276817.25   -76228.718    7476.5404   -83705.258    892.88155 
   16300     298.0596   -269.34977    276299.47   -76258.637     7569.671   -83828.308    895.12358 
   16350    294.78462   -461.75347    276124.69   -76282.653     7486.498   -83769.151    896.90765 
   16400      299.011   -387.83407    276527.63    -76270.79    7593.8333   -83864.623    900.91601 
   16450    297.15419   -674.45166    276973.02   -76308.816    7546.6768   -83855.492    905.73065 
   16500    289.70192   -670.40931    277081.96    -76273.13    7357.4153   -83630.545    909.88222 
   16550    293.71212   -644.36224    277117.93   -76237.932    7459.2603   -83697.192    913.21761 
   16600    293.67699    -611.0503    276909.24   -76214.905    7458.3681   -83673.273    916.33861 
   16650    293.79492    -239.3421    276712.44   -76164.729    7461.3632   -83626.092    918.73733 
   16700    293.25331   -198.28462    276694.99   -76253.385    7447.6081   -83700.993    919.86555 
   16750    291.93526   -643.48941    276937.41    -76268.92    7414.1344   -83683.054    924.07964 
   16800     296.0556   -760.70373    277013.12   -76287.547    7518.7765   -83806.324    925.85931 
   16850    290.77766   -768.54102    277005.84    -76320.15    7384.7353   -83704.885    928.77485 
   16900     297.5021   -648.12591    276817.76   -76320.649    7555.5126   -83876.161    931.08897 
   16950    293.76746   -268.90847    276396.21    -76280.31    7460.6658   -83740.976    932.53343 
   17000    295.01823   -415.17838    276397.17   -76319.845    7492.4309   -83812.276    935.06647 
   17050    291.58605   -314.10685    276574.54     -76286.9    7405.2655   -83692.166    938.68204 
   17100    293.30854   -360.25493     276787.6   -76291.902    7449.0109   -83740.913    943.44981 
   17150    295.20579   -434.59743    277120.79    -76235.17    7497.1943   -83732.365    946.56449 
   17200    298.59531   -478.30796    277186.97   -76199.757    7583.2762   -83783.033    950.44199 
   17250     295.6286   -417.24304    276941.09   -76200.721    7507.9322   -83708.653    953.16639 
   17300    298.51849   -450.55394    277085.51   -76157.454    7581.3253   -83738.779     958.1115 
   17350    289.39075   -563.48997    277307.43   -76195.668    7349.5125   -83545.181    961.55264 
   17400    297.57842   -505.23252     277173.6   -76218.427    7557.4508   -83775.878    963.24007 
   17450    299.71979   -630.34371    277027.25   -76182.689     7611.834   -83794.523    965.41626 
   17500    296.22092   -558.55127     276689.1   -76240.603     7522.975   -83763.578    966.22697 
   17550    292.34389   -309.38857    276404.35   -76293.521    7424.5121   -83718.033    969.12401 
   17600    295.57453   -418.12951    276547.43   -76267.683     7506.559   -83774.242    974.29911 
   17650    299.11067    -489.6853    276871.24   -76218.448    7596.3646   -83814.812    977.59508 
   17700    294.11731   -372.05322    277185.31   -76195.924    7469.5508   -83665.475     980.8897 
   17750    296.38992   -661.29013    277316.94     -76185.8    7527.2672   -83713.068    982.95831 
   17800    297.32124   -644.02317    277457.72   -76185.873    7550.9193   -83736.792    985.43198 
   17850    296.77253   -608.41552    277368.28     -76217.1    7536.9841   -83754.084    986.47789 
   17900    293.62564   -544.20298    276950.75   -76236.805     7457.064   -83693.869    988.19902 
   17950    295.35516   -343.16413    276393.39   -76259.211    7500.9879   -83760.199    988.77196 
   18000     297.5672   -684.95117    276302.41   -76317.097     7557.166   -83874.263    990.67941 
   18050    297.21325   -640.92036    276791.98   -76351.585    7548.1767   -83899.761    995.31728 
   18100    293.26294   -495.02747    277347.09   -76373.903    7447.8528   -83821.755    999.60074 
   18150    295.61417   -828.65207    277559.01   -76405.839    7507.5656   -83913.405    1003.1802 
   18200     294.5902   -772.79195    276931.66   -76348.747    7481.5606   -83830.308    1003.5361 
   18250    295.90731   -541.71539    276228.12   -76300.091    7515.0105   -83815.101     1003.385 
   18300    295.55376     -176.664    275989.74   -76290.296    7506.0316   -83796.327     1005.466 
   18350    294.49989   -444.60033    276544.76   -76280.522    7479.2669   -83759.789    1009.7237 
   18400    293.84531   -913.18677    277358.35   -76280.706    7462.6428   -83743.349    1016.5705 
   18450    295.44594   -883.32432    277536.84   -76305.078    7503.2932   -83808.371    1019.9604 
   18500    296.13113   -344.02539    277029.21   -76279.556    7520.6948   -83800.251    1022.4066 
   18550    295.77939   -404.94479     276977.7   -76250.542    7511.7618   -83762.303    1026.1819 
   18600    295.42422   -332.99061     276968.6   -76222.703    7502.7417   -83725.445    1029.3851 
   18650    290.14145   -372.41147    276927.87   -76239.989    7368.5779   -83608.567    1032.6494 
   18700    299.87401   -695.46881    276964.17   -76259.958    7615.7507   -83875.709    1034.1568 
   18750    293.87714   -348.97616     276883.5   -76184.771    7463.4513   -83648.222    1037.2932 
   18800    294.04778   -333.75395    277007.13   -76193.911     7467.785   -83661.696    1041.5668 
   18850    293.39947   -437.42979    277014.38   -76220.598    7451.3202   -83671.918    1043.1475 
   18900    293.94621   -472.55458    276747.94   -76241.212    7465.2055   -83706.418    1046.2412 
   18950    299.52599   -696.29863    276492.73   -76287.395    7606.9122   -83894.307    1047.5376 
   19000     295.2672   -134.36615    276205.66   -76252.686    7498.7539    -83751.44    1047.7335 
   19050    295.42449   -462.85286    276717.74   -76232.919    7502.7485   -83735.667    1051.3317 
   19100    293.33893    -547.2383    277537.65   -76268.418    7449.7827   -83718.201    1055.2076 
   19150    293.22488   -814.88289    277628.21   -76230.797    7446.8863   -83677.684    1058.6376 
   19200    297.67295   -611.58165    277086.93   -76253.104    7559.8515   -83812.956    1060.7782 
   19250    293.76145   -384.06648    276441.41   -76247.239    7460.5132   -83707.753    1061.9251 
   19300    299.94209   -179.05733    276207.45    -76277.07    7617.4798   -83894.549    1064.0077 
   19350    296.16185   -635.53823    276860.81   -76301.536     7521.475   -83823.011    1067.9858 
   19400    293.93968   -743.51526    277246.71   -76309.279    7465.0395   -83774.318    1071.9452 
   19450    298.76708   -737.81451    277118.69   -76341.542    7587.6386   -83929.181    1073.8069 
   19500    293.02785   -526.91798    276568.71    -76408.85    7441.8822   -83850.732    1075.5058 
   19550    294.08427   -143.69345    275966.64   -76342.742    7468.7116   -83811.453    1077.3471 
   19600    294.79794   -277.86656    276465.44   -76329.844    7486.8363    -83816.68    1080.5741 
   19650     289.2812   -595.01196    277395.23   -76274.324    7346.7305   -83621.055    1084.5699 
   19700    292.12601   -633.33222    277956.01   -76215.822    7418.9788   -83634.801    1088.0295 
   19750    295.03621   -883.16949    277758.19   -76238.238    7492.8876   -83731.126    1089.1812 
   19800    294.78126   -294.09393    276616.77    -76274.76    7486.4127   -83761.172    1088.5317 
   19850     296.3851   -241.90023    275661.81   -76259.069    7527.1447   -83786.213      1086.77 
   19900    299.30464   -136.02151    276081.27   -76202.219    7601.2908   -83803.509    1089.0048 
   19950    293.06852   -549.54439    277685.99    -76203.83    7442.9152   -83646.745    1096.3095 
   20000    293.13745   -1028.9418    278759.74   -76154.144    7444.6657    -83598.81    1103.9672 
   20050    289.73457   -865.89614    278105.75   -76192.588    7358.2445   -83550.832     1103.885 
   20100    299.40307   -180.22263    276563.59   -76236.531    7603.7905   -83840.321    1100.6675 
   20150    296.89037   -219.04265    275856.98   -76271.031    7539.9768   -83811.008    1099.2623 
   20200    293.48703   -388.49247    276246.49   -76263.194    7453.5437   -83716.737    1100.2581 
   20250    297.20196   -418.77601    277187.98    -76284.43    7547.8902   -83832.321    1102.7097 
   20300    291.42587    -800.3877    278043.19   -76251.202    7401.1976     -83652.4    1107.6639 
   20350    295.65464   -760.15256     277767.2   -76245.215    7508.5934   -83753.808    1109.7872 
   20400     296.0437   -489.22541    276821.12   -76219.125    7518.4744   -83737.599    1108.8135 
   20450    302.69289   -419.12937    276249.85   -76181.382    7687.3405   -83868.722    1107.6882 
   20500    294.07358   -507.68567    276426.76   -76182.835    7468.4403   -83651.275    1109.1574 
   20550    296.18064   -488.08222    276735.65   -76169.964     7521.952   -83691.916    1113.9583 
   20600    296.81043   -320.57566    276880.58   -76159.247    7537.9465   -83697.193    1116.2987 
   20650    298.79923   -584.51679    276971.79    -76113.47    7588.4552   -83701.925    1118.1488 
   20700     295.5578   -739.39514    276956.01   -76196.973    7506.1341   -83703.107    1118.8716 
   20750    299.54207   -417.66963    276807.87   -76198.234    7607.3206   -83805.555    1120.1111 
   20800    294.13158   -674.16089    277055.89   -76172.176    7469.9133   -83642.089    1123.5137 
   20850    297.42499   -456.15512    277246.83   -76171.391    7553.5543   -83724.946    1127.2021 
   20900    301.08334   -643.92933    277185.67   -76099.506    7646.4635    -83745.97    1129.6877 
   20950    295.73862   -562.24624    277163.36   -76157.705    7510.7264   -83668.431    1133.2975 
   21000    299.14434   -621.60491    277064.02   -76193.137    7597.2196   -83790.357    1135.3552 
   21050    296.66623   -405.25407    276672.46   -76142.598    7534.2845   -83676.882    1137.6584 
   21100     299.0225   -538.45587    276330.56   -76129.612    7594.1254   -83723.738    1141.4803 
   21150    296.14978   -470.47907     276390.2   -76168.754    7521.1683   -83689.922    1144.8686 
   21200    294.93254   -124.45746    276558.37   -76190.107    7490.2548   -83680.361    1147.6485 
   21250    291.59401   -636.04048    277130.03   -76224.062    7405.4677    -83629.53    1150.9059 
   21300    298.77898   -711.10728    277443.18   -76219.411     7587.941   -83807.352    1154.1332 
   21350    296.29803   -789.87271    277350.41   -76286.671    7524.9334   -83811.605    1156.3986 
   21400    293.86812   -522.40283    277065.73   -76280.073    7463.2222   -83743.295    1158.6204 
   21450    299.17462   -799.50354    276892.78   -76273.816    7597.9887   -83871.805    1160.6464 
   21500     298.8909   -379.62772    276503.61   -76246.381    7590.7831   -83837.164    1162.0645 
   21550    294.84275   -383.78793    276601.75   -76257.824    7487.9744   -83745.798    1166.4231 
   21600    292.00572   -597.92234    277057.15   -76295.109    7415.9238   -83711.033    1168.8734 
   21650    294.78001   -598.28314    277116.86   -76303.099     7486.381    -83789.48    1170.2578 
   21700    294.78005   -621.50619    276865.74    -76276.92     7486.382   -83763.302    1171.7217 
   21750    297.77029   -427.26526    276414.62   -76287.015    7562.3236   -83849.339    1174.6841 
   21800    295.69318   -318.73108    276286.03   -76298.219    7509.5724   -83807.791    1177.5738 
   21850    296.96459   -595.33472    276686.43   -76298.915    7541.8616   -83840.777    1181.4006 
   21900    299.23019   -726.62699    277274.04   -76281.743    7599.3999   -83881.143    1185.5687 
   21950    295.44835   -496.24914    277324.31   -76288.588    7503.3544   -83791.942    1189.2082 
   22000    297.86516    -542.7729    277011.37   -76246.745     7564.733   -83811.478     1191.576 
   22050    299.59763    -588.9614    276707.88   -76244.251    7608.7317   -83852.983    1192.9281 
   22100    292.43864   -318.28494     276655.8   -76225.469    7426.9185   -83652.388    1196.7208 
   22150    295.59574    -300.6244    276852.42   -76216.932    7507.0976    -83724.03    1200.4702 
   22200    292.66915   -713.98943    277208.61   -76200.661    7432.7725   -83633.434    1203.2407 
   22250    293.92371   -613.07055    277273.21   -76213.849    7464.6339   -83678.483    1206.5914 
   22300    291.78952    -374.7252    276963.09   -76238.363     7410.433   -83648.796    1207.5338 
   22350    296.84925   -419.75981    276511.78   -76257.039    7538.9323   -83795.972    1209.9289 
   22400    292.67454   -178.72235    276292.32   -76273.706    7432.9094   -83706.615    1212.0005 
   22450    297.90941   -608.85771    276620.59   -76252.814    7565.8569   -83818.671    1216.3946 
   22500    293.00294   -783.63378    277143.73   -76168.536    7441.2496   -83609.785    1219.6053 
   22550    295.68544    -372.3931    277267.89   -76206.236    7509.3758   -83715.612    1221.7292 
   22600    298.59569   -619.89949    277091.18    -76243.14    7583.2858   -83826.426     1223.968 
   22650    290.45497   -561.49753    276898.15   -76221.781    7376.5402   -83598.322    1227.4406 
   22700    292.87061   -388.84738    276760.73   -76243.689     7437.889   -83681.578    1230.8564 
   22750    294.51372   -559.34778     276692.1   -76213.706    7479.6181   -83693.324    1233.1369 
   22800    294.72752   -219.87071    276785.46    -76235.64    7485.0479   -83720.688    1234.6974 
   22850    291.71793   -572.09821    277204.79   -76217.617     7408.615   -83626.232    1238.6887 
   22900       292.41   -538.28606    277528.41   -76154.831    7426.1909   -83581.022    1244.0009 
   22950    299.54257   -574.79026    277201.34   -76172.609    7607.3334   -83779.942    1246.6213 
   23000    297.86087   -361.08656    276899.46   -76241.447    7564.6241   -83806.071    1248.5458 
   23050    296.32268   -666.59622    276846.22    -76225.43    7525.5594    -83750.99    1249.6629 
   23100    291.07907   -566.52236    276787.01   -76269.517    7392.3901   -83661.907     1250.818 
   23150    297.01046   -649.67129    276860.01   -76271.478    7543.0267   -83814.504    1253.0928 
   23200    293.85319   -319.63002     276771.3   -76229.074     7462.843   -83691.917    1255.0809 
   23250    293.56269   -443.25436    276894.01   -76215.584    7455.4654    -83671.05    1258.7087 
   23300    291.75552   -503.76191    277211.42   -76232.974    7409.5696   -83642.544    1260.7472 
   23350    291.50977    -690.7559    277543.28   -76238.513    7403.3284   -83641.842    1265.4664 
   23400    302.26422   -478.74721    277359.26   -76233.362    7676.4538   -83909.816     1268.155 
   23450    291.97289   -669.44206    276882.88   -76253.719    7415.0899   -83668.809     1267.071 
   23500    293.58596   -543.21147    276438.94   -76284.505    7456.0564   -83740.562    1268.8593 
   23550    298.59331   -158.45595    276601.98   -76287.026    7583.2254   -83870.251    1270.4347 
   23600    290.47562   -445.43169    277161.74   -76286.438    7377.0646   -83663.502     1274.877 
   23650    297.66992   -568.77209    277185.36   -76327.993    7559.7747   -83887.768    1277.2373 
   23700    289.23884   -536.11785    276928.39   -76339.113    7345.6547   -83684.768    1278.4472 
   23750    293.30169   -679.59194    276494.23   -76337.165     7448.837   -83786.002    1280.3067 
   23800    292.84687   -105.28187    276174.14    -76315.95    7437.2861   -83753.236    1282.0823 
   23850     290.5728   -159.90245    276671.55   -76277.256    7379.5326   -83656.788    1285.2925 
   23900    295.48298   -674.00646    277377.52   -76285.669    7504.2341   -83789.903    1290.0316 
   23950    291.57057   -511.14485    277503.02   -76324.573    7404.8725   -83729.446    1290.8108 
   24000     289.8708     -347.347    277128.28   -76302.458    7361.7044   -83664.162     1291.779 
   24050      293.222    -848.0331    276697.05   -76302.044    7446.8131   -83748.857    1291.6356 
   24100    295.23949   -278.12338    276319.93   -76310.045    7498.0502   -83808.095    1292.1104 
   24150    294.03649   -416.86788    276525.83   -76279.954    7467.4982   -83747.452    1294.2508 
   24200    293.09724    -508.8453    277128.83   -76283.906    7443.6447    -83727.55    1298.7843 
   24250     296.2228   -476.15295     277496.5   -76215.079    7523.0228   -83738.102    1303.7257 
   24300    297.52179   -478.36321    277260.76     -76250.8    7556.0125   -83806.813    1306.9606 
   24350    299.04399   -658.37261    276940.97   -76287.604    7594.6711   -83882.275    1309.1926 
   24400    295.17135   -113.17141    276486.81   -76302.441    7496.3196   -83798.761    1309.5993 
   24450    295.91066   -167.50866    276199.31   -76313.889    7515.0955   -83828.985    1312.9417 
   24500    299.52512     -503.116    276683.14   -76317.469    7606.8901   -83924.359    1314.4183 
   24550    293.33098   -506.55005    277215.98   -76335.693    7449.5808   -83785.274    1317.1846 
   24600    295.64771   -790.99999     277105.9   -76362.493    7508.4175    -83870.91    1317.8329 
   24650    290.74909   -425.48031    276644.66   -76352.917    7384.0098   -83736.927    1316.1971 
   24700    288.21369   -791.90929    276348.58   -76350.911    7319.6194   -83670.531    1317.1431 
   24750    293.02893   -582.63626     276420.9   -76335.023    7441.9097   -83776.932    1319.7621 
   24800    292.26992   -361.20553    276694.37   -76363.424    7422.6335   -83786.057    1323.9862 
   24850    294.16502   -545.97907    277152.39   -76355.299    7470.7625   -83826.062    1329.2398 
   24900    294.48441   -836.30661    277269.91   -76392.103    7478.8738   -83870.976    1333.4335 
   24950    294.90277   -454.74361    277004.74   -76396.701    7489.4987   -83886.199    1335.5336 
   25000    290.57259   -239.82414    276836.48    -76356.45    7379.5272   -83735.977    1338.3313 
   25050     292.7144    -415.2865    276755.61   -76344.058    7433.9217    -83777.98    1343.3504 
   25100    295.28996   -472.30483    276434.62    -76372.33     7499.332   -83871.662    1344.8208 
   25150    292.61895   -439.97798     276310.3   -76347.852    7431.4976   -83779.349    1345.8008 
   25200    290.31183   -515.59617     276572.2   -76312.926    7372.9048   -83685.831    1347.9761 
   25250    293.34279   -682.62322    277054.96   -76286.546    7449.8807   -83736.427    1351.0543 
   25300    296.14994   -717.87093    277322.13   -76263.589    7521.1724   -83784.762    1354.8458 
   25350    296.14214   -733.37465    277275.05   -76271.647    7520.9743   -83792.622    1355.2368 
   25400    293.83349   -385.25261    277096.71   -76295.062    7462.3426   -83757.405    1357.0668 
   25450    291.81778   -415.98314    276762.49   -76321.931    7411.1508   -83733.082    1357.2791 
   25500    295.69585   -676.16045    276468.63   -76342.826      7509.64   -83852.466     1358.043 
   25550    296.31627   -660.34731    276387.23   -76351.511    7525.3967   -83876.908     1360.155 
   25600    294.16455   -212.38316    276514.31   -76363.816    7470.7505   -83834.566    1363.7243 
   25650    291.12981   -660.23763     276970.6    -76343.78    7393.6786   -83737.458    1368.1277 
   25700    293.42446   -545.15225     277076.2   -76311.426    7451.9547   -83763.381    1371.4295 
   25750    295.08529   -355.02803    276753.29   -76329.607    7494.1342   -83823.741    1372.4192 
   25800    295.33262   -489.77523    276533.91   -76307.543    7500.4155   -83807.958    1373.1046 
   25850    295.01836   -551.01815    276730.03    -76308.86    7492.4342   -83801.294    1375.6814 
   25900    293.32516   -630.78377    276931.52   -76337.716     7449.433   -83787.149    1377.8395 
   25950    294.75828   -605.54698    276875.66   -76362.994    7485.8292   -83848.823    1380.5131 
   26000    285.45521   -416.08306    276614.35   -76384.762    7249.5636   -83634.326    1381.4024 
   26050    291.24897   -667.14169    276659.38   -76386.601     7396.705   -83783.306    1383.3328 
   26100     285.2475   -536.91747    276760.83   -76398.443    7244.2887   -83642.732    1385.2141 
   26150    289.22045   -365.19644    276746.08   -76334.899    7345.1876   -83680.086     1388.859 
   26200    291.98341    -220.8109     276824.4   -76328.957    7415.3573   -83744.314    1392.6143 
   26250    296.28902   -908.37989    277102.14   -76294.353    7524.7045   -83819.058    1396.0754 
   26300    294.55235   -776.77546    277133.69   -76299.316    7480.5992   -83779.915    1398.3705 
   26350    298.73434   -692.78916    276860.12   -76249.934    7586.8072   -83836.742    1400.2234 
   26400    295.23457   -427.36444    276577.37   -76246.177    7497.9254   -83744.102    1401.2575 
   26450    294.32833   -632.81662    276830.44   -76296.232      7474.91   -83771.142    1402.6616 
   26500    292.31371   -514.92531    277279.87   -76263.161    7423.7456   -83686.906    1404.5164 
   26550     292.4494   -533.50942    277454.13   -76300.394    7427.1917   -83727.586    1406.1787 
   26600    291.63803   -555.52351    277142.35   -76281.506    7406.5857   -83688.092    1405.6344 
   26650    293.69638   -503.26055    276587.97    -76320.39    7458.8605   -83779.251    1406.1869 
   26700    290.14544    -289.1024    276182.23   -76375.833    7368.6792   -83744.513     1408.241 
   26750    295.22336   -306.93381    276299.17   -76409.475    7497.6406   -83907.116    1411.5472 
   26800    294.44111   -664.09515    276837.54   -76403.294    7477.7742   -83881.068    1416.1333 
   26850    289.40952   -1017.5477    277243.26   -76440.318    7349.9893   -83790.307     1419.681 
   26900    290.98408   -909.56608    276844.88   -76467.153    7389.9776   -83857.131    1420.8657 
   26950    290.01504   -488.81468    276102.62   -76465.042    7365.3675   -83830.409    1420.6823 
   27000    294.11457   -463.49406    275881.25   -76487.525     7469.481   -83957.006    1422.4355 
   27050    289.18437    -511.7053    276327.21   -76478.884    7344.2712   -83823.155    1426.3324 
   27100    285.92931   -622.69638     276996.8   -76507.636    7261.6043    -83769.24    1430.1898 
   27150    287.70302   -664.99797    277045.19   -76408.039    7306.6501   -83714.689    1432.2519 
   27200    286.40126   -447.22281    276637.34   -76404.178    7273.5902   -83677.768    1431.3164 
   27250    290.09265    -276.2245    276316.53   -76411.862    7367.3383     -83779.2    1432.4416 
   27300    293.86116   -334.89579    276563.05    -76399.16    7463.0454   -83862.205    1434.0425 
   27350    293.33131   -247.51005    276862.92   -76407.588    7449.5892   -83857.177    1437.0428 
   27400    292.55368   -434.50977    276884.72   -76370.924    7429.8401   -83800.764    1436.9881 
   27450     296.9492   -481.45405    276700.15   -76337.517     7541.471   -83878.988    1437.6828 
   27500    296.14824    -533.6364    276592.31   -76302.701    7521.1292   -83823.831    1439.4729 
   27550    297.79231   -469.54201    276892.97   -76284.903    7562.8828   -83847.785    1442.6123 
   27600    297.47553   -603.94701    277206.75   -76264.033    7554.8379    -83818.87    1447.1229 
   27650    295.19117   -524.59499    277163.15   -76295.587     7496.823    -83792.41    1449.5312 
   27700    295.13411   -575.63364    276927.57   -76311.581    7495.3739   -83806.955    1451.6192 
   27750    293.71354   -423.92197    276855.61   -76272.477    7459.2963   -83731.773    1455.1311 
   27800    290.54943   -563.17966    276974.87   -76323.233     7378.939   -83702.172    1458.1177 
   27850    293.77844   -608.35377    276978.85   -76294.326    7460.9447   -83755.271    1460.9549 
   27900    295.88169    -527.4875    276685.57   -76216.255    7514.3599   -83730.615    1463.1025 
   27950    297.62553   -236.69605    276675.84   -76230.103    7558.6473    -83788.75    1465.7129 
   28000    293.64163   -806.09251    277088.73    -76232.77    7457.4702    -83690.24    1468.3844 
   28050    296.67818   -414.31048    277097.53   -76211.306     7534.588   -83745.894    1469.9716 
   28100    298.80412   -650.27673    276941.33   -76223.455    7588.5792   -83812.034    1472.2667 
   28150    291.65938       -578.4    276494.81   -76260.894     7407.128   -83668.022    1474.2438 
   28200     291.6925   -257.14549    276530.35   -76287.303     7407.969   -83695.272    1476.2665 
   28250    297.85437   -469.01436     277014.5   -76236.619     7564.459   -83801.078    1480.0194 
   28300    298.68775   -738.55016    277433.74   -76241.327     7585.624   -83826.951    1481.8512 
   28350      295.287   -306.71489    277387.55   -76264.005    7499.2568   -83763.262    1483.4469 
   28400    295.01026   -416.21515    277113.49   -76265.077    7492.2286   -83757.306    1486.5121 
   28450    298.60157   -452.08882    276580.98   -76264.837    7583.4351   -83848.273     1486.773 
   28500    299.79966   -257.84376    276195.95   -76212.003    7613.8625   -83825.865    1489.1285 
   28550    295.02349   -335.07878    276593.07   -76171.994    7492.5646   -83664.559    1492.0885 
   28600    296.68542   -519.78873    277406.69   -76130.727    7534.7717   -83665.499    1498.3064 
   28650    296.05388   -1027.2445    277848.16   -76139.095    7518.7327   -83657.828    1504.3001 
   28700    293.94976   -556.21894       277180    -76095.39    7465.2955   -83560.686    1505.2322 
   28750    294.32989   -156.43622    276489.31   -76142.218    7474.9495   -83617.167    1506.0527 
   28800     293.6405   -566.39098    276567.03   -76221.823    7457.4414   -83679.264    1508.7858 
   28850    295.93416   -620.57557    276939.84   -76227.835    7515.6922   -83743.527    1515.2984 
   28900    293.40191   -656.68178    277399.93   -76224.559    7451.3821   -83675.941    1518.8675 
   28950    289.71751   -587.30084    277352.16   -76234.626    7357.8112   -83592.437      1521.66 
   29000    293.12336   -582.93111     277031.4   -76281.383    7444.3078   -83725.691    1526.3028 
   29050    294.88773   -503.48624    276716.48   -76287.644    7489.1167   -83776.761    1529.2062 
   29100    291.77444   -271.97397    276704.16   -76275.402    7410.0501   -83685.452    1532.6662 
   29150    289.48996   -411.39719    276870.97   -76282.051    7352.0322   -83634.083    1537.2019 
   29200    294.25796   -464.08218    276883.95   -76279.544    7473.1228   -83752.667     1541.626 
   29250    296.92865   -497.00982    276644.59   -76236.461    7540.9489    -83777.41    1544.0666 
   29300    294.57078   -432.06478    276685.92   -76282.505    7481.0674   -83763.573    1547.6811 
   29350    290.68626    -441.8709    277008.95   -76308.876    7382.4142    -83691.29    1550.1254 
   29400    292.99664   -678.29215    277230.72   -76330.089    7441.0896   -83771.179    1553.6705 
   29450     290.9131   -412.08385     276864.2   -76333.118    7388.1749   -83721.293    1555.0492 
   29500    297.25784   -477.83463    276299.95   -76346.037    7549.3093   -83895.346    1555.2414 
   29550    292.92763    -281.0306    275902.41   -76314.263    7439.3371   -83753.601    1553.9028 
   29600    298.00097   -153.32847    276238.41   -76293.347    7568.1821   -83861.529    1558.3905 
   29650    295.40374   -873.54514    277338.92   -76267.026    7502.2217   -83769.248    1565.0283 
   29700    291.19148   -814.25922    277648.65   -76289.581    7395.2448   -83684.825    1568.4265 
   29750    294.62312   -341.87776    277055.05   -76268.309    7482.3966   -83750.705    1568.5572 
   29800    298.74814   -359.92537    276535.28   -76250.653    7587.1577    -83837.81    1568.4197 
   29850    292.89275    -377.8042     276210.3   -76244.715    7438.4512   -83683.166    1568.2241 
   29900    299.99874   -424.20475    276502.14   -76207.105    7618.9185   -83826.024     1572.455 
   29950    292.80227   -715.95545    277317.66   -76183.155    7436.1533   -83619.309     1578.384 
   30000    297.04159   -934.05929    277607.59   -76220.932    7543.8172   -83764.749    1583.2905 
   30050    292.02208   -395.99606    277358.24   -76246.443    7416.3392   -83662.782    1583.8997 
   30100    296.23322   -379.58948    276880.26    -76205.44    7523.2874   -83728.727    1583.5015 
   30150    296.80286   -503.97254    276506.87   -76211.659    7537.7542   -83749.413    1585.0463 
   30200    298.31791   -212.50354    276524.53   -76218.308    7576.2314   -83794.539    1588.2868 
   30250    295.39788   -313.76871    276985.21   -76225.238    7502.0727    -83727.31    1592.8144 
   30300    294.69452   -730.43385    277458.55   -76192.894    7484.2098   -83677.104     1596.222 
   30350    294.91177   -499.89906    276992.32   -76214.727    7489.7272   -83704.455    1596.3959 
   30400    294.75306   -520.09626    276371.63   -76293.154    7485.6965    -83778.85    1594.6634 
   30450    293.25666   -407.79148    276248.17   -76317.029    7447.6932   -83764.722    1595.3941 
   30500    292.79513   -613.92708    276632.43   -76263.365     7435.972   -83699.337    1601.2079 
   30550    294.86286   -447.60923    277081.71   -76255.064     7488.485   -83743.549    1604.9729 
   30600    297.03034    -778.2591    277261.98   -76289.133    7543.5316   -83832.664     1607.881 
   30650    287.84783    -216.8759     276723.9   -76313.581    7310.3279   -83623.909    1608.2373 
   30700    293.91857   -240.44159    276429.73   -76313.902    7464.5035   -83778.405    1608.4631 
   30750    293.34679   -439.25008     276544.3   -76349.906    7449.9823   -83799.889     1611.537 
   30800    291.59371   -372.82247    276813.66   -76394.512    7405.4602   -83799.973    1615.8535 
   30850    292.66818    -549.8634    277072.36   -76415.082    7432.7479    -83847.83    1617.8222 
   30900    292.23756   -841.63228    277049.01   -76388.867    7421.8118   -83810.679    1619.2763 
   30950    286.14693    -550.1456    276773.51   -76394.105     7267.131   -83661.236    1621.2121 
   31000     292.8279   -615.70452    276520.33   -76407.375    7436.8042    -83844.18    1623.0235 
   31050    288.37838   -84.590464    276367.83   -76395.948    7323.8019    -83719.75    1623.7299 
   31100    291.42528   -573.64563    276809.23   -76373.031    7401.1826   -83774.214     1627.617 
   31150    293.14159   -729.08068     277204.1   -76337.821     7444.771   -83782.592    1632.7181 
   31200     292.5226   -774.98063    277040.91   -76328.727    7429.0507   -83757.777    1634.8727 
   31250    292.95252   -442.60126     276757.7   -76325.398    7439.9691   -83765.367    1637.0255 
   31300    290.35041   -362.38138    276802.25   -76315.487    7373.8846   -83689.372    1640.5435 
   31350    292.49191   -612.13025    276920.54   -76337.738    7428.2712    -83766.01    1644.5481 
   31400    293.28322   -565.76215     276856.6   -76364.297    7448.3679   -83812.665    1647.7117 
   31450    294.36428   -336.78234     276614.1    -76353.91    7475.8229   -83829.733    1650.9372 
   31500    290.45035   -313.88915    276659.18   -76349.871    7376.4228   -83726.294    1655.8063 
   31550    294.07389   -309.22002    276852.36   -76366.382     7468.448    -83834.83    1659.5965 
   31600    291.73897   -629.67792    277302.62   -76382.122    7409.1493   -83791.271    1663.1112 
   31650    296.35669   -845.17583    277186.42   -76329.189    7526.4231   -83855.612    1664.8691 
   31700    290.88444   -367.75543    276663.72   -76345.762    7387.4472   -83733.209    1666.9496 
   31750    295.47099   -466.58832     276259.3   -76345.325    7503.9295   -83849.255    1668.8483 
   31800    294.57709   -165.07626    276078.15   -76349.111    7481.2276   -83830.338    1670.2835 
   31850    297.53737    -733.9284    276523.95   -76391.887    7556.4082   -83948.295    1673.9334 
   31900    293.65048   -448.42509    276819.35    -76411.16     7457.695   -83868.855    1678.0147 
   31950    291.86122   -612.50341    277046.26   -76372.328    7412.2539   -83784.582    1680.7757 
   32000    289.41718   -697.58544    277205.04   -76393.345    7350.1838   -83743.529    1682.1963 
   32050    296.90002   -287.13216    276932.51   -76410.452    7540.2217   -83950.674    1684.0039 
   32100    292.85999   -508.69909    276807.27   -76392.984    7437.6192   -83830.603    1686.0339 
   32150    290.88264   -278.38528    276569.91   -76431.921    7387.4015   -83819.323    1688.8552 
   32200    293.22173   -302.69358    276512.74   -76406.787    7446.8062   -83853.593    1690.7297 
   32250    292.21705   -283.37819    276820.89   -76381.841    7421.2907   -83803.132    1691.5408 
   32300    290.61173   -585.30564    277150.42   -76399.528    7380.5212   -83780.049    1696.1179 
   32350    296.31511   -809.55591    277001.08     -76396.8    7525.3672   -83922.167    1698.8988 
   32400    288.03106   -298.42646    276582.95   -76392.986    7314.9812   -83707.967    1701.9803 
   32450    288.52208   -484.81882    276483.27   -76426.816    7327.4515   -83754.267    1704.8912 
   32500    294.65577   -493.10936    276462.35   -76406.578    7483.2256   -83889.804    1709.0521 
   32550    292.25058   -443.51638    276719.46    -76421.13    7422.1424   -83843.272    1713.5376 
   32600    291.55553   -589.87181    277216.08   -76353.045    7404.4906   -83757.536    1717.1705 
   32650    294.21586    -773.9553    277234.81    -76357.07    7472.0535   -83829.123    1718.9202 
   32700      289.726    -406.3819    276595.12   -76363.696    7358.0267   -83721.722    1720.0065 
   32750    292.00857   -262.61632    276090.67   -76345.902    7415.9961   -83761.899    1721.1614 
   32800     295.7748   -464.08392    276277.89   -76374.441    7511.6451   -83886.086     1723.874 
   32850     291.1434   -612.20052    276820.74    -76355.41    7394.0238   -83749.434    1726.6563 
   32900    291.53481   -518.90127    277096.96   -76373.289    7403.9643   -83777.253    1729.9349 
   32950    289.15707   -455.97419    277117.59   -76409.729     7343.578   -83753.307    1735.4987 
   33000    291.75132   -467.32412    276854.16    -76355.36    7409.4629   -83764.823    1738.3426 
   33050     295.8159   -325.63902    276410.98   -76360.367    7512.6889   -83873.056     1738.028 
   33100    291.89156   -475.83401    276235.78   -76377.897    7413.0244   -83790.922    1740.9175 
   33150    290.69289   -446.19021    276540.56   -76386.786    7382.5823   -83769.368    1742.8974 
   33200    287.75239   -625.48718    276710.17   -76410.201    7307.9041   -83718.105    1745.2161 
   33250    292.13342   -318.51538    276618.34   -76420.286    7419.1668   -83839.453    1747.2677 
   33300    290.89607   -557.78154    276473.22   -76403.316    7387.7426   -83791.059    1749.1082 
   33350    293.39529   -400.08618    276481.21   -76440.817    7451.2139   -83892.031     1752.758 
   33400    289.91044    -609.6705    276707.36   -76399.201     7362.711   -83761.912    1755.4689 
   33450    290.08599   -549.25624     276727.9   -76381.465    7367.1694   -83748.635     1757.795 
   33500    293.11123   -739.23929    276903.15   -76409.969    7443.9997   -83853.969    1759.3471 
   33550    290.32989   -567.54271    276815.83   -76376.456    7373.3634    -83749.82    1761.2887 
   33600    293.07973   -391.02411    276691.13   -76398.101    7443.1998   -83841.301    1762.5777 
   33650    292.72867   -579.19189    276826.16    -76401.38    7434.2842   -83835.665     1763.737 
   33700    290.72008   -445.99537    276634.36   -76367.288     7383.273   -83750.561    1765.9691 
   33750    291.44666   -488.94267    276370.35   -76341.054    7401.7257    -83742.78    1766.0347 
   33800    296.33998   -589.21994     276397.8   -76347.604    7525.9987   -83873.603    1766.6262 
   33850    296.42209   -240.83968    276663.96   -76357.645    7528.0841   -83885.729     1772.422 
   33900    293.57617   -490.39689    277181.36   -76367.477    7455.8077   -83823.285      1776.78 
   33950    286.56971   -902.18057    277334.41   -76370.141     7277.868   -83648.009    1779.8368 
   34000    295.98234   -230.58554    276687.74   -76337.271     7516.916   -83854.187    1779.3727 
   34050    293.67604   -326.79817    276308.73   -76359.843     7458.344   -83818.187    1778.7721 
   34100     293.2826   -494.52575    276401.61   -76383.997    7448.3519   -83832.349    1781.7955 
   34150    296.91199   -611.36757    276894.35   -76394.678    7540.5259   -83935.204    1787.6908 
   34200     297.8365   -673.09121    277068.79   -76407.101    7564.0051   -83971.106    1791.6818 
   34250    293.17763   -340.89328    276704.02   -76401.319    7445.6861   -83847.005    1791.4757 
   34300    294.42463   -239.13311    276328.82   -76360.131    7477.3555   -83837.486    1790.8528 
   34350    290.87338   -393.94213    276333.04   -76380.521    7387.1662   -83767.687    1793.2547 
   34400    289.40658   -391.77736    276823.28    -76426.95    7349.9147   -83776.865    1798.0358 
   34450    290.41437   -813.23835    277357.81   -76373.495    7375.5089   -83749.004    1804.3818 
   34500    289.84689   -563.08954    277072.54   -76416.103     7361.097     -83777.2    1805.6707 
   34550    293.57694   -561.14298    276378.41   -76469.037    7455.8271   -83924.864    1804.3345 
   34600    291.31901   -503.94832    275956.56   -76505.272    7398.4838   -83903.755    1802.2656 
   34650    293.93497   -410.10065    276085.53   -76491.426    7464.9201   -83956.346    1804.3328 
   34700    289.61294   -617.77074    276575.31    -76450.62    7355.1556   -83805.776    1809.5065 
   34750    292.13196   -774.73779    277127.74   -76474.845    7419.1299   -83893.975    1812.7287 
   34800    289.42157   -742.62046    277209.68   -76439.143    7350.2953   -83789.438    1816.8349 
   34850    288.86064   -558.91054    276878.04   -76463.553    7336.0497   -83799.603    1818.7347 
   34900     292.6895   -410.70818    276331.04   -76478.562    7433.2894   -83911.851    1820.3164 
   34950    291.95265   -396.94593    276022.42   -76428.822    7414.5759   -83843.398    1820.5706 
   35000     291.8422   -488.23567    276024.08   -76429.151    7411.7708   -83840.922     1823.705 
   35050    290.84815   -621.13377    276659.47   -76412.369    7386.5256   -83798.895     1827.644 
   35100    291.76479   -778.46916    277341.78    -76445.27     7409.805   -83855.075    1831.9563 
   35150    292.87744   -748.75632     277336.1   -76452.838    7438.0623     -83890.9    1834.6258 
   35200    294.08658   -699.41387    276774.31   -76449.191    7468.7703   -83917.961    1832.6659 
   35250    293.73395   -403.18589       276334   -76408.466    7459.8146   -83868.281     1830.803 
   35300    297.73069   -227.59512    276313.35   -76380.921    7561.3178   -83942.239    1831.4698 
   35350    295.11893   -538.03146    276820.55   -76358.074    7494.9884   -83853.063     1836.883 
   35400    292.01118   -668.13211    277170.17   -76392.162    7416.0624   -83808.224    1840.7617 
   35450    292.56616   -359.78826    276835.93   -76375.498    7430.1568   -83805.655    1842.1116 
   35500    299.47076   -708.16757    276492.67   -76357.435    7605.5097   -83962.945      1837.78 
   35550    296.08826   -702.84058     276211.2   -76400.904     7519.606    -83920.51    1838.1279 
   35600    287.60831    51.520354    276036.69     -76311.8    7304.2449   -83616.044    1841.2965 
   35650    293.67538   -655.00849    276826.12   -76312.319    7458.3273   -83770.647    1848.7475 
   35700    294.07991   -657.51576    277666.42   -76355.382     7468.601   -83823.983    1856.7691 
   35750    291.47513   -709.74322    277554.95   -76356.896    7402.4485   -83759.345    1858.2968 
   35800    292.73871   -394.69223    276722.59   -76374.284     7434.539   -83808.823    1856.9787 
   35850    298.52051   -210.19069    276064.87   -76354.694    7581.3767   -83936.071    1856.9488 
   35900    294.28034   -181.38659    276018.28   -76351.893    7473.6911   -83825.584    1857.3079 
   35950    295.30785    -392.7683    276406.07   -76361.946    7499.7863   -83861.733    1859.9356 
   36000    286.15887   -637.68552    277092.45     -76381.2    7267.4343   -83648.634    1864.6273 
   36050    290.87454    -645.9348    277284.95   -76406.135    7387.1958   -83793.331    1867.7851 
   36100     293.8199   -557.29836    276854.56   -76383.195    7461.9975   -83845.192    1866.6635 
   36150     291.9839    -542.2627    276522.65   -76380.394    7415.3696   -83795.764     1866.508 
   36200    297.06522   -584.99259    276296.27    -76392.28    7544.4174   -83936.697    1867.0116 
   36250    294.38612   -344.39381    276354.51   -76372.137    7476.3776   -83848.515    1869.3798 
   36300    292.39283   -197.12441    276692.93   -76422.773     7425.755   -83848.528    1870.0451 
   36350    293.18091   -363.40697    277100.28   -76350.089    7445.7693   -83795.858     1874.386 
   36400     292.4605   -607.58918    277120.24   -76392.161    7427.4736   -83819.634    1877.1018 
   36450    290.46968   -659.30505    276747.16   -76360.801    7376.9137   -83737.715     1878.656 
   36500    293.36504   -303.03618    276263.12   -76365.448    7450.4458   -83815.894     1877.163 
   36550    299.93663   -456.94007    276193.16   -76340.088    7617.3412   -83957.429    1880.1778 
   36600    292.12048   -557.86296    276791.96   -76311.951    7418.8383    -83730.79    1885.1039 
   36650    295.04903   -741.29175    277327.12   -76336.218    7493.2131   -83829.431    1889.7109 
   36700    295.02082   -348.26019    277315.57   -76328.523    7492.4967    -83821.02    1892.6949 
   36750    296.82888   -613.51281    276821.46   -76354.264    7538.4151   -83892.679    1892.4271 
   36800    295.32005   -506.13117    276191.05    -76322.99    7500.0961   -83823.086    1893.5027 
   36850    290.25397   -333.39241    275991.08   -76332.007    7371.4353   -83703.442    1895.2307 
   36900     293.6854   -591.03849    276398.12   -76342.349    7458.5818   -83800.931    1898.0137 
   36950    290.68591   -763.12972    277019.16   -76373.132    7382.4053   -83755.537    1902.6207 
   37000    287.88693   -406.40989    277101.25   -76393.311    7311.3208   -83704.632    1903.9764 
   37050    293.12138   -864.01888    276999.18   -76401.283    7444.2576   -83845.541    1904.6135 
   37100    288.33552   -407.45543    276411.61   -76362.092    7322.7134   -83684.806    1904.4013 
   37150    294.94245   -538.04449    275831.89   -76380.988    7490.5064   -83871.495    1903.6582 
   37200    296.55458   -140.00412    275948.39   -76401.315    7531.4489   -83932.764    1905.6598 
   37250    289.27096   -590.53386    276879.78   -76384.416    7346.4704   -83730.886     1911.717 
   37300    291.31734   -563.27857    277480.17   -76389.979    7398.4413    -83788.42    1917.0726 
   37350    290.54839   -793.53575    277552.92   -76378.987    7378.9128   -83757.899    1921.7951 
   37400    296.14001   -98.507944    277105.04   -76369.424    7520.9202   -83890.344    1920.7352 
   37450    290.67275   -506.84398    276842.75    -76373.34     7382.071   -83755.411    1921.7935 
   37500    295.05327   -447.71765    276538.14   -76371.192    7493.3208   -83864.513    1920.7968 
   37550    294.30643   -216.51606    276641.08   -76367.854    7474.3536   -83842.207    1923.8958 
   37600    289.23364    -331.3222    277102.76   -76372.345    7345.5226   -83717.867    1929.5715 
   37650    290.55609   -512.82882    277222.58    -76367.31    7379.1081   -83746.418    1934.2137 
[...]
   90850    296.68346   -467.84435    277011.94   -76164.597    7534.7219   -83699.319    4385.7397 
   90900    296.04801   -267.57733    276936.88   -76169.839    7518.5838   -83688.423    4386.0939 
   90950    301.59068   -646.37028    277025.07   -76204.645    7659.3482   -83863.993    4390.5583 
   91000    300.91226   -523.94323    276881.93   -76185.996    7642.1186   -83828.115    4392.7121 
   91050    298.89437   -431.17016    276700.13   -76219.966    7590.8714   -83810.837    4392.0446 
   91100    295.44936   -723.84677    276662.84   -76163.996    7503.3801   -83667.376    4394.3888 
   91150    297.16087   -736.64772    276623.92   -76182.205    7546.8466   -83729.052    4397.6669 
   91200    294.28947    -371.6071    276903.24   -76204.012    7473.9231   -83677.935    4402.3381 
   91250    301.01282   -748.48647    277361.64   -76224.877    7644.6725   -83869.549    4407.8306 
   91300      295.559   -628.47277    277596.99   -76220.978    7506.1646   -83727.142    4412.1646 
   91350    296.68949   -701.21936    277138.82    -76243.37    7534.8751   -83778.245     4407.491 
   91400    296.13993   -240.14096    276401.07   -76286.695    7520.9183   -83807.613     4402.293 
   91450    292.35172   -343.92752     276033.1   -76306.621    7424.7108   -83731.332    4400.7365 
   91500    294.69892   -512.51777    276517.01   -76312.144    7484.3215   -83796.465    4404.2717 
   91550    292.30283   -457.73117    277339.44    -76288.83    7423.4692   -83712.299    4415.1188 
   91600    292.35376   -760.21121    277708.39   -76316.823    7424.7628   -83741.585    4420.4653 
   91650    291.62576   -599.26735    277285.35   -76380.282    7406.2742   -83786.557    4416.5789 
   91700    291.72416   -294.64072    276618.22    -76397.68     7408.773   -83806.453    4411.3445 
   91750    294.77407   -520.30868    276235.77   -76353.309    7486.2302    -83839.54    4408.3753 
   91800    296.49611   -186.46659    276254.01   -76357.398     7529.964   -83887.362    4414.8538 
   91850      291.982   -126.79992    276850.48   -76384.436    7415.3212   -83799.757    4426.6295 
   91900    291.38045   -778.37825    277621.43   -76350.611    7400.0441   -83750.655    4438.6236 
   91950    294.00956   -402.57167    277296.11    -76410.48    7466.8142   -83877.294    4436.6966 
   92000    295.64701   -350.48124    276318.48   -76387.407    7508.3997   -83895.806    4427.4113 
   92050    294.44784   -299.86025    275976.79    -76438.48    7477.9451   -83916.425    4427.0373 
   92100    295.62761   -261.80169     276559.5   -76374.433    7507.9072   -83882.341    4437.1406 
   92150    291.46397   -696.13404    277268.48   -76363.322    7402.1651   -83765.487    4443.6683 
   92200      295.717   -783.02525     277239.8   -76351.016    7510.1772   -83861.194    4444.8942 
   92250    294.18161    -485.8856    276775.22   -76331.892    7471.1837   -83803.075    4440.4653 
   92300      292.236   -347.70948    276315.08   -76347.089    7421.7722   -83768.861    4437.2321 
   92350    295.09792   -265.10862    276313.81   -76364.803    7494.4549   -83859.258     4440.971 
   92400    299.66299   -481.34402    276601.32   -76362.348    7610.3916    -83972.74    4443.0639 
   92450    293.45711   -650.46382    276824.64   -76352.366     7452.784    -83805.15    4447.2564 
   92500    289.30703   -662.18025    276709.02   -76363.697    7347.3865   -83711.084    4446.6609 
   92550    292.62211    -431.7254    276361.34   -76377.846    7431.5779   -83809.424    4443.8196 
   92600    288.30099    -245.4223    276465.05   -76410.767    7321.8366   -83732.603    4449.6214 
   92650    291.99426   -456.07497    276855.27   -76395.921    7415.6328   -83811.554     4457.044 
   92700    291.08558    -703.7281    277159.46   -76383.479    7392.5555   -83776.034    4462.5056 
   92750    293.36707   -387.31111    276720.77   -76444.563    7450.4973    -83895.06    4457.3774 
   92800    290.91255   -533.08897    276210.64    -76437.07    7388.1611   -83825.231    4451.9474 
   92850    292.69533   -457.99417    276216.07   -76425.059    7433.4375   -83858.496    4453.7791 
   92900    293.10889   -523.46649    276706.19   -76433.184    7443.9403   -83877.124    4459.6881 
   92950    291.85831   -605.66079    277241.81   -76413.525      7412.18   -83825.705     4465.941 
   93000    294.10949   -422.84802    277409.83   -76373.961    7469.3521   -83843.313      4469.57 
   93050    291.28244   -328.40066    277069.05   -76343.327     7397.555   -83740.882    4466.1871 
   93100    299.14596   -284.75636    276627.66   -76314.043    7597.2609   -83911.304    4459.1973 
   93150    294.94471   -372.09732    276361.94   -76336.295    7490.5637   -83826.859    4460.1336 
   93200    298.69957   -432.52572    276390.79   -76324.743    7585.9242   -83910.667     4466.553 
   93250    294.54184   -244.99579       276767   -76290.173    7480.3323   -83770.505    4470.7124 
   93300    293.30441   -705.04066    277333.06   -76310.113     7448.906   -83759.019    4482.5305 
   93350    293.11092   -849.13162    277440.91   -76345.284    7443.9921   -83789.276    4487.1281 
   93400    291.75149    -303.8861    276509.15   -76366.507    7409.4672   -83775.974    4482.9261 
   93450    291.78558   -155.53651    275768.85   -76367.297     7410.333    -83777.63    4479.1031 
   93500    291.51553    47.265958    276014.24   -76354.505    7403.4747    -83757.98    4487.5064 
   93550    295.57344   -476.91454    277063.95    -76344.27    7506.5314   -83850.802    4501.3493 
   93600    297.23185   -681.41345    277551.25   -76307.681    7548.6493    -83856.33    4510.2651 
   93650    293.38791    -529.4883    277368.86   -76320.388    7451.0266   -83771.414    4511.4631 
   93700    293.58339   -437.21417    276798.21   -76311.089     7455.991    -83767.08    4507.2381 
   93750    293.45479   -246.73116    276625.97   -76297.942    7452.7249   -83750.667    4507.8473 
   93800    290.93859   -638.87698    276922.24   -76275.059    7388.8224   -83663.881    4515.7515 
   93850    296.84316   -519.20415     276841.2   -76285.913    7538.7778   -83824.691    4515.5818 
   93900    299.22348   -710.59116    276856.14   -76273.151    7599.2297   -83872.381    4516.0094 
   93950    289.85553   -482.38905    277222.14   -76261.698    7361.3165   -83623.015    4523.1549 
   94000     294.3886    -513.4319    277152.78   -76255.502    7476.4407   -83731.942    4530.1644 
   94050    298.40769   -551.68054    276768.68   -76224.376    7578.5114   -83802.888    4529.8402 
   94100    298.25829   -348.42771    276605.73   -76245.715    7574.7171   -83820.433    4528.0475 
   94150    298.57703   -637.41818    276719.49   -76237.016    7582.8119   -83819.828    4530.9833 
   94200    294.59505   -238.12277     276701.3   -76234.051    7481.6836   -83715.735    4532.9211 
   94250    296.75065   -209.61711    276882.57   -76208.357    7536.4284   -83744.786    4536.4498 
   94300    295.45221   -786.71963    277501.32   -76179.521    7503.4526   -83682.973    4546.1684 
   94350    296.17412   -531.59242    277791.96   -76190.664    7521.7865   -83712.451    4550.8627 
   94400    295.58627   -771.40138    277483.68   -76216.375    7506.8572   -83723.232    4549.9374 
   94450    295.09916   -335.54982    276579.94   -76227.487    7494.4862   -83721.974    4539.7556 
   94500     296.0389   -202.75409    275968.02   -76209.022    7518.3525   -83727.374    4534.7621 
   94550    296.16303   -317.75539    276219.11   -76251.115    7521.5048    -83772.62    4539.1839 
   94600    292.15818    -773.6423    277004.88   -76223.706    7419.7956   -83643.501    4549.5105 
   94650    293.09549   -582.94226    277267.84   -76190.567    7443.6002   -83634.167    4556.7218 
   94700    295.69698   -632.23726    276995.12   -76145.806    7509.6689   -83655.474    4553.6339 
   94750    296.20297   -182.52068    276630.86   -76207.582    7522.5192   -83730.101    4554.0129 
   94800    294.23879   -364.38841    276790.36   -76221.749     7472.636   -83694.385     4559.481 
   94850    290.94781   -739.37481     277150.1   -76229.516    7389.0565   -83618.573    4565.2519 
   94900    294.45018   -635.76919    277315.11   -76229.107    7478.0046   -83707.112    4568.4534 
   94950    292.54704   -604.45982    277114.86   -76270.255    7429.6713   -83699.926    4567.6366 
   95000    295.37602   -656.20042    276536.76     -76288.8    7501.5176   -83790.318    4563.2749 
   95050     299.0007   -369.03265    275794.06    -76271.34    7593.5717   -83864.912    4557.7628 
   95100    294.82164    46.121559    275922.75   -76284.945    7487.4383   -83772.383    4560.2084 
   95150    290.81767   -384.54861    276868.78   -76293.913    7385.7514   -83679.664    4573.0223 
   95200    295.10001   -766.41475    277591.33   -76291.621     7494.508   -83786.129    4582.7079 
   95250    296.41713   -696.75686    277355.63   -76281.573    7527.9581   -83809.532    4580.0359 
   95300    290.68457    -403.7233    276807.46   -76328.763    7382.3713   -83711.134    4577.5942 
   95350    295.06468   -639.00246    276357.89   -76353.625    7493.6105   -83847.235    4571.1455 
   95400     297.8852   -330.82478    276221.44   -76308.064     7565.242   -83873.306     4567.619 
   95450     296.0164   -539.35328    276469.18   -76325.001     7517.781   -83842.782    4571.7066 
   95500    289.10529    -474.9298    276913.42   -76313.073    7342.2631   -83655.336    4577.4928 
   95550    295.42502    -773.5363    277255.66   -76317.555     7502.762   -83820.317    4583.5069 
   95600      296.299   -671.91929    277184.82   -76316.093     7524.958   -83841.051    4584.8417 
   95650    290.94943   -502.52507    276790.86   -76347.532    7389.0978    -83736.63    4582.7644 
   95700    298.35375   -541.79613    276624.77   -76336.923    7577.1414   -83914.064    4582.4624 
   95750    295.95564    -384.9723    276677.78   -76320.172     7516.238    -83836.41    4583.1533 
   95800    291.38055   -596.75755    276750.84    -76346.15    7400.0467   -83746.197    4587.2106 
   95850    291.60263   -438.02075     276814.7   -76319.935    7405.6866   -83725.622    4592.4306 
   95900    292.61638   -616.70464    276883.09   -76319.551    7431.4324   -83750.983    4595.0128 
   95950    288.42326   -312.60948    276849.79   -76310.847    7324.9418   -83635.789    4592.8243 
   96000    294.80547   -530.30739    276831.66   -76316.264    7487.0276   -83803.291    4596.1067 
   96050    294.19843   -735.57503    276690.21   -76291.297     7471.611   -83762.908    4596.3858 
   96100     297.2546   -301.69166    276626.26   -76228.464    7549.2269   -83777.691    4596.1766 
   96150    294.79476   -459.95531    276951.67   -76248.117    7486.7556   -83734.873     4601.654 
   96200     297.5408   -487.42285    277199.96    -76201.72    7556.4955   -83758.215    4605.9816 
   96250    293.58866   -846.06519    277303.41   -76191.648    7456.1249   -83647.773    4609.4859 
   96300    297.33525   -320.52159    277202.52   -76197.416    7551.2753   -83748.691    4611.9217 
   96350    295.27589   -541.25865    277166.11   -76209.417    7498.9747   -83708.392    4614.1575 
   96400    296.41223    -700.7689    276923.76   -76245.709    7527.8336   -83773.543    4611.7579 
   96450    300.25867   -675.89848    276431.32   -76220.624    7625.5198   -83846.143    4606.1451 
   96500    295.06294   -423.60873    276258.21   -76220.535    7493.5664   -83714.102    4606.7304 
   96550    299.16604   -464.27001    276622.55   -76209.763    7597.7709   -83807.533    4613.7429 
   96600     297.7224     -591.647    277345.63   -76208.264    7561.1074   -83769.372    4623.5846 
   96650    294.89054   -675.78536    277791.73   -76247.419    7489.1882   -83736.607    4634.1773 
   96700    297.53687   -965.74323    277490.19   -76257.077    7556.3957   -83813.473    4631.6616 
   96750    295.95819   -424.14315    276528.41   -76242.941    7516.3027   -83759.244    4626.8576 
   96800    290.44414   -231.63845    276070.81   -76246.116    7376.2652   -83622.382    4627.9674 
   96850    291.95362    -158.4991    276323.46   -76287.888    7414.6005   -83702.488    4637.1757 
   96900     297.6777   -680.67991    277180.05   -76234.435    7559.9722   -83794.407    4648.1013 
   96950    295.51986   -867.16034    277644.91   -76236.551    7505.1705   -83741.722    4655.6294 
   97000    298.98249   -866.68937    277452.73   -76247.136    7593.1093   -83840.246    4655.9807 
   97050    296.77484   -599.33935    276860.02   -76240.264    7537.0428   -83777.307    4651.2141 
   97100    296.69816   -297.06803    276235.63   -76287.112    7535.0954   -83822.207    4650.3842 
   97150    299.63969   -383.53187     276327.6    -76298.88    7609.7998    -83908.68     4654.543 
   97200    295.78026   -579.11361    276881.88   -76293.377    7511.7839   -83805.161    4661.3067 
   97250    293.23595   -969.39974    277181.88   -76296.393    7447.1672   -83743.561    4663.0043 
   97300    292.73601   -304.18363    276645.36   -76327.859    7434.4707    -83762.33    4655.5061 
   97350    294.12626   -521.14127    276209.74   -76350.118     7469.778   -83819.896    4652.8427 
   97400    293.59829   -301.44321    276326.82   -76372.292    7456.3694   -83828.662    4660.4505 
   97450    292.72015    -454.9579    276883.38   -76386.869    7434.0676   -83820.937    4668.7808 
   97500    294.67859   -604.51575    277315.02   -76390.195    7483.8052       -83874    4671.5582 
   97550    295.36305   -980.40359     277325.7   -76349.452    7501.1882    -83850.64    4672.0232 
   97600    294.04511   -423.31341    276632.33   -76323.087    7467.7172   -83790.804    4667.7566 
   97650    296.53587   -247.00816    275996.02   -76323.286    7530.9738    -83854.26    4664.3814 
   97700     296.1983   -453.79547    276127.66   -76327.525    7522.4007   -83849.926    4670.1203 
   97750    286.74245   -429.73855    276929.14   -76314.683     7282.255   -83596.938    4683.6791 
   97800    290.13793   -343.35593    277671.56   -76344.811    7368.4883   -83713.299     4697.815 
   97850    292.26738   -811.79843     277676.7   -76369.303     7422.569   -83791.872    4699.8594 
   97900    290.33997   -556.18703    276881.24   -76411.656    7373.6196   -83785.275     4692.093 
   97950    297.15712   -389.97416    276173.03   -76379.983    7546.7512   -83926.735    4686.6776 
   98000     290.8806   -276.93271    276093.77   -76402.124    7387.3495   -83789.473    4684.8853 
   98050    290.02756   -613.69426    276621.09   -76389.645    7365.6854    -83755.33    4691.9225 
   98100     292.2667   -469.34481    277339.85   -76409.181    7422.5516   -83831.733    4703.3061 
   98150    291.45326   -805.74237    277511.33   -76413.134    7401.8933   -83815.027    4707.8948 
   98200    290.04308   -747.20504    277071.07   -76432.061    7366.0794    -83798.14    4704.8055 
   98250    292.55217   -587.83168     276612.5   -76427.001    7429.8016   -83856.802    4706.1525 
   98300    288.89867   -87.066765    276314.98   -76462.018    7337.0155   -83799.033    4706.0248 
   98350    294.97861   -568.21004    276720.67   -76469.402    7491.4248   -83960.827    4714.0755 
   98400    293.40142   -559.10407    276974.88   -76429.041    7451.3696   -83880.411    4717.7681 
   98450    291.49426   -545.06514    276866.43   -76396.484    7402.9344   -83799.419    4718.9543 
   98500    288.58522   -493.06177    276504.87   -76410.234    7329.0549   -83739.289    4715.5389 
   98550    287.53852   -148.70744    276359.62   -76441.568    7302.4726   -83744.041    4717.3478 
   98600    293.11428   -399.15956    276664.47   -76446.965    7444.0773   -83891.043    4723.8682 
   98650    289.01135   -691.41848    277131.91   -76438.762    7339.8772   -83778.639    4732.8231 
   98700    290.63111   -346.88296    277053.51   -76424.613    7381.0135   -83805.627     4734.357 
   98750    288.85083   -509.42101    276904.63   -76400.123    7335.8006   -83735.924    4734.5677 
   98800    288.90424   -392.48827    276425.53   -76408.171     7337.157   -83745.328    4733.0539 
   98850    291.85881   -73.889708    275951.55   -76390.531    7412.1927   -83802.724    4730.8395 
   98900    294.42095   -725.71376    276520.16   -76394.369    7477.2621   -83871.631     4742.075 
   98950     291.6062   -696.07742    277341.08   -76365.308    7405.7774   -83771.085    4753.1498 
   99000    295.81628   -908.84048    277554.82   -76339.466    7512.6986   -83852.164    4755.6225 
   99050    295.87798      -804.87    276921.11   -76355.354    7514.2655   -83869.619     4749.375 
   99100    289.69874   -340.51476     276023.4   -76374.009    7357.3344   -83731.343    4742.2043 
   99150    287.35135   -215.78252    275897.45   -76377.971    7297.7191    -83675.69    4746.3235 
   99200    290.69228   -144.87148    276468.61       -76396    7382.5671   -83778.567    4756.9991 
   99250    293.47497   -713.93911    277271.95   -76410.578    7453.2375   -83863.815    4770.1399 
   99300     289.0254   -689.67229    277664.47   -76443.965    7340.2341   -83784.199    4778.0132 
   99350     291.6839   -613.56486    277308.77   -76460.287    7407.7508   -83868.038    4779.6329 
   99400    291.34278   -387.37861    276591.59   -76436.987    7399.0875   -83836.075    4771.7517 
   99450    292.94795   -493.52958    276221.65   -76432.491    7439.8532   -83872.344    4772.9124 
   99500    291.35697   -414.72231    276231.17   -76461.563    7399.4476    -83861.01    4773.5791 
   99550    293.10474   -379.08094    276517.25   -76407.587    7443.8351   -83851.422    4778.5498 
   99600    292.41648   -691.43026    276990.51   -76410.966    7426.3555   -83837.321    4785.0656 
   99650    294.93386   -562.35816    277125.15   -76414.134    7490.2882   -83904.422    4788.6711 
   99700    293.61506   -489.27355    276982.29   -76410.321    7456.7953   -83867.116    4789.9037 
   99750    294.13274   -426.59675    276584.24   -76420.607    7469.9426    -83890.55    4787.9075 
   99800    293.19536   -197.82754    276293.98   -76420.088    7446.1365   -83866.224    4787.2926 
   99850     294.7659   -530.10532    276374.69   -76408.194    7486.0226   -83894.216     4793.011 
   99900     292.8556   -598.95671    276680.37   -76431.843    7437.5078   -83869.351    4798.5185 
   99950    292.88465    -623.2437    276930.06   -76411.399    7438.2455   -83849.644    4805.5952 
  100000    291.04804   -693.43094    277101.45   -76365.783     7391.602   -83757.385    4808.9313 
Loop time of 249.108 on 6 procs for 100000 steps with 8521 atoms

Performance: 346.837 ns/day, 0.069 hours/ns, 401.432 timesteps/s
99.5% CPU use with 6 MPI tasks x no OpenMP threads

MPI task timing breakdown:
Section |  min time  |  avg time  |  max time  |%varavg| %total
---------------------------------------------------------------
Pair    | 72.75      | 128.69     | 194.59     | 439.8 | 51.66
Neigh   | 31.381     | 36.584     | 40.327     |  62.0 | 14.69
Comm    | 7.748      | 77.369     | 138.37     | 606.3 | 31.06
Output  | 0.14812    | 0.15116    | 0.16404    |   1.5 |  0.06
Modify  | 5.1471     | 5.2027     | 5.2674     |   1.6 |  2.09
Other   |            | 1.116      |            |       |  0.45

Nlocal:        1420.17 ave        1454 max        1387 min
Histogram: 2 0 0 0 0 1 1 0 1 1
Nghost:        2010.00 ave        2045 max        1955 min
Histogram: 1 0 0 0 0 2 1 0 0 2
Neighs:        0.00000 ave           0 max           0 min
Histogram: 6 0 0 0 0 0 0 0 0 0
FullNghs:      39493.0 ave       40194 max       38794 min
Histogram: 1 0 0 2 0 1 0 1 0 1

Total # of neighbors = 236958
Ave neighs/atom = 27.808708
Neighbor list builds = 20911
Dangerous builds = 0

# Create data file for import to other simulations
#
write_data data.${NAME}
write_data data.coexist_293K_-500atm_ML
System init for write_data ...

Total wall time: 0:04:09
