LAMMPS data file via write_data, version 29 Oct 2020, timestep = 200000

128 atoms
1 atom types

-0.009178157228805883 6.372568157228912 xlo xhi
-0.03671262891522353 25.490272628915648 ylo yhi
-0.03671262891522353 25.490272628915648 zlo zhi

Masses

1 18.015

Atoms # atomic

5 1 1.5219340892740258 1.872349072889009 1.747744134799188 0 0 0
30 1 1.8369876839081294 11.203568953212526 11.176724840406274 0 0 0
8 1 4.92667786449533 5.1945407080521635 1.6349718664935748 0 0 0
13 1 1.6516269381136437 8.314976839679566 1.9473771589391609 0 0 0
67 1 3.318186868917341 12.699595015955174 3.099784993920893 0 0 0
16 1 4.815898705078329 11.617808023621436 1.175880245157874 0 0 0
3 1 3.075916620097896 0.21668605446929423 3.228149213100262 0 0 0
7 1 4.8203810778214535 2.075121689032823 4.80535393605881 0 0 0
20 1 3.0193461317872656 3.2251686387879634 6.4289820119668954 0 0 0
6 1 1.806287366835561 4.965572255622571 4.787432869505216 0 0 0
2 1 0.2343536218291753 3.6553187922156405 3.1212609091631176 0 0 0
25 1 0.10655572659978496 6.486635881482215 6.01160372591296 0 0 0
11 1 3.174328537262638 6.5922447239233355 3.2440817899746315 0 0 0
15 1 4.812905196587085 8.101257752108882 4.559295276751383 0 0 0
10 1 6.274762444866943 10.083123397037332 3.0439220729138756 -1 0 0
14 1 1.6935382220739843 11.10451044036292 4.774995115177238 0 0 0
21 1 1.5942075089122976 1.7817810881240266 8.25301435536023 0 0 0
27 1 3.1789995789504863 6.221022822725145 9.634505805668518 0 0 0
24 1 4.870750608462048 5.131078600703042 7.874886337491508 0 0 0
29 1 1.8451138318333138 7.91699575492997 8.108836651109197 0 0 0
17 1 6.360185685452484 0.3599424947848002 6.317606809091594 -1 0 0
28 1 3.4833295945543 9.71518219056504 6.549850640309711 0 0 0
32 1 5.016111198046669 11.290729058691806 8.238686302267222 0 0 0
18 1 5.998093576870133 3.2197951135250196 9.531538346239772 -1 0 0
23 1 4.526106440183984 1.291552573028157 11.027541212169316 0 0 0
22 1 1.594829385959614 4.459677606314662 11.13845476136604 0 0 0
31 1 4.930711069566565 7.971454413662043 11.346681633917946 0 0 0
26 1 0.3987788549218081 9.45515991112576 9.73322580140856 0 0 0
1 1 6.263780071094989 0.3396833968051043 0.10883099927437145 -1 0 0
4 1 3.3944000556742675 3.38750127953013 0.34374665279046024 0 0 0
81 1 0.2052648816088336 12.634345975725589 6.518300433482258 0 0 0
12 1 3.152713504445983 9.70703198640083 0.03145105712896168 0 0 0
37 1 1.1693344846746108 1.1376655571652585 14.256429867057184 0 0 0
99 1 3.6398951842317024 12.45178708227026 16.1852374574581 0 0 0
34 1 6.097701184659827 2.9262819883914397 15.930174428663067 -1 0 0
63 1 4.409550923762364 7.917549301892711 23.938281954047625 0 0 0
40 1 4.3585788548015 4.284430244857504 14.20660020762554 0 0 0
45 1 1.6385261376582443 7.443685084466321 14.366608575415297 0 0 0
58 1 6.304780321555198 9.524185266452134 22.36730263641266 -1 0 0
48 1 4.910473138545495 10.997941169645571 14.348543864987759 0 0 0
54 1 1.8718155178683513 4.6960678132087015 23.933101101428974 0 0 0
52 1 3.0092097266475393 3.0442674610649663 19.04789925747248 0 0 0
39 1 4.6289292091278185 1.3384982237734542 17.616449197697285 0 0 0
43 1 3.2479334995024716 5.756121942247154 15.901712342578415 0 0 0
38 1 1.566931374951268 4.5403518019367946 17.5252280735903 0 0 0
42 1 0.01369462567020422 9.385320406514406 15.703913504101235 0 0 0
47 1 4.84584111264552 7.551671357274733 17.287862197660537 0 0 0
46 1 1.541589481657462 11.211522929459374 17.459970323653287 0 0 0
55 1 4.670005323418591 1.9936963857240277 24.068717286413843 0 0 0
62 1 1.5470731100098845 11.097357303088042 23.936188990291015 0 0 0
53 1 1.5727511470147995 1.5428441666088624 20.826138909607913 0 0 0
50 1 6.179666163055401 3.1736716259356608 22.49395187969899 -1 0 0
115 1 3.1751514720980936 12.500312287503638 22.25911991747821 0 0 0
57 1 6.301827206007251 6.245725808308356 19.016121556621265 -1 0 0
56 1 4.743458174200271 4.568937606854042 20.685427174561895 0 0 0
61 1 1.4162152699527875 7.898927552034708 20.7176430537463 0 0 0
60 1 3.224252212363443 9.217621957155655 18.990128175452803 0 0 0
59 1 3.063839179522476 6.38783927782632 22.250445039953355 0 0 0
64 1 4.748915626721054 10.878422167146624 20.57992195093977 0 0 0
51 1 3.3245407865788734 0.0718189981866553 22.4399938496866 0 0 0
41 1 6.345197673139146 5.970805398965203 13.031204823526318 -1 0 0
44 1 3.225785256526311 9.26582368597791 12.787502549719289 0 0 0
97 1 0.31797278472828217 12.709667965791972 13.047646175482674 0 0 0
9 1 0.368824938853507 6.78002388510003 25.24713439572016 0 0 -1
36 1 2.7974351569856526 2.5653281029151467 12.734647046844808 0 0 0
69 1 1.6308810536642082 14.175653233195725 1.4983528443367304 0 0 0
95 1 5.141434188488194 20.213252178869553 10.801180283443015 0 0 0
90 1 0.04833583654863638 22.144710164601214 9.150732990696772 0 0 0
72 1 4.664710498010766 17.429533484902052 1.7114816997848652 0 0 0
86 1 1.6522386613671287 16.94274216811828 11.049606908496084 0 0 0
77 1 1.8220847527044322 21.087961912319784 1.4033198341592579 0 0 0
87 1 5.132802954480507 14.103185128720174 11.381122151657278 0 0 0
74 1 0.14002297317577864 22.592063066019 3.203394242320496 0 0 0
80 1 4.829428547515972 24.412224089343773 1.7127400453773047 0 0 0
94 1 1.6000976971785026 23.276959003404826 10.899416263834535 0 0 0
71 1 4.676419464916236 14.054482802544133 4.859932571903736 0 0 0
66 1 0.010995534263373553 15.933158995327494 3.237048315731284 0 0 0
70 1 1.5752497309862759 17.57714156837345 4.467909058206493 0 0 0
75 1 3.026384118993592 19.166871554728637 2.9629954611944576 0 0 0
89 1 6.246115347675181 18.94665250431047 6.056477493866294 -1 0 0
79 1 5.045133177192177 20.836275705118105 4.502224904533403 0 0 0
78 1 1.6398866175658036 24.211758292110474 4.939474474243393 0 0 0
96 1 4.954489441145899 23.9047623968436 7.927276603062218 0 0 0
92 1 3.286450541258498 22.442326276459802 6.298017923234589 0 0 0
85 1 1.3674880354421008 14.723639549739952 7.810914240014762 0 0 0
82 1 6.094867648912759 15.817183345900862 9.662209316525438 -1 0 0
84 1 3.0673747228064427 15.866774221055435 6.053715038533128 0 0 0
88 1 4.375604157702712 17.618914628919185 7.707005404878202 0 0 0
93 1 1.5913863086880156 20.393416653019734 7.777668875649093 0 0 0
91 1 3.1816739391376725 18.90402459026113 9.452337555512603 0 0 0
33 1 6.167082261647812 24.941133826061886 12.429785203208251 -1 -1 0
19 1 3.108412279171243 25.173351051935903 9.639347506314886 0 -1 0
83 1 3.223511818830143 13.127611057504174 9.73076620628737 0 0 0
108 1 3.241868555453267 21.92533751544245 12.272015426686298 0 0 0
73 1 6.247473551192442 19.16833890862644 0.14217185312286773 -1 0 0
105 1 0.24806081135031022 18.843724141114528 12.67967535428826 0 0 0
101 1 1.907752372300452 14.179914251411654 14.768408864756305 0 0 0
98 1 6.281625027992711 15.906362288097933 15.940415098407007 -1 0 0
104 1 4.870208557231834 17.438165567231437 14.186893300905277 0 0 0
107 1 3.1084783797635107 18.828642243618958 16.041382887845096 0 0 0
109 1 1.7305660948702162 20.48282005601972 14.321690466629539 0 0 0
106 1 6.13881715839195 22.23268387880009 15.814596578191027 -1 0 0
112 1 4.465313968886493 23.33701242845693 14.182690329092065 0 0 0
103 1 4.70899886272243 14.247034119268791 17.928722147738476 0 0 0
116 1 2.902973507762111 16.043012257455736 19.265365794439987 0 0 0
102 1 1.376176492246267 17.56575269635408 17.70926564485805 0 0 0
121 1 6.190697872422078 18.952576708278016 19.309115282596963 -1 0 0
111 1 4.779705221904992 20.428123826181448 17.487015612656478 0 0 0
126 1 1.4512152541855838 24.215587632068264 23.966803666921273 0 0 0
110 1 1.4037051803948526 23.94726679508021 17.20678222753922 0 0 0
124 1 3.0151806717217466 22.231380082830086 18.794742466958425 0 0 0
127 1 4.886814206046617 21.2622956449139 24.055745228061014 0 0 0
117 1 1.5850938123347598 14.262396941237983 20.957084116558626 0 0 0
100 1 3.2658401580802714 15.505618899714785 12.843072124727874 0 0 0
114 1 0.008639066442679422 16.100730814939773 22.55181580138442 0 0 0
120 1 4.519793569924865 17.54195731173951 20.75997680448245 0 0 0
125 1 1.454926537901069 21.0257906895354 20.369083308852034 0 0 0
123 1 3.2322272079740757 19.721355816990837 22.052016716332297 0 0 0
128 1 4.4265645653484516 23.76744678184133 20.673484320787296 0 0 0
119 1 4.855453414239882 14.46135646338968 23.70289514987504 0 0 0
118 1 1.6393316275083207 17.929783582188406 23.724441934382867 0 0 0
122 1 0.08708644023028533 22.651328827370662 22.17383083623993 0 0 0
49 1 0.022543176291847544 25.463830749633658 19.266424470215853 0 -1 0
68 1 3.149910136933946 16.10552725825457 25.253349802991636 0 0 -1
35 1 3.205690805201287 25.16202868424746 15.731813665531249 0 -1 0
65 1 0.09833826571671267 12.962726365101416 25.110120686072804 0 0 -1
113 1 6.187581398018032 12.794307292751622 19.288244701095145 -1 0 0
76 1 3.4627328747714197 22.95027471922419 25.43826818682752 0 0 -1

Velocities

5 0.0006279994335404393 0.0004535029526470101 0.000834108630243275
30 0.0035361969634816626 0.002193744237594062 0.001594096543720162
8 -0.004770901745284789 0.00048108197547190216 -0.00507880662294626
13 -0.0021732232992953925 0.0008951094809665403 -0.001221993749705686
67 -0.005083659659716166 -0.0022686745971232007 0.006431544044979296
16 0.0033029982571091084 0.0058344780483706275 -0.005372283001291735
3 0.004804958824701524 0.00347475871670308 -0.004455533574593668
7 0.0029844890892107485 0.00034194938387644623 -0.0015866440477956003
20 -0.0032008510262252193 -0.0019963799508916167 -0.0002260407270554494
6 -0.0009053012522495778 0.001206091094971505 0.0005858609218274247
2 0.0005300722927298088 0.0032969713975924946 -0.0042446865905781785
25 -3.5688876696086944e-05 -0.004562669199506512 -0.0030876288304934624
11 0.002174852256230821 0.0018794020315669004 -0.0009420760745695497
15 0.004609846324836149 -0.001490854397555781 0.001002040527527724
10 0.0010661526718703672 0.0001410305680368052 0.0012075705100886773
14 -0.0021367533064809967 -0.005948175062365145 0.007301810663177254
21 0.0026184812176194877 6.529156721289809e-05 -0.00010985067300317873
27 0.0007348377996438841 -0.004146893632384936 0.003118250864337174
24 -0.0005736934003346839 0.004712720392630999 -0.0032864806226046597
29 -0.003243489559942717 -0.0035378357739080904 0.002417448830690174
17 0.0010434739021943258 0.0026888572928704607 0.008969044600015828
28 0.0011322987747217311 0.0035057339867588136 -0.0010126899446843047
32 0.003928866660147721 3.2204851843491014e-05 0.006974135145081449
18 0.005535067842264835 0.0001509690166459187 0.004337299295432139
23 -0.0039237966675032656 0.0018613130752183156 -0.0007890124558357848
22 0.004990431827589994 0.007155859391703618 0.0019120916030782122
31 -0.0012878421682159928 0.004177587017939869 -0.005977180152821859
26 0.0006036878578927977 -0.005644932782142405 0.0022796943993127375
1 -0.0044880043201786885 0.006889622975600483 0.00104045630438837
4 0.000332552094731222 -0.007679910499940567 -0.0013888777985347689
81 0.003318981970664367 -0.0015283214858822615 0.001860335495259969
12 0.0004932474325612225 -0.004619307667711647 0.006591475689933122
37 -0.0010514896373791077 0.00029768128588433037 0.005005571444719471
99 0.00023304620983380982 -0.0007594902825115477 -0.0015632845896227884
34 -0.006065048638993152 -0.007229988867603074 -0.002905760854640368
63 0.0033935110780597146 -0.00029394782076491477 0.0007147679337126986
40 -0.001858006683878199 -0.00491295779123423 0.001702603402259506
45 -0.006020195413468971 -0.005451604429154407 0.0015026815208933663
58 -0.0011834682126935358 0.002134301600436721 -0.008829793872021733
48 -0.0070088382942970675 0.0018998242828142816 0.005269101823782307
54 0.005961994603366476 0.0005578943014863145 -0.002475545433266518
52 -0.004126968862852771 0.0013184101953465312 0.00390242979126434
39 0.0047280897813474455 -0.004282495292394415 0.001777492627403713
43 -0.004623736608384662 -0.0014385083703513486 -0.0006055171206784708
38 -0.0023003055410167556 -0.0005247490753454092 9.756371048425106e-05
42 0.000265013042525418 -0.0004631032414928759 0.006004023421491949
47 -0.0026494558667828315 8.73261336074138e-05 0.001737731889821882
46 -0.0028128777203478535 -0.0012561699274701039 0.0008878946736842148
55 -0.0018260462558715555 -0.001418473038610816 0.00133500795383264
62 -0.0043978957492722265 -0.0011619392286043961 0.0006076272149211156
53 -0.002599307174998486 -0.0020248850813822843 -0.005955972414809901
50 0.001756956871235175 0.00643821598775203 -0.004357257504516781
115 -0.0007966989043769918 0.0016506496352941546 0.0036892780342894322
57 -0.007244314576503361 -0.0030177966164218234 -0.0006561520325014437
56 -0.002340176971588548 -0.001695945228071802 0.004200325013886969
61 -0.0022810442713027384 -0.0021551186509253593 0.004398837712537812
60 -0.006627860084791111 0.0024952677994962936 0.0030846350611509472
59 -0.0034041503802960584 0.0017861923137390426 -0.005212756351664125
64 0.0021944680149029528 -0.0018118025737531027 -0.0013394689175073025
51 -0.005111874091987728 -0.0033028518489977066 -0.0028379065299305338
41 0.002220937186317975 -0.002678801166893591 0.00549962258287107
44 0.0002881791894278199 0.006951240395974403 -0.002446378773810004
97 0.007886464155759014 -0.0037881083830973226 0.004345264905476861
9 0.0004507035100541675 -0.008404746709964855 0.002902324364883863
36 0.0005963530520411152 0.00020055548408683832 -0.0021860892634195093
69 -0.0022146351219575625 0.0006359314978559801 0.009673877801905564
95 -9.448308119861974e-05 -0.004802504626248595 -0.006749751347768294
90 -0.002638759459297121 0.002283016431241736 -0.003783794961292173
72 0.0059378312637363385 0.0032778500068773656 -0.0007140080450867548
86 0.002212769925818028 -0.002100821439956858 -0.001455945723983049
77 -0.0012257942540094997 -0.0011111679366822796 0.0026519969492227713
87 -0.0003234555351328609 0.0025850670803451406 0.0005355042693774039
74 0.003719752640403527 -0.002970250743063873 0.002986330830676423
80 -0.0020587046419309404 -0.0002379679034339712 0.0016437219534238179
94 -0.003927545797632693 -0.00498300574885595 0.002813444889481348
71 -0.001013075612781318 0.0009876088491465732 -0.0016358645351755284
66 -0.0036079265638341877 -0.0019856382666077655 -0.0012900836558727908
70 0.0029039668494475783 -0.0021769659751740143 -0.0014832420611174942
75 -0.002164490694178498 -0.00033037320257519286 -0.0006590340751544512
89 -0.004576024952586876 0.0006851576066326424 -0.0009142497358287893
79 -0.0008531384162572933 -0.005195284211301832 0.0031797104271007715
78 -0.002448005652664943 -0.0011171820556019332 -0.004834425951929074
96 0.0070276183815739645 0.0014223691136701542 0.00014049683290462368
92 -0.0002177610185806086 -0.0034975392916464505 -0.002939462527987308
85 0.004486007962049267 -0.00011087870380791142 0.004017100042877648
82 -0.00045487367924575345 0.00019169519662815733 -0.00498556470399642
84 -0.003548047382643511 -0.006599102499204023 -0.007052956282440956
88 -3.14975756563892e-05 0.0024890261381815305 0.003724970478039516
93 -0.0016791669961977137 0.002483461864142498 -0.008547536803526155
91 0.0036435196413477622 0.006861395102162517 -0.0069497335607116425
33 -0.002606655069231234 -0.0023486296670839585 0.00014662555191501805
19 0.004047692029958932 -0.001595838445836058 -0.00508217974132021
83 0.009566349274236765 -5.664195958940267e-05 -4.733637361414764e-05
108 -0.002985617189628086 -0.002277405278352726 -0.004596273159928991
73 -0.0006403288131490328 -0.006684574101088154 -0.0004465859392569887
105 0.00027981100242802705 -0.0013745008344766571 0.0012933993216503958
101 -0.003185531618457321 0.003882986965366709 0.0007470980829344465
98 -0.00018683088616590753 0.0015376053966986948 0.004760690667454363
104 -0.002208261790440955 0.008029717096510422 0.0012049931762998585
107 -0.0033363737865870716 0.002179656628498803 -0.003175689299057602
109 0.0058021911707720275 -0.0008623161288197739 -0.0015126302044216485
106 -0.003445783095797337 0.007846406719610823 -0.001920042121001441
112 0.003968194062441694 -0.007016855245594528 0.001945340589853358
103 0.003138543596884507 0.001186044390663465 -0.0026145221430045502
116 -0.002677742806723711 0.0023192840287255254 0.0016644239544678216
102 -0.0005094693383026573 0.0032210130947828834 -0.0012025588163820382
121 0.0007540944824982171 -0.0029166850892871667 -0.006904121960946189
111 0.0020401061622575475 0.001879643453675383 -0.00021855182406597674
126 -0.0014306443167340262 0.0012541871762295558 -0.0009674984135287981
110 -0.007061081704089478 0.0029772739973974133 -0.005285494143597033
124 0.0026149072563352448 0.0017827048269879941 0.002265044926935144
127 0.0009388066296243729 -0.0065724215750236625 0.0016713229122827201
117 0.012600847127169449 -0.0020523364319048705 -0.000910047163520636
100 0.0010572022216150895 -0.002713699303096239 0.002176991943808442
114 0.0028115545522245885 0.0033741264650839053 0.004683410872064012
120 -0.007118247626494893 0.005549800706331066 0.006785899214993236
125 0.0007270097496755074 -0.004178995034500796 0.0032039841515466845
123 0.005150677263431198 -0.002096126238545427 0.003270267999715518
128 0.0005939352463222207 0.005177652857550765 -0.0019684764040371625
119 0.0007338836327588506 0.0002873529698851449 2.3237353822994915e-05
118 -0.0006651454109293802 0.005541500669591395 -0.0031199473490189996
122 0.002475512257006885 -0.0009453505773259521 0.0032478587818841036
49 0.003689212507529507 0.001791439203724331 -0.0012764997214426066
68 0.0015189739096621291 0.007916452363359196 -0.002746376217036391
35 0.004178937509727002 0.0008146683134275011 0.00017509570213901195
65 -0.002055159156442987 0.005372225344865871 0.005172254192143959
113 -0.0007915059006970293 0.009542408708900477 -0.00932086081742207
76 0.005169611671315267 -0.0022140719477486558 -0.00546412871400438
