LAMMPS data file via write_data, version 29 Oct 2020, timestep = 200000

800 atoms
1 atom types

0.004862605374114537 25.44869739462595 xlo xhi
0.006078256717065855 31.810871743284373 ylo yhi
0.006078256717065855 31.810871743284373 zlo zhi

Masses

1 18.015

Atoms # atomic

5 1 1.9021653082073793 1.4485185961381515 1.376012106882261 0 0 0
2 1 0.17879563375226826 3.1436809193828794 2.97801093988263 0 0 0
165 1 5.966662188364683 0.10070732719331763 12.304664365818043 0 0 0
210 1 16.20355576344187 0.20915475348944543 15.786078180003791 0 0 0
13 1 7.958499298222165 1.283775753971935 1.572000178273392 0 0 0
21 1 14.597061219131696 1.392773010054907 2.060392679714538 0 0 0
105 1 18.94745381203911 0.3942432869533405 6.649812582835638 0 0 0
11 1 9.555264755727423 0.1224699689084153 3.1795498863020653 0 0 0
29 1 20.787834478043766 1.6293599010460666 1.8814680853455004 0 0 0
489 1 12.626629917755151 15.875246300273925 9.538940157912725 0 0 0
8 1 4.916458093783025 4.687538276471094 2.1708204806821234 0 0 0
60 1 22.20615714263854 9.62679879202482 0.16790060408693133 0 0 0
16 1 11.02131130846133 4.215231997946884 1.3694363755311911 0 0 0
24 1 17.210811830707968 4.855122002580733 1.7651130914155937 0 0 0
26 1 19.09107198671608 3.1475878738833925 3.450466562588312 0 0 0
32 1 23.681592283782543 4.731536888817192 1.7025239578941846 0 0 0
37 1 1.4222149686737933 8.014811286033986 1.5348203143911763 0 0 0
45 1 7.836135843237828 8.054662470307132 1.5348110772352856 0 0 0
43 1 9.762997335607043 6.463811743236215 2.830006175149619 0 0 0
53 1 14.04135855482744 7.870620359791653 1.7615994882032702 0 0 0
61 1 20.392967765390544 8.139955955743217 1.8271923987742156 0 0 0
59 1 22.16286907009983 6.6407514991187195 3.345676027457495 0 0 0
567 1 22.361448151301754 15.901746726264673 13.004910794085632 0 0 0
34 1 25.373471490086157 9.85822643516787 3.3477915484756764 -1 0 0
226 1 16.15435914530104 6.461780208051643 15.810429196351663 0 0 0
40 1 4.622663944221242 11.214654383847053 1.172731429228188 0 0 0
42 1 6.227809452117273 9.49489969970419 3.0756763927714443 0 0 0
48 1 10.798475491321687 11.097930309967342 1.4994097296386355 0 0 0
50 1 12.500749875461429 9.715359613549762 3.2215620864356436 0 0 0
493 1 18.7356205534072 15.840119800747821 9.462462031375708 0 0 0
56 1 17.740038195341878 11.221138342001009 1.8441133847620406 0 0 0
64 1 23.75145947902729 11.350106574652944 1.629024666789017 0 0 0
67 1 1.6929495487733168 13.993140023108953 1.28485701773735 0 0 0
196 1 7.9515882300325025 14.051186438608555 14.277382387577072 0 0 0
71 1 8.223195806880263 14.615497159958776 1.102289090168764 0 0 0
70 1 9.234179480543995 12.796750592011756 3.0504969751878033 0 0 0
74 1 16.024503212017578 12.86731347308596 3.2491954433717183 0 0 0
75 1 14.378960449851629 14.475024548727736 1.7077749957544597 0 0 0
233 1 2.848015541844824 12.297539092403408 15.788913501194637 0 0 0
79 1 20.490766014049488 14.677718742318945 1.6987234386659575 0 0 0
41 1 6.284074364464299 6.325917370039077 0.17828588176984717 0 0 0
7 1 5.022266683805182 1.5491280268256566 5.189759784750183 0 0 0
20 1 15.768286046565734 3.1656160824112867 0.07083073587949476 0 0 0
15 1 11.09467421390814 1.491692004313622 5.123704873885705 0 0 0
213 1 19.26195270673914 3.0078353046549617 15.764197298914155 0 0 0
23 1 17.51273867547246 1.7933917353244266 4.8993812177211264 0 0 0
199 1 18.87634737304918 12.96154264630321 12.952752632391167 0 0 0
197 1 12.76126585111303 12.52472389046958 12.816043775482486 0 0 0
31 1 24.204976327135125 2.0582316247963304 5.1682026768476845 0 0 0
108 1 22.346895451055413 3.422898712955208 6.788248460990785 0 0 0
6 1 1.8405270431532557 4.635920462684819 4.640106860217357 0 0 0
113 1 0.2435307506705223 6.417010100382723 6.118042153280234 0 0 0
35 1 3.1732488698249903 6.515579759849399 3.081959288552035 0 0 0
10 1 6.786060715234571 3.015900317145 3.288004053752886 0 0 0
14 1 8.210207524376386 4.806007954477364 4.6893717203363465 0 0 0
18 1 12.573947598258748 2.8028822671200815 3.3415944450207427 0 0 0
22 1 14.088992652468116 4.6452616253039345 4.759810143023607 0 0 0
100 1 15.839763691140824 3.461585390747758 6.4016824032345205 0 0 0
30 1 20.67355227948099 4.886970089067991 5.069392878762726 0 0 0
39 1 4.697183443095573 8.025174342233662 4.7719115324549835 0 0 0
129 1 12.276539494163401 6.520618425146027 6.5320245765064495 0 0 0
47 1 11.0804929894244 7.952408641274892 4.945200132074712 0 0 0
51 1 15.529830592060144 6.333793615268069 3.376567256225701 0 0 0
55 1 17.248201175896224 7.613469291708444 4.95725459537075 0 0 0
63 1 23.95970732878134 8.09005813381525 4.832624127848707 0 0 0
116 1 3.2640894864585412 9.770834881505804 6.376391535483161 0 0 0
38 1 1.6809989666278604 11.473200771521025 4.841887607094334 0 0 0
149 1 6.306981552278076 12.870860552042299 6.349442514547643 0 0 0
46 1 7.641876349300403 11.160910295266493 4.6060864947253615 0 0 0
132 1 16.004674659815436 9.858624987665523 6.425493890579271 0 0 0
54 1 14.371776347989819 11.032421173791253 4.610425607197383 0 0 0
58 1 18.85003736350073 9.39286295725837 3.8173460180058494 0 0 0
62 1 20.529138487942934 11.070154912693297 5.22691538997274 0 0 0
66 1 3.220070550210982 12.638394160844248 2.9989934514750205 0 0 0
68 1 4.9125665047898055 14.326041322731749 4.429291750154069 0 0 0
72 1 10.947179293796077 14.38049766250635 4.7394742247334705 0 0 0
200 1 20.73022850989504 14.29829988641172 14.682038521242342 0 0 0
157 1 19.04135601391211 12.976240638903837 6.736655765461664 0 0 0
76 1 17.287772071317544 14.683633510159945 4.990739088768978 0 0 0
78 1 22.13512326179235 13.094806039904869 3.2235513374142926 0 0 0
80 1 23.780150119649537 14.521375321125765 4.985674655574245 0 0 0
85 1 1.6226277382584344 1.5710153936293254 7.981531873091114 0 0 0
84 1 3.1038229967100692 3.0322068819735652 6.393769078386651 0 0 0
93 1 8.143635547233869 1.5685006566756354 8.063846429560234 0 0 0
90 1 6.455278182674873 3.1331663733735544 9.61132925498902 0 0 0
198 1 14.323337664393735 14.326068908864801 14.406944481720437 0 0 0
401 1 0.06772372390540865 15.564999618930203 3.0375463930106763 0 0 0
101 1 14.546717212026293 1.6912148074541755 8.016919025104608 0 0 0
98 1 13.019795418309759 3.513351282473497 9.871875065668975 0 0 0
184 1 11.042668357638991 11.308764150298897 14.163880494091153 0 0 0
109 1 20.880579937754923 1.6501669881041316 8.300527665506378 0 0 0
169 1 12.891968930466382 0.13972918071478846 12.796209960812647 0 0 0
82 1 0.27409947228882015 3.1610896010626206 9.668817746142976 0 0 0
115 1 3.356401789226295 6.16615189462762 9.175338688374953 0 0 0
88 1 4.846577926499891 4.654516661176497 7.747589299046531 0 0 0
92 1 9.506583010306874 3.2928591831693823 6.565136641106005 0 0 0
96 1 11.03809018472795 4.680646562988548 8.201833319677368 0 0 0
104 1 17.396016600735766 4.854897369085215 8.246137151504453 0 0 0
112 1 24.313470078703816 5.009910064015254 8.072706678618058 0 0 0
117 1 1.8207155030135644 7.947731562456507 7.930130085140299 0 0 0
121 1 6.31623804808329 6.139264538328811 5.941089486325341 0 0 0
125 1 7.962366876264182 7.695827321961915 7.574181792089154 0 0 0
123 1 9.47768424542461 6.396475250546723 9.634606902024002 0 0 0
133 1 14.208160659543202 8.008566623645606 7.662399313610449 0 0 0
131 1 15.893417342648897 6.659333609658716 9.603136599972403 0 0 0
137 1 18.946555304437226 5.996625977350159 6.701296654507072 0 0 0
141 1 20.59186018444042 7.995270017150804 8.285601575798328 0 0 0
139 1 22.277221203917 6.2709737735472775 9.821603154198295 0 0 0
114 1 0.3617592235257169 9.389036236344637 9.513014355668133 0 0 0
120 1 5.103028827778069 11.10637234280258 7.957176674981294 0 0 0
124 1 9.52326266771234 9.625127705769462 6.168877041366139 0 0 0
128 1 10.793207817786602 11.323201829008093 7.430929599726991 0 0 0
136 1 17.418379913252775 11.211651944341659 8.341286349650712 0 0 0
138 1 19.114681897167426 9.972047033449103 9.722882128488012 0 0 0
140 1 22.431939786431656 9.610205205212301 6.848589890886951 0 0 0
144 1 24.064778602272852 11.049448503076015 8.146835162663931 0 0 0
145 1 0.1841601468987193 12.870752488751084 6.423103248755078 0 0 0
147 1 1.6792157145270037 14.648810118543969 7.952488376976702 0 0 0
151 1 8.041774208514278 14.358870347860712 7.834193939677059 0 0 0
153 1 12.830946789567582 12.726446977548889 6.056448601964951 0 0 0
603 1 6.098021008829303 15.62464219352917 15.806940108199607 0 0 0
155 1 13.980476256478973 14.383306002196798 7.902331535279643 0 0 0
159 1 20.647194648701678 14.431803774306905 8.168379866863685 0 0 0
195 1 6.410686723590431 12.622914378364806 12.521965412709237 0 0 0
87 1 4.487830690773336 1.7543626465185016 10.864488804513819 0 0 0
95 1 11.255438213047391 1.4933933427268458 10.74247780571884 0 0 0
103 1 17.60670982279368 1.774024602813289 11.280228379457336 0 0 0
27 1 22.45032631132791 0.1840692894954249 3.7128407459878154 0 0 0
111 1 23.90087632767748 1.334939982690536 11.10808293705751 0 0 0
481 1 0.15733357391962235 15.877540267783777 9.704162672432615 0 0 0
86 1 1.7414543524272927 4.964476507307071 11.064011963775595 0 0 0
94 1 8.022223688548166 4.832689228409348 11.164584916585603 0 0 0
102 1 14.10797371925189 5.271060694517273 11.365528719863327 0 0 0
106 1 19.076347649155405 3.2854044678026755 9.584080093247922 0 0 0
110 1 20.59522291624215 4.777195303793186 11.501853296937702 0 0 0
174 1 22.17674165760659 2.8205813335827687 12.677477737438123 0 0 0
177 1 25.2386634499199 6.158896508843405 12.888236904625147 -1 0 0
119 1 4.636173938535982 8.011344443711186 10.887227271480015 0 0 0
182 1 9.54584075393847 9.522869039501325 12.868643701499186 0 0 0
127 1 11.115716259707641 8.342450295083921 11.044054949680714 0 0 0
130 1 12.655096703435023 9.836947205432205 9.0917922973477 0 0 0
135 1 17.830504366534722 8.092875298304875 11.097251440699722 0 0 0
189 1 19.193631056962758 6.375756430477073 12.936402740894525 0 0 0
190 1 22.62671348119767 9.690681860811694 12.628211371864156 0 0 0
143 1 24.131758584304297 7.760158145677891 11.196259664428487 0 0 0
118 1 1.5359833940254897 11.234086135347582 11.02913972118962 0 0 0
146 1 3.3206260316500282 12.906177524756217 9.511277298008611 0 0 0
122 1 6.57192686740353 9.326543871112996 9.384546908839571 0 0 0
126 1 7.917682304313742 10.970259896603519 11.081317357475717 0 0 0
134 1 14.266520178871264 10.897995239513632 11.13303605962083 0 0 0
142 1 20.35811363173652 11.222252188181685 11.534156893920818 0 0 0
158 1 22.258180510285946 12.460164548357385 10.035325157365476 0 0 0
205 1 6.250205558637841 3.066981709240866 15.45183582255391 0 0 0
148 1 5.129286578278678 14.450008480237232 11.08391632384047 0 0 0
180 1 4.8510543247479285 10.969960256324155 14.295497439339947 0 0 0
150 1 9.4412489353187 12.464446773538807 9.637894302868085 0 0 0
152 1 11.266050567521008 14.354986452459272 11.248784010923044 0 0 0
154 1 15.667460612079651 12.637978114885316 9.713489677606816 0 0 0
156 1 17.274046396967186 14.414565420098274 11.08921344937836 0 0 0
160 1 24.01619259125306 14.24078228155084 11.412792054623285 0 0 0
163 1 1.3238342211563738 1.271096727410822 14.322355796835236 0 0 0
162 1 3.0250925941214017 3.201564231640844 12.828731297610135 0 0 0
167 1 7.797430151326452 1.3927817024100175 13.999685529785655 0 0 0
171 1 14.449103723041826 1.9311579948358828 14.053082067976588 0 0 0
194 1 1.8569938707657319 14.142160940293838 14.208743470155182 0 0 0
175 1 20.550980323326566 1.1436667962938694 14.281747025423197 0 0 0
192 1 23.802022068700104 11.162766113308953 14.673323338678513 0 0 0
81 1 25.22552276825229 0.1687213851089672 6.575437450899307 -1 0 0
164 1 4.657248813783346 4.951457614373919 14.137279759128726 0 0 0
166 1 9.328335414695497 2.7143354385209357 12.233875337287325 0 0 0
193 1 0.015332331195373784 12.611385089822045 12.869913883913195 0 0 0
168 1 10.981260700818373 4.766676298189206 13.84014944362515 0 0 0
185 1 12.423864100198346 6.870263967694376 12.951810061087683 0 0 0
170 1 15.930305932297035 3.6130259127973368 12.505568724185691 0 0 0
172 1 17.62390610478308 4.778670215372518 14.273845256278774 0 0 0
176 1 23.919561696653147 4.215879841958597 14.410612971946321 0 0 0
179 1 1.692947831273307 7.894319206540347 14.253671299179118 0 0 0
181 1 6.0399815476663745 6.366822503344447 12.469442429540239 0 0 0
178 1 3.3307281919516263 9.849625205319986 12.566111011016904 0 0 0
183 1 7.5771436344607945 8.069634086554787 14.025275386374814 0 0 0
187 1 14.475709063574996 8.373733508546854 14.110822144477787 0 0 0
186 1 16.187428075228038 9.742491033764047 12.441597733138044 0 0 0
191 1 21.031079415008232 8.055489253841566 14.475669156879515 0 0 0
188 1 17.548163158193308 11.098482955616985 14.34414299803064 0 0 0
563 1 9.51175926629187 15.776203053807361 12.7464434796802 0 0 0
49 1 12.463616691695746 6.3183380319485405 0.0962620927430493 0 0 0
73 1 12.782089419382135 12.66459848645104 0.2355354433671206 0 0 0
225 1 12.543403987151411 9.757808704173689 15.61669370561372 0 0 0
57 1 18.675198875780843 6.649657308409082 0.3726642226914476 0 0 0
52 1 15.797249936839503 9.483151809311687 0.4404525518972502 0 0 0
97 1 12.683298552294902 0.3135388715693987 6.7148151889293635 0 0 0
25 1 18.864468296275327 0.19226516556444934 0.1272585687078385 0 0 0
222 1 9.195787522164759 6.308769368080051 15.53411549862876 0 0 0
209 1 12.716299183573689 3.13440176630941 15.496354814849255 0 0 0
607 1 18.898088991352893 15.841372315742314 15.821752925389598 0 0 0
402 1 3.574379854009353 15.655743230901509 0.07033344086501359 0 0 0
1 1 25.37189029389752 0.027179659771363163 0.09627819498614087 -1 0 0
4 1 3.552546896626383 3.152469436485543 0.034446335994012145 0 0 0
244 1 3.297503468524676 2.8302979700233415 18.84122161201296 0 0 0
204 1 4.696428426233971 1.398439295263701 16.829147457164467 0 0 0
653 1 19.41196577132708 15.793040723682351 22.054404405300964 0 0 0
208 1 11.157728125421551 1.5504415451951201 17.209834284564558 0 0 0
44 1 9.307833095605092 9.363213575333909 31.505058739597153 0 0 -1
212 1 17.734064738369383 1.721077332806357 17.50207134627339 0 0 0
268 1 22.215883190217973 3.245276765861615 19.01808492183691 0 0 0
65 1 25.435075484668833 12.322288038034307 31.739996418961546 -1 0 -1
216 1 23.99101923920723 1.706471225943319 17.779284156833775 0 0 0
203 1 1.2765453564072053 4.6076078342638045 17.479129508738012 0 0 0
347 1 22.557816967375818 0.377429431077646 28.983430599054685 0 0 0
281 1 6.179418985432039 6.172587768154167 19.042337177362626 0 0 0
207 1 7.645707333178097 4.7755757502441405 17.39160693650286 0 0 0
211 1 14.327343495018225 4.5989774859843475 17.13811841522911 0 0 0
260 1 16.101475868851328 3.4747428015507484 18.943982953800287 0 0 0
297 1 19.10464287793941 6.469364540351139 18.863181649855242 0 0 0
215 1 20.756008113029043 4.870460646798077 17.41039514025963 0 0 0
220 1 4.998526153050683 8.058612707305574 17.672243621191356 0 0 0
729 1 12.763163852765674 15.733847160448668 28.12898014556272 0 0 0
284 1 9.431861896832835 9.626654704748555 19.319966348142515 0 0 0
224 1 10.860943762110349 7.81512039688407 17.241136417975547 0 0 0
725 1 6.392676268472785 15.753720834097752 28.522927689923414 0 0 0
228 1 17.4492663788737 8.054663029225978 17.473589592415692 0 0 0
292 1 15.530717665468948 9.350303189944249 18.79645704808989 0 0 0
243 1 3.21504112818997 0.016585848029627925 22.24686558156929 0 0 0
232 1 23.917969677813023 7.723229142238089 18.074667226287794 0 0 0
219 1 1.2208378967573743 11.11960361252236 17.612034337507282 0 0 0
223 1 7.8628285260935 11.065022951656063 17.736506324788067 0 0 0
722 1 3.0610317920558163 15.673830567355221 25.510920106090218 0 0 0
227 1 14.22460153799653 11.216352532029314 17.249857086996847 0 0 0
313 1 12.651283285983371 12.537311929988336 19.30433246956907 0 0 0
321 1 25.44123180207247 0.1516748036090224 25.476076393785043 -1 0 0
231 1 20.85624067611837 10.955569013730493 17.586137362747102 0 0 0
374 1 14.43936459831119 11.298576284828147 30.46024187887997 0 0 0
366 1 7.86921730163863 11.191156879455862 29.962259784752163 0 0 0
234 1 4.219100629796577 14.019591123538277 17.48686833812166 0 0 0
386 1 3.1888277435788237 12.498964021346255 28.86721079769326 0 0 0
236 1 11.26820776893579 14.094443560901398 17.335236289005564 0 0 0
601 1 25.276791773716145 15.55567670678733 16.01227093201127 -1 0 0
12 1 9.430744465430026 2.629004652379127 31.61992498621136 0 0 -1
367 1 11.006491270246196 7.794483407596233 30.210048275567402 0 0 0
238 1 17.822636006586578 14.26597954198271 17.678242754751146 0 0 0
396 1 17.310632695233284 14.475104423273972 30.34799714323283 0 0 0
240 1 23.792024058668297 14.453632094846904 17.890089453507464 0 0 0
245 1 1.626540170929714 1.392146219268744 20.49745140156287 0 0 0
253 1 7.951304566417673 1.6917355406206092 20.291923102073213 0 0 0
358 1 1.4674704657294944 10.46786634557504 29.735895953952188 0 0 0
261 1 14.782592280218084 1.8863295398563587 20.4555291247924 0 0 0
400 1 24.02627869123276 14.426396279562434 30.10843210021816 0 0 0
269 1 20.905978924871807 1.8335199215627571 20.613956293571313 0 0 0
267 1 22.10827759577744 0.25850169045867744 22.24708686303503 0 0 0
248 1 4.742998044883831 4.735332921521194 20.579938695339578 0 0 0
275 1 2.9818958184588484 6.1508648463104665 22.190126981745934 0 0 0
252 1 9.594978810255752 3.2883376215193403 18.541351906246774 0 0 0
256 1 10.990464735906501 4.779554485289659 20.71983656741785 0 0 0
289 1 12.805273055078109 6.221241689190776 18.607099550898603 0 0 0
264 1 17.697899064985666 4.831916162045875 20.543935683551844 0 0 0
266 1 19.2675123076469 3.062193155101359 22.105479187521333 0 0 0
272 1 23.830820004240298 4.806243075300444 20.725546995162986 0 0 0
273 1 0.17010677030460067 6.285150567045946 19.603429871243065 0 0 0
277 1 1.9274290348731515 8.11930809419829 20.750794812693528 0 0 0
276 1 3.0949660884056236 9.60270897400252 18.819186642085917 0 0 0
274 1 25.409497288491412 9.331105191438434 22.640310931614195 -1 0 0
285 1 8.070618328926418 7.421171717195714 20.80107939066359 0 0 0
293 1 14.054810221106845 7.937422357552094 20.786788665479214 0 0 0
301 1 20.47045828558425 8.194375936457241 20.839600838780648 0 0 0
300 1 22.21463513154519 9.51589045126729 19.34914991435255 0 0 0
299 1 22.185576487687413 6.792138080368762 22.302946777095883 0 0 0
305 1 25.199300107338225 12.613360036693388 19.510241323549053 -1 0 0
306 1 3.3023666883468685 12.31521623022752 22.34564078323971 0 0 0
280 1 4.846631904372819 10.666643269700035 20.863624599970784 0 0 0
288 1 11.070109867839406 11.069210704107094 20.828648035351456 0 0 0
310 1 9.132310845215118 12.697498713765544 22.087194466800703 0 0 0
296 1 16.851138989107234 11.256312104794475 20.48667007600995 0 0 0
317 1 18.99418766121733 12.414991063683532 19.129048966838972 0 0 0
304 1 23.78117288040069 10.976209393532022 21.10870676728446 0 0 0
307 1 1.3714419974330845 13.887476082024827 21.09535172395917 0 0 0
309 1 6.241370041729873 12.456832197988044 19.38140509945105 0 0 0
229 1 19.341170637445423 9.532560207258939 15.919342231098147 0 0 0
311 1 7.8214244770902495 14.503210296263742 20.550951907247658 0 0 0
315 1 14.225613034277295 14.191058253756935 20.865463678419275 0 0 0
645 1 6.292113320270698 15.847772216823234 22.320039933999325 0 0 0
314 1 15.435432718300595 12.735391154207916 22.525991664724266 0 0 0
235 1 9.505507626637243 12.531939692169924 15.920436761625195 0 0 0
319 1 20.917616356671733 13.914102344871791 20.736208632051337 0 0 0
237 1 15.990550762215436 12.688867132750845 16.014668698482787 0 0 0
247 1 4.687031517231418 1.5184516412676603 23.862136647322792 0 0 0
250 1 6.191340158123795 2.892205883382756 22.034454887948428 0 0 0
255 1 11.218905826913376 1.5962180790742384 23.438202817177647 0 0 0
258 1 12.821685612528864 3.02297083478833 22.02381553795108 0 0 0
263 1 17.55036831289407 1.9995054340899887 24.11738243083071 0 0 0
340 1 15.833680728682122 3.290568200637714 25.76903409818626 0 0 0
271 1 23.6977550711588 1.7998796991362067 24.042665459957824 0 0 0
246 1 0.9805493736518051 5.063129608079656 23.72646052416853 0 0 0
324 1 2.850979409969336 3.3587713387966023 25.11726557298416 0 0 0
254 1 7.875705911263219 4.482260003404521 23.894429846966638 0 0 0
361 1 6.343977368213941 5.987397561047527 25.461145073550057 0 0 0
283 1 9.871738790708003 6.294617073520811 22.563597944997852 0 0 0
262 1 14.310786052415546 4.504313977527029 23.860253146920222 0 0 0
291 1 16.033060324178344 6.484409944227115 22.287972414600965 0 0 0
270 1 20.555928803706696 5.0229391075629435 23.841933558993688 0 0 0
242 1 25.286209363725035 3.041079881084711 22.10818147744628 -1 0 0
282 1 6.434680124992058 9.168052793510084 22.508612449822046 0 0 0
279 1 4.577347304933979 7.5817506162225925 23.91907947087762 0 0 0
287 1 11.016929201026125 8.062643491206963 24.43062432916564 0 0 0
295 1 17.31960995636718 8.260220311321513 23.88918766646342 0 0 0
298 1 18.728272915407597 9.732485525364911 21.999373836263253 0 0 0
303 1 23.585673099077244 8.256002514789918 23.907456531016678 0 0 0
278 1 1.45577772975861 10.99783412949323 24.214400133680975 0 0 0
286 1 7.79484351391877 10.96049103196496 24.043454800236866 0 0 0
389 1 6.342864786708395 12.74231107422209 25.480916199046014 0 0 0
290 1 12.403016239768313 9.329894529920853 22.362268721597182 0 0 0
364 1 9.286911505654208 9.647476109422664 25.99384550977922 0 0 0
294 1 14.312840374979539 11.066677360677136 24.0322380552647 0 0 0
372 1 15.837127773291858 9.574167182457936 25.550734379146526 0 0 0
302 1 20.294396977555138 11.173977261495448 23.796152343562476 0 0 0
318 1 22.36883599786853 12.802353098622744 22.65181476772357 0 0 0
385 1 25.33700262479272 12.770654138215018 25.53010514356579 -1 0 0
383 1 23.109343283995607 7.7962624811116665 30.30111173203803 0 0 0
308 1 4.549054102707149 14.00261318194042 23.97373271709248 0 0 0
312 1 10.967709634517997 14.022772323555017 23.808958404317906 0 0 0
393 1 12.826800475221528 12.599974642982735 25.526076738848012 0 0 0
316 1 17.729622816091513 13.93409915019215 23.703029509147257 0 0 0
397 1 19.123979333479667 12.603659403752443 25.52030990741506 0 0 0
320 1 23.894308573073392 14.496513938836355 24.068741456637873 0 0 0
345 1 18.847555929965004 0.1949486923708206 25.68323010748501 0 0 0
325 1 1.2273021335679541 1.915092205843619 26.95263162897932 0 0 0
354 1 24.537153990397993 9.422506929461356 28.58860322956925 -1 0 0
332 1 9.96844522529173 3.064501091823647 25.28489627234591 0 0 0
333 1 7.981646847382632 1.4251677693349816 26.92953036210895 0 0 0
330 1 5.951968642762706 3.0979913736644704 28.19825530175256 0 0 0
341 1 14.459463832415206 1.4767431696118112 27.033733188134782 0 0 0
349 1 20.76633286802003 1.5779303077942761 27.042653358223973 0 0 0
348 1 22.32503132309138 3.4210589516127405 25.587146799172302 0 0 0
359 1 4.54490578101493 7.555785484722406 30.25015613044581 0 0 0
322 1 0.16279711443913203 3.543504218147746 28.573532847012302 0 0 0
328 1 4.3728304380302765 4.821072520741614 26.85228661599183 0 0 0
355 1 2.9450832683595585 6.079715162234148 28.512896779319412 0 0 0
336 1 11.043834188113816 4.548233633469323 27.17596588193298 0 0 0
344 1 17.335224732630586 5.109304791952103 27.34798015469125 0 0 0
371 1 15.37441288917223 6.465725871960369 28.871696676853794 0 0 0
346 1 18.892432716591827 3.461709596498571 28.772131880250207 0 0 0
377 1 18.934211566939517 6.611391182751724 25.326360963764635 0 0 0
379 1 21.699235267825202 6.314965250897746 28.40692007049733 0 0 0
352 1 23.983140206527334 5.038484918043203 27.00787109410851 0 0 0
356 1 3.010686011337812 9.470759031084972 25.629296494391248 0 0 0
357 1 1.301195817319307 7.775072059019894 27.328164852492968 0 0 0
365 1 7.72305789982482 7.748532259358658 27.0334214573112 0 0 0
363 1 9.246742745514277 6.066394117559699 28.789397933331507 0 0 0
369 1 12.637100936604307 6.295906977021671 25.68480228904943 0 0 0
373 1 14.313440081155493 8.151881097094927 27.100245544147967 0 0 0
381 1 20.221507823838593 8.523441162480266 27.275276776138675 0 0 0
353 1 25.233491923251393 6.773091518871038 25.345196832288863 -1 0 0
380 1 21.81504739605172 9.83991985638419 25.563053039020957 0 0 0
360 1 4.683821962402966 11.134506959840657 27.1001704525979 0 0 0
362 1 6.343148415392362 9.421603272442454 28.613276551567807 0 0 0
390 1 9.533381838655389 12.8095519526646 28.62636716684795 0 0 0
368 1 11.41465295853885 10.954133550649113 27.221000480827165 0 0 0
370 1 12.87223128065746 9.486257722310084 29.016143819860012 0 0 0
376 1 17.13191333016431 11.406184044829097 27.066106153953392 0 0 0
384 1 23.565120147598268 11.26343819766859 27.110998272609955 0 0 0
387 1 1.7718903242247444 14.01878669097023 27.225147707700543 0 0 0
382 1 20.67645006471213 11.116574509081984 30.40311148510761 0 0 0
391 1 8.236072935072176 14.260078203879644 26.751987167794262 0 0 0
394 1 15.752013053345838 12.993861006270738 28.79089605732345 0 0 0
395 1 14.473837338928693 14.322516971123754 26.770894118600268 0 0 0
399 1 20.20374511733819 14.284270414683075 27.061877349930704 0 0 0
327 1 4.8539286479691865 1.2213079374884828 30.13514835846364 0 0 0
335 1 11.422125134169976 1.26600323184255 30.27649296779356 0 0 0
378 1 18.58264792646978 9.979047101661607 29.015519014825557 0 0 0
343 1 17.29942392021062 1.5425329048898389 30.172240410278533 0 0 0
642 1 2.6949971297526303 15.615970647529439 19.189114796183084 0 0 0
351 1 24.11133695554031 2.0238122441458275 30.441758092250836 0 0 0
326 1 1.6956752328405145 4.80805913859327 30.509061503892994 0 0 0
334 1 7.809202960219114 4.588680005878413 30.241454988790615 0 0 0
392 1 11.289531198503076 14.25091359278794 30.252214473524482 0 0 0
388 1 4.947166507582365 14.167461617313455 30.22185419863895 0 0 0
338 1 12.71311178751062 3.0098044570063918 28.45480340266765 0 0 0
342 1 13.829122888113025 4.731115188143934 30.327155913506246 0 0 0
375 1 17.078008454333144 8.013702321534646 30.547785642274718 0 0 0
350 1 20.192686740983564 5.182975779657142 30.400146015344724 0 0 0
398 1 22.162918394158087 13.044206558590824 28.59822710854884 0 0 0
650 1 15.91258076339154 15.619771528149856 19.408794263013277 0 0 0
218 1 3.3754782395685705 6.417538881038166 16.098822966368687 0 0 0
265 1 19.401718778360273 0.3081574259252608 19.16644647412788 0 0 0
257 1 13.011315274901657 0.16467159759019506 18.91506091438734 0 0 0
649 1 12.504838255959381 15.829128102744079 22.4631517641199 0 0 0
605 1 12.950210016388192 15.791773155110036 16.11285027741684 0 0 0
259 1 16.251770490443246 0.3151548570428861 22.25732405011449 0 0 0
337 1 12.741463006266825 0.38995655428746523 25.283166276570938 0 0 0
641 1 25.30476321577724 15.881558960656072 22.476937691953182 -1 0 0
239 1 22.12936420974148 12.779530958161256 16.219650874078475 0 0 0
36 1 3.0257428491916065 9.471962439885873 31.61856431127866 0 0 -1
249 1 6.148750794692941 0.026592887279839772 18.748515970999506 0 0 0
28 1 21.79522666518516 3.415235479773032 31.698313148241198 0 0 -1
230 1 22.713659761411694 6.192148337106612 16.08338704454267 0 0 0
217 1 24.987941051250292 9.249227824585839 16.052311849644752 -1 0 0
646 1 9.58789787497337 15.874771918660645 19.02879728030939 0 0 0
77 1 18.980131286881225 12.818369840230332 31.647650973082907 0 0 -1
221 1 6.318484219629621 9.504687021337196 15.997452626128254 0 0 0
69 1 6.647968216178037 12.734410488834463 31.739213084030133 0 0 -1
33 1 25.321750062870482 6.375945664198935 31.80547574325281 -1 0 -1
201 1 25.42517498043122 2.909523794935469 15.991223404507977 -1 0 0
404 1 4.708476411634466 17.543227387359053 1.5014187811206179 0 0 0
490 1 15.219573770380082 16.01634675985307 6.265277875516466 0 0 0
408 1 11.350184281053817 17.724858768476267 1.4756951491155954 0 0 0
412 1 17.2210423538635 17.933994321207123 1.6029015001205122 0 0 0
629 1 6.002383273603118 28.283570069911185 15.536782979189319 0 0 0
416 1 24.039836159171315 17.299203260968483 1.562278764420744 0 0 0
421 1 1.731446591545954 20.999032812768974 1.6298301616064326 0 0 0
426 1 6.4844617633922 22.34619552350786 2.9939807140000507 0 0 0
429 1 8.346307582294061 20.709729808611606 1.185319952204304 0 0 0
427 1 9.7933383646335 19.395528001544186 3.206465246288984 0 0 0
437 1 14.420025847717596 20.99737884873668 1.5714745603540825 0 0 0
435 1 15.66129917447396 19.32150747264317 3.3261021827592376 0 0 0
445 1 20.787147156345092 20.869114379847247 1.4969756304593822 0 0 0
443 1 22.176650363302954 18.834656996665693 3.0168051439703016 0 0 0
418 1 24.94928488528094 22.20825263744598 2.880171606570143 -1 0 0
424 1 4.862355303914946 23.897798663481787 1.4615135006591111 0 0 0
432 1 11.292967991063104 23.874425932744074 1.6912600759899745 0 0 0
434 1 12.735504426372824 22.28146008214894 3.2695518197191826 0 0 0
565 1 15.810003108186049 15.980174014711645 12.564986507674107 0 0 0
440 1 17.803450844480764 23.59355431965775 1.7416159998232796 0 0 0
561 1 3.3605199703699022 15.985660404528497 12.716655074098409 0 0 0
448 1 23.73784724910909 24.332798083133724 1.4676243693643847 0 0 0
173 1 19.19187866931825 31.803036157908046 12.634335840492943 0 -1 0
453 1 1.8850845378650714 27.16344243837206 2.063672427216317 0 0 0
161 1 25.167548668670044 31.54428177612447 12.77144179392371 -1 -1 0
107 1 22.190676494038172 31.674506726689494 9.712550789588533 0 -1 0
461 1 8.174587006940172 27.067939161203647 1.553939733813571 0 0 0
459 1 9.730480950631447 25.662225535262436 3.1727112115622953 0 0 0
466 1 12.95083158755491 28.774109643542722 3.2533792747417727 0 0 0
469 1 14.422887060114174 26.72318820464959 1.861023848400167 0 0 0
417 1 0.08156200417648835 19.36773156868282 0.014226792889735971 0 0 0
477 1 20.642565621574363 27.216016777248576 1.6783421709323154 0 0 0
450 1 25.400668734035452 28.597814883042545 3.4931653010643684 -1 0 0
626 1 3.1105389693017482 25.37167762463551 15.725048548127083 0 0 0
456 1 5.421656893402234 30.226477175350972 1.7926074036892559 0 0 0
464 1 11.212332862609333 30.27035137715732 1.7133178117887387 0 0 0
472 1 17.485099922138556 30.179721722678615 1.7124659610691968 0 0 0
474 1 19.28847418624541 28.818517333483022 3.2943608578501253 0 0 0
480 1 23.834174370474607 30.35607119005727 2.0536983808664404 0 0 0