
# Create simulation box of size ~50 x 30 x 30 Angstrom
#
#variable	    lattice_constant equal 6.36339
#lattice		    diamond ${lattice_constant}
region all block 0 ${LEN} 0 ${WIDTH} 0 ${WIDTH} units box
region all block 0 50.8876695785036 0 ${WIDTH} 0 ${WIDTH} units box
region all block 0 50.8876695785036 0 31.8047934865673 0 ${WIDTH} units box
region all block 0 50.8876695785036 0 31.8047934865673 0 31.8047934865673 units box
create_box 1 all
Created orthogonal box = (0.0000000 0.0000000 0.0000000) to (50.887670 31.804793 31.804793)
  2 by 1 by 2 MPI processor grid

# fill box with randomly distributed atoms
#
create_atoms 1 random 1565 63782 all
Created 1565 atoms
  create_atoms CPU = 0.000 seconds
mass 1 18.015
group water region all
1565 atoms in group water

# Define potential
#
pair_style sw
pair_coeff * * ML.sw mW
Reading sw potential file ML.sw with DATE: 2019-02-27

# Run minimization
#
minimize 1.0e-8 1.0e-8 10000 1000
WARNING: Using 'neigh_modify every 1 delay 0 check yes' setting during minimization (../min.cpp:187)
Neighbor list info ...
  update every 1 steps, delay 0 steps, check yes
  max neighbors/atom: 2000, page size: 100000
  master list distance cutoff = 6.0032907
  ghost atom cutoff = 6.0032907
  binsize = 3.0016454, bins = 17 11 11
  1 neighbor lists, perpetual/occasional/extra = 1 0 0
  (1) pair sw, perpetual
      attributes: full, newton on
      pair build: full/bin/atomonly
      stencil: full/bin/3d
      bin: standard
Per MPI rank memory allocation (min/avg/max) = 4.226 | 4.227 | 4.228 Mbytes
Step Temp E_pair E_mol TotEng Press 
       0            0     10711415            0     10711415     19261486 
     621            0   -16661.305            0   -16661.305   -1662.2514 
Loop time of 0.705893 on 4 procs for 621 steps with 1565 atoms

99.6% CPU use with 4 MPI tasks x no OpenMP threads

Minimization stats:
  Stopping criterion = max force evaluations
  Energy initial, next-to-last, final = 
      10711414.7787043  -16661.2757859318  -16661.3052152179
  Force two-norm initial, final = 5.7201717e+08 1.2900759
  Force max component initial, final = 3.2191948e+08 0.26222605
  Final line search alpha, max atom move = 0.17410473 0.045654796
  Iterations, force evaluations = 621 1000

MPI task timing breakdown:
Section |  min time  |  avg time  |  max time  |%varavg| %total
---------------------------------------------------------------
Pair    | 0.51442    | 0.57488    | 0.65699    |   8.0 | 81.44
Neigh   | 0.01636    | 0.017182   | 0.018192   |   0.6 |  2.43
Comm    | 0.015956   | 0.099027   | 0.16014    |  19.5 | 14.03
Output  | 0          | 0          | 0          |   0.0 |  0.00
Modify  | 0          | 0          | 0          |   0.0 |  0.00
Other   |            | 0.0148     |            |       |  2.10

Nlocal:        391.250 ave         409 max         375 min
Histogram: 2 0 0 0 0 0 0 0 0 2
Nghost:        1027.00 ave        1037 max        1021 min
Histogram: 2 0 0 0 1 0 0 0 0 1
Neighs:        0.00000 ave           0 max           0 min
Histogram: 4 0 0 0 0 0 0 0 0 0
FullNghs:      10375.5 ave       11236 max        9588 min
Histogram: 2 0 0 0 0 0 0 0 1 1

Total # of neighbors = 41502
Ave neighs/atom = 26.518850
Neighbor list builds = 24
Dangerous builds = 0

# Add velocity/set timestep
#
velocity all create ${TEMP} 120598 rot yes dist gaussian
velocity all create 284 120598 rot yes dist gaussian
timestep 10.0

# Define output
#
compute 1 all msd
thermo 50
thermo_style custom step temp press vol etotal ke pe c_1[4]

# Neighbor lists
#
neigh_modify delay 0 every 1 check yes

# Set fixes
#
fix 1 all momentum 10 linear 1 1 1 rescale
fix 2 all nve
fix 3 all temp/csvr ${TEMP} ${TEMP} 500.0 928347
fix 3 all temp/csvr 284 ${TEMP} 500.0 928347
fix 3 all temp/csvr 284 284 500.0 928347
fix 4 all press/berendsen iso ${PRES} ${PRES} 1000.0 modulus 20000
fix 4 all press/berendsen iso 1 ${PRES} 1000.0 modulus 20000
fix 4 all press/berendsen iso 1 1 1000.0 modulus 20000

# Run 1 ns equilibration
#
dump 1 all atom 1000 eq.water.${NAME}.dump
dump 1 all atom 1000 eq.water.icewater_284K_1atm_ML.dump
run 100000
Per MPI rank memory allocation (min/avg/max) = 3.476 | 3.477 | 3.478 Mbytes
Step Temp Press Volume TotEng KinEng PotEng c_1[4] 
     621          284   -486.47564    51475.162   -15337.301    1324.0043   -16661.305            0 
     650    181.16462   -621.01305    50845.027   -14949.377    844.58708   -15793.964   0.33382691 
     700    228.89394   -562.66321    50399.983    -14577.82    1067.1006   -15644.921   0.92617106 
     750    245.97464   -296.99147    49868.626   -14358.881    1146.7306   -15505.612    1.6903789 
     800     263.9964   -220.95482    49469.066   -14275.007    1230.7478   -15505.755    2.2558975 
     850     263.1624   -220.94007    49183.326   -14217.866    1226.8597   -15444.726    2.8710864 
     900    270.77794   -135.37007     48833.48   -14159.007    1262.3632   -15421.371    3.4996352 
     950    278.66081   -382.38077    48573.299   -14071.751    1299.1131   -15370.864    4.3735528 
    1000    279.74335   -166.90925    48134.203   -14075.368    1304.1598   -15379.527    5.1901318 
    1050    280.28648   -193.20944    47916.059   -14037.035    1306.6919   -15343.727     5.914561 
    1100    280.21736   -23.074123    47824.384    -14036.25    1306.3697    -15342.62    6.8978658 
    1150    271.12879    178.47934    47622.427   -14105.086    1263.9989   -15369.084    7.8821062 
    1200    264.95447   -282.19184    47469.568   -14127.204    1235.2143   -15362.418    8.7643693 
    1250    275.51982   -729.14537    47120.853   -14120.554    1284.4698   -15405.023    9.6479423 
    1300    273.96673   -138.19593    46754.446   -14103.491    1277.2293   -15380.721    10.793483 
    1350    275.94224    7.7336109    46746.008    -14116.83    1286.4391    -15403.27    11.812794 
    1400    273.20196   -104.16239    46904.793   -14155.034     1273.664   -15428.697    12.809072 
    1450     288.4401   -350.89804    46972.566   -14126.973     1344.704   -15471.677    13.883688 
    1500    273.44394    300.81263     46994.79    -14090.88    1274.7921   -15365.672    15.422863 
    1550    290.21254   -264.55033    46972.219   -14015.196    1352.9671   -15368.164    16.901354 
    1600    288.51885   -551.50782    46878.199   -13990.488    1345.0711   -15335.559    18.537322 
    1650    294.78958    299.12373    46883.134   -13971.223    1374.3052   -15345.528    19.608077 
    1700    277.04009    144.66104    46733.313   -14033.642    1291.5573   -15325.199    20.750712 
    1750    272.84389    134.49882    46709.169   -14067.314    1271.9946   -15339.309    21.817203 
    1800    267.30147   -108.09916    46838.415   -14080.096     1246.156   -15326.252    22.803365 
    1850    283.79849    77.836194    46821.001   -14029.264    1323.0648   -15352.329     23.76306 
    1900    280.26249    251.22713    46928.012   -14012.909      1306.58   -15319.489     24.88325 
    1950    288.93261   -316.08905    46740.679    -13996.11         1347    -15343.11    26.274324 
    2000    283.54795    74.370109    46757.077   -13980.404    1321.8968   -15302.301    27.360787 
    2050    291.53469    276.02018    46981.227   -13900.274    1359.1309   -15259.404    28.428324 
    2100     291.7224    72.602574    46913.661   -13952.009     1360.006   -15312.015    28.995437 
    2150    294.55758   -225.94198    46885.523   -13970.335    1373.2236   -15343.559    30.318542 
    2200     280.0721     229.2457    46762.419   -13998.028    1305.6925   -15303.721    31.569272 
    2250    292.08779    527.86109    46834.577   -13990.232    1361.7094   -15351.942    32.047159 
    2300    286.10044   -268.65315    46764.198   -13987.137    1333.7965   -15320.934    33.220691 
    2350    292.46827   -190.80515    46761.259   -13978.326    1363.4833   -15341.809    34.163112 
    2400    283.28584    379.57979    46949.181   -14021.042    1320.6749   -15341.717    35.424976 
    2450    290.78182    265.49157    46926.598   -13944.578    1355.6211     -15300.2    36.491316 
    2500    290.57222      142.259    46953.541   -13939.974    1354.6439   -15294.618    36.751891 
    2550    297.82827    150.05818    46860.652   -13903.512    1388.4715   -15291.984    37.919574 
    2600    298.16764   -350.11858    46712.539   -13897.375    1390.0536   -15287.429    39.294544 
    2650     290.6119    132.45973    46914.081   -13918.327    1354.8289   -15273.156    40.813303 
    2700    280.81978    46.321549    47058.999   -13913.936    1309.1781   -15223.114    42.329271 
    2750    285.99374    60.795229    47002.189    -13932.11    1333.2991    -15265.41    43.060405 
    2800    292.61335   -339.02056    47100.859   -13902.947    1364.1596   -15267.106    44.177603 
    2850    282.60237   -117.08079     47113.51   -13941.253    1317.4885   -15258.741    45.229295 
    2900    289.99119   -336.71772    46893.504    -13954.82    1351.9351   -15306.755    45.979527 
    2950    278.38192    -19.75231    46768.956   -14019.485    1297.8129   -15317.298    47.101198 
    3000    293.59228    11.824134     46759.79   -14005.411    1368.7233   -15374.134     48.01959 
    3050    285.78356   -107.66473    46937.471   -13988.269    1332.3192   -15320.588    49.078444 
    3100    290.69987    386.29864    46982.377   -13977.203     1355.239   -15332.442    50.317856 
    3150    279.99981   -197.38787    46771.492   -14010.247    1305.3554   -15315.602    51.516884 
    3200    284.33095   -665.52036    46630.354   -14028.965    1325.5472   -15354.512    52.883429 
    3250    279.91903    224.90095    46439.356   -13999.284    1304.9789   -15304.262     53.98204 
    3300    290.62644     -457.395    46647.694   -13982.451    1354.8966   -15337.348    54.448591 
    3350    279.76586    -29.29972    46669.903   -14010.686    1304.2648   -15314.951    56.278581 
    3400    274.52272    243.35051    46686.961   -14009.558    1279.8214   -15289.379    57.194433 
    3450    286.84043    -92.77029    46780.783   -14010.258    1337.2463   -15347.504    58.311483 
    3500    279.91462   -324.71357    46839.247    -14097.17    1304.9583   -15402.129     59.70897 
    3550    282.92776   -92.014187      46809.9   -14073.351    1319.0055   -15392.356    61.040377 
    3600    284.66165    272.45204    46818.517   -14089.263    1327.0889   -15416.352    62.274311 
    3650    272.11275    312.44511    46821.246   -14097.528    1268.5861   -15366.114    63.545767 
    3700    282.51754   -121.42116    46957.215   -14076.574    1317.0931   -15393.667    64.344315 
    3750    276.77658    114.45954    46983.222   -14110.509    1290.3288   -15400.837    65.343956 
    3800    280.17459   -69.027907    46896.755    -14034.99    1306.1703    -15341.16    65.652806 
    3850    280.23295    1.6895338    46958.836   -14057.354    1306.4423   -15363.797    66.063527 
    3900    286.07871   -206.94116    46778.823   -14008.982    1333.6952   -15342.678    66.828821 
    3950    290.55581    215.43888      46816.7   -13995.854    1354.5674   -15350.422    67.718589 
    4000      281.609    418.83938      46873.4   -14076.258    1312.8575   -15389.116    68.822076 
    4050    279.51871    51.439028    46969.844   -14044.124    1303.1126   -15347.237    70.144283 
    4100    281.08845    233.80523    47028.496   -14020.698    1310.4307   -15331.129    71.248158 
    4150    277.98554    50.117964    46911.022   -14057.193    1295.9649   -15353.158    72.296695 
    4200     287.7603    -113.3892    46769.477   -14037.186    1341.5348    -15378.72    73.322647 
    4250    276.18597    45.301429    46690.188   -14088.884    1287.5754    -15376.46    74.871117 
    4300    268.69984    112.94193    46859.873   -14088.104    1252.6752   -15340.779    76.217084 
    4350    279.49315    151.02582     46759.18   -14094.728    1302.9934   -15397.722    77.466115 
    4400     280.1374    102.69771    46799.024   -14070.084    1305.9969   -15376.081    78.680379 
    4450    279.56408   -99.814781    46874.557   -14046.622    1303.3241   -15349.946    79.948704 
    4500    271.99172    12.375561    46745.089   -14069.639    1268.0218   -15337.661    80.939196 
    4550    276.47062   -364.04459    46661.087    -14088.34    1288.9024   -15377.242    82.076633 
    4600    275.74849    199.20474    46730.105   -14088.358    1285.5358   -15373.894    83.371367 
    4650    287.87749   -295.73181    46834.115   -14019.585    1342.0811   -15361.666    84.694925 
    4700    295.28593   -23.244128    46779.307   -14020.408    1376.6191   -15397.027    85.583723 
    4750    277.82169    -302.8324    46843.457   -14064.437    1295.2011   -15359.638    86.899993 
    4800    287.24191    -41.49264    46933.546   -13997.743     1339.118   -15336.861    88.374479 
    4850    301.15667   -417.05529    46889.546   -13923.245    1403.9884   -15327.233    90.450704 
    4900    296.68074    43.331532    46831.982   -13949.072    1383.1217   -15332.193    91.700697 
    4950    294.26563   -195.27618    46926.733   -13868.422    1371.8625   -15240.285     93.48616 
    5000    288.91272    -712.3083    46912.088    -13906.62    1346.9073   -15253.527    95.040931 
    5050    290.00516   -56.298423    46768.093   -13989.964    1352.0003   -15341.964    95.735762 
    5100    288.43915   -406.52549    46708.133   -13998.329    1344.6995   -15343.029    97.161601 
    5150    288.27452    229.51772    46749.066   -14026.042     1343.932   -15369.974    98.684878 
    5200    280.50403    315.02991    46865.978    -14053.32    1307.7061   -15361.026    99.759826 
    5250    291.29626    9.4052851    46957.666   -13995.417    1358.0193   -15353.437    101.12351 
    5300       281.71   -185.83141    47101.566   -14043.485    1313.3284   -15356.813    102.22951 
    5350    285.76023    217.96747    47130.205    -14034.68    1332.2104    -15366.89    103.70186 
    5400    274.20164    215.26305    47037.687   -14037.016    1278.3245    -15315.34     105.4613 
    5450    287.62717   -106.62717    47034.841   -14037.375    1340.9141   -15378.289    105.94227 
    5500    280.67733   -225.84702    46922.553   -14065.331     1308.514   -15373.845    106.95178 
    5550    287.41992   -164.01841    46881.377   -14048.359    1339.9479   -15388.307    107.80458 
    5600    283.91961    214.41105    46808.149   -14068.717    1323.6295   -15392.347    108.55526 
    5650    274.29359   -399.46728      46755.1   -14056.465    1278.7531   -15335.218    109.04226 
    5700    279.09856   -161.54342    46801.391   -14072.016    1301.1539    -15373.17    110.23754 
    5750    283.84751   -273.80598    46916.598   -14024.206    1323.2934   -15347.499    111.15566 
    5800     284.9275    254.06076    47039.357   -14026.995    1328.3283   -15355.323    111.91317 
    5850    284.27953    101.25447    47074.507   -14043.825    1325.3074   -15369.133    113.52881 
    5900    282.69538   -204.93131    47025.286   -14098.331    1317.9222   -15416.253     114.3509 
    5950     276.9084   -74.271285    47062.974   -14091.446    1290.9433    -15382.39    115.34224 
    6000    275.12411     245.0557    47053.927   -14080.492     1282.625   -15363.117    116.39115 
    6050    281.88676    104.53755    47064.444   -14061.286    1314.1524   -15375.438    117.15199 
    6100    282.07516    234.96736    46992.951    -14077.53    1315.0307   -15392.561    118.90632 
    6150    275.75952     84.75087    46929.562   -14073.437    1285.5873   -15359.025    119.09215 
    6200     284.9382   -96.606698      46974.2   -14066.889    1328.3781   -15395.267    119.88492 
    6250    284.17299   -337.46285    46833.104   -14071.085    1324.8108   -15395.896    120.95193 
    6300    287.15007   -510.17255    46917.565   -14053.325    1338.6899   -15392.014    122.61892 
    6350    278.21357   -179.42763    46750.778   -14029.413     1297.028   -15326.441    123.80153 
    6400    289.08116    180.51761     46673.01   -13981.889    1347.6926   -15329.582    125.80205 
    6450    289.85138    266.45145    46705.883   -13948.067    1351.2833    -15299.35    127.08043 
    6500    285.78503   -503.73092    46759.451   -14013.115     1332.326   -15345.441    128.93589 
    6550    284.91668   -50.226449     46753.11   -14039.419    1328.2778   -15367.697    131.00936 
    6600     281.1802   -52.876496    46721.301   -14099.268    1310.8584   -15410.127    132.04536 
    6650    276.51679   -245.21048    46700.222   -14080.402    1289.1177    -15369.52    132.60561 
    6700    287.09837   -11.307731    46564.243   -14125.757    1338.4488   -15464.205    132.36416 
    6750    287.96582   -334.76472    46566.561   -14031.462    1342.4929   -15373.955     133.4402 
    6800    283.10862    5.3806039    46557.258   -14042.076    1319.8487   -15361.925    134.18856 
    6850    284.52666   -35.089129    46591.801   -14032.853    1326.4596   -15359.312    135.19795 
    6900    286.67644   -264.79349    46690.658    -13999.16    1336.4818   -15335.642    136.54974 
    6950    287.27541    720.15666     46781.44    -14010.89    1339.2742   -15350.164    137.85921 
    7000    281.56951    395.81354    46988.806   -13990.498    1312.6734   -15303.172    140.40112 
    7050    282.34722   -17.102571    46876.617   -14028.652    1316.2991   -15344.951    141.23922 
    7100    278.36314    107.43176    47097.251   -14019.445    1297.7253   -15317.171    143.59381 
    7150    292.80189    60.925731    47055.254   -14054.904    1365.0386   -15419.942    144.55886 
    7200    279.45815    2.3890122    47155.337   -14104.817    1302.8303   -15407.648     146.2756 
    7250    272.81341   -259.39648    47155.152    -14129.89    1271.8526   -15401.743    147.97528 
    7300    277.78417    57.450363    47133.749    -14114.21    1295.0262   -15409.236    148.90662 
    7350    277.53103    87.761353     47016.58   -14108.713     1293.846   -15402.559    150.04978 
    7400     273.4358    67.187735    47035.366    -14097.79    1274.7541   -15372.544    151.15076 
    7450    286.26698   -286.94891     47052.09   -14077.683    1334.5729   -15412.256     151.7789 
    7500    263.93875    212.63705    46955.518   -14118.108     1230.479   -15348.587    151.74697 
    7550    290.23896   -465.76077    46867.273   -14089.398    1353.0902   -15442.489    152.10135 
    7600    282.26199   -311.77608    46852.879   -14092.717    1315.9017   -15408.618    153.44292 
    7650     276.3563   -174.58498    46704.948   -14066.782    1288.3695   -15355.151    153.95113 
    7700    289.69162   -13.584387    46673.333   -14015.014    1350.5385   -15365.553    155.35614 
    7750    287.51292   -473.49647     46696.46   -13975.799    1340.3815    -15316.18    157.00145 
    7800    293.04425    159.99045    46735.151   -14001.449    1366.1684   -15367.617     158.3342 
    7850    283.54986    424.89346    46825.952   -14059.349    1321.9058   -15381.254    158.79247 
    7900    268.85566    325.82337    47022.008    -14085.95    1253.4016   -15339.352    160.25645 
    7950     280.3339    67.006582    47085.252   -14092.094     1306.913   -15399.007    160.77842 
    8000    279.23838    -283.9771    47142.867   -14045.266    1301.8057   -15347.072    162.22639 
    8050    279.54549   -251.28447    47156.739   -14101.072    1303.2374   -15404.309    162.41568 
    8100    271.89504     116.9367    47021.514   -14109.815    1267.5711   -15377.386    163.29903 
    8150    272.36122    18.592604    47102.081   -14105.625    1269.7444   -15375.369    164.10029 
    8200    280.84977     76.16745    47012.518   -14113.176     1309.318   -15422.494    164.99151 
    8250    275.05229   -344.36933    47007.853   -14118.758    1282.2902   -15401.048    165.78532 
    8300    277.49926   -10.220107    46902.142   -14076.538    1293.6979   -15370.236    166.68113 
    8350     277.1642    417.17943    46902.784   -14068.523    1292.1359   -15360.659    169.04336 
    8400    285.19497    470.36853    46898.453   -14004.117    1329.5752   -15333.692    170.65097 
    8450    291.07429   -85.782693    46962.536    -13980.68    1356.9845   -15337.665    172.19257 
    8500    284.92889   -313.24386    46879.774    -14004.73    1328.3348   -15333.065    173.77266 
    8550    279.88052   -24.499531    46918.263   -14030.791    1304.7993    -15335.59    174.92384 
    8600    288.45758   -100.66337    46731.774   -13987.897    1344.7855   -15332.683    175.32922 
    8650    282.73858    484.15147    46729.691   -14027.223    1318.1235   -15345.347    175.56121 
    8700    285.80192     202.7271    46808.017   -14042.086    1332.4048   -15374.491    176.60729 
    8750    286.65353     406.9638    46966.295   -14041.396     1336.375   -15377.771    177.67532 
    8800    279.60133    124.26497    46828.148   -14066.228    1303.4978   -15369.726    179.25591 
    8850    278.00229    205.23166    46852.516   -14087.497     1296.043    -15383.54    180.69812 
    8900    281.91017   -91.084522    46837.527   -14064.444    1314.2615   -15378.705    181.07315 
    8950    287.71718   -283.83863    46752.285   -14045.351    1341.3337   -15386.685    181.51134 
    9000    283.28038   -72.570877    46742.988   -14021.292    1320.6494   -15341.942    182.49058 
    9050    278.33715    262.12437    46739.725   -14112.933    1297.6041   -15410.537    183.45455 
    9100    277.98951   -13.680189     46819.46   -14105.666    1295.9835   -15401.649    185.17051 
    9150     279.3011    131.63346    46694.368   -14010.874    1302.0981   -15312.972    186.71092 
    9200    275.02814    467.41391    46714.973    -13998.65    1282.1776   -15280.827    188.03381 
    9250    287.34376   -326.01297     46656.48   -14014.494    1339.5928   -15354.087    188.36879 
    9300    277.46887    278.97289    46650.661   -14065.936    1293.5562   -15359.493    189.88685 
    9350     282.0192   -187.91516    46791.956    -14043.39    1314.7698    -15358.16    191.69437 
    9400     285.8154    275.43746    46936.606   -13998.369    1332.4677   -15330.837    193.31545 
    9450    274.24279   -59.914443    46850.113   -13974.252    1278.5163   -15252.768    194.22675 
    9500    289.21752   -304.92066    46830.871   -13986.157    1348.3283   -15334.486    195.52341 
    9550     279.4118    38.277625    46859.667   -14008.237    1302.6141   -15310.851    196.42554 
    9600    296.96197   -250.97871    46720.506   -13971.167    1384.4328     -15355.6    197.44571 
    9650    280.43286   -25.954009    46681.431   -14008.421    1307.3743   -15315.796    197.78481 
    9700    289.57451    155.24176     46848.68   -13987.342    1349.9926   -15337.335    200.01206 
    9750    288.66298    50.035486    46914.801   -13997.651     1345.743   -15343.394    202.15168 
    9800     275.4675    124.96383    46901.191   -14025.477    1284.2259   -15309.703     203.7217 
    9850    281.29197   -377.65821    46852.583   -14034.608    1311.3795   -15345.987    204.87036 
    9900    272.62229   -131.21342    46800.215    -14083.69    1270.9615   -15354.651    205.98355 
    9950    282.06787    45.471116    46882.689   -14064.005    1314.9967   -15379.001    206.91995 
   10000    284.14165    128.61073    46982.723   -14092.068    1324.6647   -15416.733    207.35109 
   10050    274.78775    50.855897    47009.364   -14062.086    1281.0569   -15343.143    208.16489 
   10100    282.93465   -341.81686    46986.355   -14048.929    1319.0376   -15367.967    209.81591 
   10150    271.83407   -164.85141    46895.469    -14059.65    1267.2869   -15326.937    211.38606 
   10200    279.47358    85.038186     46765.85   -14101.553    1302.9022   -15404.455    211.31796 
   10250    273.43833   -224.72695    46745.245   -14158.482    1274.7659   -15433.248    212.68522 
   10300     282.5275      257.535    46858.173   -14021.209    1317.1395   -15338.349    213.15695 
   10350    275.80656    94.278978    46848.406   -14047.631    1285.8066   -15333.437    214.44206 
   10400    283.25277   -499.50176    46821.198   -14017.377    1320.5207   -15337.898    214.89391 
   10450    279.48942   -338.34875    46675.809   -14033.688     1302.976   -15336.664    216.42521 
   10500    288.56286    284.64572    46625.239   -13988.251    1345.2763   -15333.527    217.78772 
   10550    287.62947    16.950153    46952.044   -13963.552    1340.9248   -15304.476    220.68057 
   10600    292.58895   -87.367781    46962.377   -13926.604    1364.0459    -15290.65    221.74282 
   10650    291.79464   -155.79591    46825.019   -13943.992    1360.3428   -15304.335    222.82009 
   10700     289.9868    62.243812    46806.099   -13972.193    1351.9147   -15324.108    223.45177 
   10750    290.32844    13.316788    46933.865   -13980.042    1353.5074   -15333.549    224.40164 
   10800    281.81869   -216.63653    46839.061   -13988.471    1313.8351   -15302.306    225.22566 
   10850    280.69305    -381.9334    46922.691   -14007.145    1308.5873   -15315.732    226.16653 
   10900    288.31086   -146.07954    46816.678   -13975.944    1344.1015   -15320.045     228.1143 
   10950    278.09563   -32.517295    46878.931   -13991.328    1296.4782   -15287.806    229.86341 
   11000    289.25929    186.40499    46764.147   -13958.175     1348.523   -15306.698    230.90164 
   11050    282.23423   -219.55435    46625.435   -13993.656    1315.7723   -15309.428    231.61957 
   11100    274.58523    331.38904    46532.986    -14025.29    1280.1127   -15305.403    233.18476 
   11150     282.7213    24.315309    46845.257    -14004.38     1318.043   -15322.423    235.69245 
   11200    285.22795   -15.183882    46967.868   -13950.766     1329.729   -15280.495    237.01959 
   11250    295.17676   -134.26674    46851.149   -13978.853    1376.1102   -15354.963    238.88491 
   11300    287.91973     87.42704    46833.327   -14019.987     1342.278   -15362.265    240.16526 
   11350    287.08327    108.82303    46903.579   -13987.974    1338.3784   -15326.352    241.72301 
   11400    284.18624    206.07361    46782.706   -13999.376    1324.8725   -15324.249    242.61279 
   11450    283.76097    174.81551    47015.358   -14039.765    1322.8899   -15362.655    243.95244 
   11500    280.27394   -202.23666    47006.451   -14075.517    1306.6334    -15382.15    245.42055 
   11550    280.40278     92.80482    46984.337   -14043.231    1307.2341   -15350.465    246.01312 
   11600    288.65053   -157.23466    46975.633   -14046.355     1345.685    -15392.04    245.47645 
   11650    287.10002    -185.0791     47050.09   -14031.002    1338.4565   -15369.458    246.71569 
   11700    294.45891   -36.647192    47052.694   -13958.558    1372.7636   -15331.322    247.96864 
   11750    288.39783   -150.15823    47170.241    -13995.58    1344.5069   -15340.087    249.73596 
   11800    282.07097    201.51724    47154.009   -14037.918    1315.0112    -15352.93    250.21502 
   11850    293.53054    127.11746    47193.783   -14007.675    1368.4355    -15376.11    251.48691 
   11900    280.00044   -280.85091    47175.779   -14079.767    1305.3584   -15385.125    253.10426 
   11950     269.2216     41.13332     47075.12   -14084.894    1255.1076   -15340.002     253.6146 
   12000    275.44898    122.43734    46851.963   -14052.143    1284.1396   -15336.282    253.28821 
   12050    296.54268   -253.13768    46864.892       -14022    1382.4781   -15404.478    254.98718 
   12100    286.09388      52.8048    46795.491   -13975.275    1333.7659   -15309.041    254.98858 
   12150    281.00263   -292.63675    46675.772   -13975.847    1310.0306   -15285.877    255.80985 
   12200    291.60772   -382.98203    46696.881   -13977.779    1359.4714    -15337.25    257.14315 
   12250    283.72622    100.73733    46759.798   -14037.074    1322.7279   -15359.802    259.01049 
   12300    288.84126    16.547446     46851.02   -13997.489    1346.5742   -15344.063    260.33274 
   12350    274.49203     479.6651    46854.986   -14022.821    1279.6783   -15302.499     261.0457 
   12400    283.40392   -322.09894    47102.622   -13981.843    1321.2254   -15303.069    263.22905 
   12450    272.42215    155.73031    47157.244   -14074.131    1270.0285   -15344.159    263.76976 
   12500    283.72668    -433.2797    47096.781   -14059.926    1322.7301   -15382.656    265.65026 
   12550    279.95135    375.77822    47005.637   -14021.096    1305.1295   -15326.226    266.88092 
   12600    288.07373    93.816422     47168.45   -13969.534     1342.996    -15312.53    269.30213 
   12650    285.44786   -314.25031    47117.616   -13979.937    1330.7542   -15310.691    270.19166 
   12700    288.63519   -14.681082    46945.793   -13933.071    1345.6135   -15278.685     269.4231 
   12750    290.76455   -128.37897    46769.156   -13970.415    1355.5405   -15325.956    268.99225 
   12800    282.69126    156.71435    46877.622   -13991.581     1317.903   -15309.484    271.06865 
   12850    279.46496   -128.21215    46905.834    -14026.71     1302.862   -15329.572    272.86224 
   12900       285.01    330.61359    46908.109   -14038.352    1328.7129   -15367.065    274.00106 
   12950    273.40531    216.57815    46899.165   -14004.848     1274.612    -15279.46    274.92598 
   13000    289.12369   -101.30446    47001.169   -13943.099    1347.8909   -15290.989    276.79385 
   13050    285.64684    376.36428    47105.932   -13951.773    1331.6819   -15283.455    278.76362 
   13100    287.63666   -266.12761    46934.786   -13934.022    1340.9584    -15274.98    280.42366 
   13150    289.54251   -572.82484    46892.669   -13953.386    1349.8434   -15303.229    281.31303 
   13200    296.79059   -173.93648    46791.673    -13911.12    1383.6338   -15294.754    281.71172 
   13250    288.29734   -168.38107    46794.055   -13950.786    1344.0384   -15294.824    282.52314 
   13300    283.89176   -163.81468     46622.28   -13951.898    1323.4997   -15275.397    282.90208 
   13350     279.0422    71.323517    46717.431   -13999.414    1300.8911   -15300.305     284.6261 
   13400    275.09229    221.30933    46466.498   -14023.824    1282.4767   -15306.301    285.04817 
   13450    278.13788    346.95125    46737.025   -14064.959    1296.6752   -15361.634    287.05011 
   13500    286.27854   -156.60751    46539.712   -14048.874    1334.6268   -15383.501    287.72147 
   13550    278.02088   -0.1780789    46845.581    -14059.07    1296.1297     -15355.2    290.03761 
   13600    286.61087    285.49002     46665.74   -14059.449    1336.1761   -15395.625    289.92874 
   13650    283.80591    229.95756    46765.544   -14029.039    1323.0994   -15352.138    291.61798 
   13700    276.17912   -524.21362    46827.867   -14038.135    1287.5434   -15325.678    292.45321 
   13750    281.47759   -308.04158    46674.731   -14011.284    1312.2448   -15323.529    293.32008 
   13800    285.84579    94.367971    46662.342   -13980.814    1332.6093   -15313.423    295.28108 
   13850     287.6425    286.32101    46736.514   -14016.741    1340.9856   -15357.727    297.56561 
   13900     287.0181    61.660745    46895.959   -13956.258    1338.0746   -15294.333    299.29553 
   13950    287.36265    78.334939     46743.66    -13980.85    1339.6809   -15320.531    299.71612 
   14000    292.86103    349.59556    46841.772   -13975.394    1365.3143   -15340.708    300.50656 
   14050    285.41323   -134.57405      46795.4   -14012.511    1330.5928   -15343.104     302.4316 
   14100    283.94019    13.607734    46990.648   -14011.712    1323.7254   -15335.437    304.77941 
   14150    286.08975   -206.75838    46947.177   -14027.982    1333.7467   -15361.729    305.21566 
   14200    282.72776   -78.925922    46930.618   -14029.326    1318.0731   -15347.399    307.32675 
   14250    272.32121   -283.64818    46839.139   -14074.293    1269.5579   -15343.851    308.50113 
   14300    278.09577    31.012526    46736.889   -14123.531    1296.4788   -15420.009    308.64423 
   14350    284.02626    285.62442    46880.824   -14088.081    1324.1267   -15412.208    309.64119 
   14400    281.20546    197.07451    47061.181   -14074.986    1310.9762   -15385.962    310.01105 
   14450    289.27569    58.371293    46990.612   -14034.359    1348.5995   -15382.959    310.56189 
   14500    284.77397    302.20577    46916.598   -14049.023    1327.6125   -15376.635    312.02395 
   14550    279.95349   -67.303908    46846.023   -14017.091    1305.1395   -15322.231    313.25469 
   14600     280.6508    178.04592    46895.289   -14027.473    1308.3904   -15335.863    314.70624 
   14650    277.12661    -246.1884    46891.719   -14056.577    1291.9606   -15348.538    314.74834 
   14700     282.5737   -200.47499    46984.338   -14066.572    1317.3549   -15383.927     316.3459 
   14750    278.43855    358.96536    47007.677   -14087.722    1298.0769   -15385.798    317.98545 
   14800    279.08396   -195.98427    46990.893   -14135.791    1301.0858   -15436.877    319.43778 
   14850    274.75212   -166.09053    47054.274   -14151.371    1280.8908   -15432.261    320.39279 
   14900    275.76741    40.964267    47008.958   -14105.418    1285.6241   -15391.042     321.1926 
   14950    272.15809    98.605775    46916.692     -14137.3    1268.7974   -15406.098    321.78124 
   15000    278.56516    199.51615    46690.368   -14153.782    1298.6671   -15452.449    322.23391 
   15050    273.94948   -120.77727    46718.103    -14164.91    1277.1489   -15442.059    322.94756 
   15100    282.29969    30.045593    47046.092   -14107.325    1316.0775   -15423.403     325.5632 
   15150    281.74994    9.1045746    47058.945   -14118.383    1313.5145   -15431.897    326.92096 
   15200    274.16385    35.915587    47032.314   -14103.021    1278.1483    -15381.17     327.9029 
   15250    277.04592    468.06383    46864.427   -14101.947    1291.5845   -15393.531    328.30137 
   15300    278.94052   -293.47711    46866.894    -14101.81     1300.417   -15402.227    327.69131 
   15350     281.1773   -210.56615    46819.562   -14096.315    1310.8449    -15407.16    328.02716 
   15400    285.03884    -310.7023    46674.976   -14073.441    1328.8473   -15402.288    328.62746 
   15450    283.26711     412.7683     46871.41   -14059.896    1320.5875   -15380.483    330.18089 
   15500    277.37546    174.50292    46930.703   -14067.123    1293.1208   -15360.243    330.85299 
   15550    280.46297    655.40805    47061.573   -13998.205    1307.5147    -15305.72    332.56441 
   15600    287.48462   -191.64947    47030.152   -13997.724    1340.2495   -15337.974    333.95821 
   15650    278.31592    148.06809     46929.06   -14036.746    1297.5052   -15334.251    335.38708 
   15700    280.45467    123.96588     46910.69   -14048.671     1307.476   -15356.147    336.44052 
   15750    288.23842    193.46178     46790.52   -14039.937    1343.7637   -15383.701    338.22359 
   15800    269.78637   -175.53196    46800.224   -14098.384    1257.7405   -15356.125    339.57581 
   15850     279.7797    21.664727     46592.46   -14065.041    1304.3293   -15369.371    339.07456 
   15900    274.31551    209.17913    46601.234   -14105.208    1278.8553   -15384.063    340.04932 
   15950     280.1895   -118.80783    46861.003    -14064.09    1306.2398    -15370.33    341.74831 
   16000    289.39402    219.03971    46914.924   -14011.822    1349.1511   -15360.973    342.92115 
   16050    291.05487   -103.22498    46956.716   -13974.921     1356.894   -15331.815    343.85575 
   16100    283.43919   -228.41424    46920.105    -14037.81    1321.3898   -15359.199    345.03073 
   16150    283.32592    225.30626    46836.758   -14041.511    1320.8618   -15362.373    346.37209 
   16200    280.75404    44.688362    46875.891   -14052.929    1308.8717     -15361.8    347.89261 
   16250    283.07406    51.032128    47068.929   -14025.824    1319.6876   -15345.512    350.83043 
   16300    284.74787   -76.489323    46914.725   -14048.117    1327.4908   -15375.608    350.86775 
   16350    281.65641   -168.95603    46803.333   -13982.939    1313.0785   -15296.018    351.50146 
   16400    287.43094    76.687803    46902.412    -13962.61    1339.9993   -15302.609     352.2581 
   16450    291.66899   -147.95603    47103.554   -13963.497     1359.757   -15323.254    354.37895 
   16500    288.29014   -132.33397    46982.047   -13978.103    1344.0049   -15322.108    355.56386 
   16550    289.18597    88.494158    47025.639   -13965.008    1348.1812   -15313.189    357.40274 
   16600    288.15448   -157.77508    47192.694   -14012.482    1343.3724   -15355.855    359.83716 
   16650       279.91    229.65776    47244.285   -13972.588    1304.9368   -15277.525     360.6956 
   16700    283.72626    217.34926    47287.163    -13994.31    1322.7281   -15317.038    360.77875 
   16750    281.73199    206.58921    47291.243   -14014.202    1313.4308   -15327.633    361.55623 
   16800     287.8551     126.7485    47129.801   -13972.369    1341.9767   -15314.346    362.89741 
   16850    294.29328    16.328879    47122.931   -13908.063    1371.9914   -15280.055    364.55889 
   16900    287.37613    362.69121    47194.912   -13988.638    1339.7438   -15328.382    366.34329 
   16950    280.49063    182.45499    47180.166   -13980.364    1307.6437   -15288.007    367.77677 
   17000    288.04774    322.44317    47102.218   -13954.389    1342.8748   -15297.264    369.27726 
   17050    300.18581   -314.81617    47203.951   -13901.382    1399.4623   -15300.844    371.51707 
   17100    299.68883      209.096    47320.132   -13907.856    1397.1454   -15305.002    373.53329 
   17150    281.96871    2.3033458    47293.162   -13937.704    1314.5345   -15252.238    374.14181 
   17200    282.41555   -48.319233    47260.768   -13991.072    1316.6176    -15307.69    373.76067 
   17250    282.22148    291.32712    47159.657   -14014.779    1315.7128   -15330.492    374.08255 
   17300    297.83084   -263.98326    47075.253   -13984.681    1388.4835   -15373.165    375.63981 
   17350    285.90355   -391.48214    46867.107   -14005.504    1332.8786   -15338.382     375.6903 
   17400     281.5258   -704.61873     46831.82   -13968.347    1312.4696   -15280.816    376.62376 
   17450    288.22748    17.490204    46844.544   -13995.862    1343.7127   -15339.574    377.90347 
   17500     286.7615   -124.19077    46890.041   -14038.694    1336.8784   -15375.573    379.09531 
   17550    289.48679   -253.51417    46901.923   -14006.946    1349.5836   -15356.529    379.26089 
   17600    282.77208     66.42685    46766.231   -13965.187    1318.2797   -15283.467    379.61715 
   17650    284.93529    173.39464    46697.985    -13981.77    1328.3646   -15310.135    379.93408 
   17700    274.82505    111.86086    46813.716   -13997.065    1281.2308   -15278.296     381.5628 
   17750    286.32439   -339.69864     46721.68   -13971.536    1334.8406   -15306.376    381.21419 
   17800     281.6772    303.96724    46780.299   -13976.618    1313.1754   -15289.793    383.00185 
   17850    286.30157   -348.87465     46917.31   -14028.254    1334.7342   -15362.988    383.83313 
   17900    280.32643    468.06139    46841.031   -13983.941    1306.8782   -15290.819    383.43491 
   17950    285.24983    428.97125    46991.609   -13932.683     1329.831   -15262.514    385.10809 
   18000    286.30003   -360.70114    47106.229   -13928.955     1334.727   -15263.682     387.3402 
   18050    287.40252   -55.076998    47092.075   -13988.505    1339.8668   -15328.372    387.97575 
   18100    280.99127   -310.59471    46931.776   -14020.692    1309.9776    -15330.67    388.26304 
   18150    283.46942    3.1411785    46884.485   -14036.219    1321.5307    -15357.75    389.47349 
   18200    290.29661    22.206722    47064.602   -13958.069     1353.359   -15311.428    392.31119 
   18250    284.79106    105.03089    47089.818   -13961.854    1327.6922   -15289.546    393.37655 
   18300    287.80611   -206.15232    46962.699    -13924.89    1341.7483   -15266.638     394.6439 
   18350    289.97948    72.662501    47049.178    -13982.98    1351.8805    -15334.86    396.96674 
   18400    293.93344    361.76662    47074.813     -13962.6    1370.3139   -15332.914    397.33922 
   18450    287.80312   -457.73472    46956.649   -13994.001    1341.7344   -15335.736    398.14915 
   18500    291.22461    423.71364    46820.961   -14022.711    1357.6853   -15380.396    397.80448 
   18550    287.01167   -143.50566    46796.628   -14030.675    1338.0446    -15368.72    399.53027 
   18600    285.50595    274.79555    46632.785   -14058.323     1331.025   -15389.348    399.76793 
   18650    287.63133   -334.35895    46693.143   -14029.749    1340.9335   -15370.683    402.82527 
   18700    292.98303    309.76388    46791.738   -14012.219    1365.8831   -15378.102    404.07548 
   18750    295.08533   -521.25338    46918.945   -13970.974     1375.684   -15346.658     405.6394 
   18800    287.96218   -289.52716     46766.84   -14034.492    1342.4759   -15376.968    406.82014 
   18850    287.97813      228.094    46855.435   -14000.544    1342.5503   -15343.094    408.95895 
   18900    278.85438     68.10311    47066.477   -14044.557    1300.0155   -15344.572    410.72087 
   18950    287.71323    67.732578    47041.327   -14002.913    1341.3153   -15344.228    411.61238 
   19000    281.12279   -321.12322    46952.309   -14051.467    1310.5908   -15362.057    412.65865 
   19050    284.34815    62.617796    47064.655   -14020.514    1325.6273   -15346.141    415.16614 
   19100    284.58199    33.065339     47030.03   -14023.269    1326.7175   -15349.986    416.52973 
   19150    280.01389     284.7179    46879.339   -14010.288    1305.4211    -15315.71    417.29394 
   19200     282.6744    167.18071    46874.901   -13971.405    1317.8244   -15289.229    417.08682 
   19250    293.86052    112.51069     46748.53   -13957.709    1369.9739   -15327.683     416.8596 
   19300    288.96027   -161.05282    46833.032    -13968.95     1347.129   -15316.079    419.09542 
   19350    285.38095   -546.64833    46791.007   -13956.762    1330.4423   -15287.204    420.18328 
   19400    273.78918   -127.28389    46664.219   -13977.281    1276.4016   -15253.682    422.05472 
   19450    295.52799    740.65265     46686.05   -13944.049    1377.7476   -15321.797    422.80514 
   19500    283.28714   -292.11026    46801.617   -14003.841     1320.681   -15324.522    425.32157 
   19550    279.87655   -143.41959    46779.275   -13999.906    1304.7808   -15304.687    426.17197 
   19600    290.16119    253.49553     46782.04   -14000.455    1352.7277   -15353.183    427.97808 
   19650    287.78998    28.375135    46759.329   -13988.396    1341.6731   -15330.069    428.09347 
   19700    292.61603    380.33463    46916.708   -13969.903    1364.1721   -15334.075    431.64069 
   19750     274.2198    290.91222    47056.227   -13967.742    1278.4091   -15246.151    434.44191 
   19800    282.67535    -291.0251    47028.399   -13975.428    1317.8288   -15293.257    435.64121 
   19850    280.85281    220.02417    46980.944   -13993.439    1309.3321   -15302.771    436.40004 
   19900    277.59496    117.01573     46920.25   -14010.359    1294.1441   -15304.503    438.62665 
   19950    290.83966   -113.87992    46933.252   -14032.059    1355.8907   -15387.949    440.83736 
   20000    296.87316    119.98871    46848.985   -13981.958    1384.0188   -15365.977    440.48702 
   20050    285.27999    -172.7103    46852.281   -13999.548    1329.9716    -15329.52    440.83599 
   20100    281.75188    89.005573    46791.358   -14024.492    1313.5236   -15338.015    441.34176 
   20150    277.39097    255.63822    46695.519   -14071.238    1293.1931   -15364.431    441.71239 
   20200    281.40768    265.85716    46661.234   -14045.566    1311.9189   -15357.485    442.52204 
   20250    279.06289    275.53931    46741.547    -14043.86    1300.9875   -15344.848    444.33784 
   20300    285.33519   -77.153202    46810.092   -14044.566    1330.2289   -15374.795    445.83593 
   20350    280.25304    107.23607    46852.772   -14020.767     1306.536   -15327.303    446.72747 
   20400    284.92645    213.13352    46770.593   -14025.881    1328.3234   -15354.204    446.89944 
   20450    281.60921   -361.19509    46985.943   -14035.826    1312.8585   -15348.685    448.71449 
   20500    282.01534    337.62845    46953.975     -14049.3    1314.7518   -15364.052    450.38962 
   20550    280.41024   -25.955935    46762.956   -14076.604    1307.2689   -15383.873    450.98223 
   20600    273.69594    258.85591    46923.233    -14059.13    1275.9669   -15335.097    452.48683 
   20650    279.95623   -213.72221    47021.824   -14018.847    1305.1523   -15323.999    454.70005 
   20700    294.45981    304.96625    46761.857   -13973.819    1372.7678   -15346.587    454.79335 
   20750    284.96644    34.237765    46803.176   -14003.303    1328.5098   -15331.812    456.12728 
   20800    278.64483   -150.49979    46808.634   -14022.941    1299.0386    -15321.98    456.76787 
   20850    281.83956    217.42706    46818.234   -14046.738    1313.9323    -15360.67    458.07044 
   20900    280.31402    274.28052    46722.045    -14058.32    1306.8203    -15365.14    458.24652 
   20950    277.51396   -117.72216    46619.554    -14126.84    1293.7665   -15420.606    458.71717 
   21000     272.7021   -197.55023    46594.608   -14151.904    1271.3336   -15423.237     459.6323 
   21050     272.8348     -139.752     46504.66   -14146.602    1271.9523   -15418.554    460.54394 
   21100    283.95275   -225.44348    46407.143   -14113.855     1323.784   -15437.639    460.25782 
   21150    276.16847   -378.39985    46477.919   -14095.293    1287.4938   -15382.787    461.32076 
   21200    278.44457     -64.4888    46421.684   -14056.841    1298.1049   -15354.946    462.52021 
   21250    288.82557    111.56992    46719.069   -14044.388     1346.501   -15390.889    466.09433 
   21300     282.7449     85.67677      46839.2   -14050.778     1318.153   -15368.931    467.96582 
   21350    284.09706    55.906186      46779.9   -14025.359    1324.4568   -15349.816    468.93977 
   21400    280.74274    244.11197    46893.318   -14038.457     1308.819   -15347.276    470.03202 
   21450    279.23098   -229.26951    46788.513   -14069.512    1301.7712   -15371.283    470.78327 
   21500    279.70817    -185.8971    46702.256    -14068.92    1303.9958   -15372.916    470.91513 
   21550    284.43888    130.55855     46577.61   -14049.875    1326.0504   -15375.925    472.86287 
   21600    286.80274    72.381786    46559.637   -14023.784    1337.0706   -15360.855    473.81086 
   21650    282.31948   -167.27224    46666.574   -13990.983    1316.1697   -15307.153    474.75823 
   21700     289.0224   -165.48657    46707.623   -13976.217    1347.4186   -15323.636    476.26535 
   21750     282.0303    292.59722    46917.367   -13980.497    1314.8216   -15295.319    478.53426 
   21800    287.73283    -271.3688    46875.996    -13989.17    1341.4067   -15330.576     479.4665 
   21850    286.75465   -240.49006    46984.486   -13993.023    1336.8464    -15329.87      480.561 
   21900    283.37674    -26.90262    46935.871   -14010.914    1321.0987   -15332.013    480.90588 
   21950    283.49562    124.42563    47003.765   -14051.903    1321.6529   -15373.556    483.58756 
   22000    284.67592    257.74822    46932.612    -14078.71    1327.1554   -15405.865    484.67562 
   22050    290.38657    550.03325    47006.339   -14043.422    1353.7784   -15397.201    485.64577 
   22100    286.83275   -4.1460966    46994.776   -14050.231    1337.2105   -15387.441    486.43839 
   22150    287.73669   -16.581927    46801.667   -14066.978    1341.4247   -15408.403     487.4731 
   22200    284.45773    104.55131     46855.37    -14007.07    1326.1382   -15333.209    489.17281 
   22250    289.16949   -304.95729    47009.392   -14028.821    1348.1044   -15376.925    490.76257 
   22300    282.72214   -87.299467    46947.913   -14031.378    1318.0469   -15349.425    490.89152 
   22350    291.62662    183.76519    46997.893   -13967.125    1359.5595   -15326.684    491.61101 
   22400    297.10313   -334.75674    46980.627   -13981.412    1385.0909   -15366.503    492.02014 
   22450    278.66612    123.63441    46877.143   -14024.107    1299.1378   -15323.245    493.10816 
   22500    288.21507     -218.483    46991.952   -13922.844    1343.6549   -15266.499    494.71561 
   22550    291.98611   -386.20937    46779.602   -13940.231    1361.2354   -15301.466    494.06175 
   22600    280.68064    15.232921    46859.316   -14030.756    1308.5295   -15339.286     495.6813 
   22650    283.93649     216.0951    46715.891   -13948.457    1323.7082   -15272.165      494.997 
   22700    283.83626   -362.64273    46612.533   -13988.885    1323.2409   -15312.126    496.38662 
   22750    294.66879   -443.91177    46741.009   -13961.262     1373.742   -15335.004     497.8778 
   22800    279.43304   -109.24531    46733.173   -13991.583    1302.7132   -15294.296    499.40159 
   22850    284.59671    184.56499     46777.21   -13983.516    1326.7861   -15310.302    500.40799 
   22900    289.93167    27.173673    46678.134   -13980.474    1351.6577   -15332.131    500.23578 
   22950    293.88768    106.50758    46705.008   -13973.341    1370.1005   -15343.442    500.67424 
   23000    279.86636    -119.8126    46599.957   -14028.422    1304.7333   -15333.155    501.02944 
   23050     273.2713    268.90909    46698.578   -14077.447    1273.9872   -15351.434    502.62121 
   23100     288.1954    449.87022    46831.258   -14017.976    1343.5632   -15361.539    506.19142 
   23150    281.59572     12.18521     46877.58   -14029.348    1312.7956   -15342.143    508.59711 
   23200    282.74409    253.37542    46931.486   -14044.159    1318.1492   -15362.308    510.60938 
   23250    280.36405   -353.53213    46936.023   -14063.081    1307.0535   -15370.135    512.51178 
   23300    282.65121   -372.49845    47126.585   -14039.264    1317.7162    -15356.98    514.06064 
   23350    280.80593    38.030313    47211.024   -13989.748    1309.1136   -15298.861    515.56075 
   23400    275.30848   -146.90043     47089.03   -13989.056    1283.4845   -15272.541     515.2805 
   23450    287.89948    111.34451    46867.931    -13980.59    1342.1836   -15322.774    513.60566 
   23500    277.52022    212.70998    46889.629   -14033.495    1293.7956   -15327.291    514.50982 
   23550    282.07559   -268.46193    46954.951   -13989.745    1315.0327   -15304.778    517.41472 
   23600    274.51185    45.587462    46620.129   -14061.067    1279.7707   -15340.837    516.35015 
   23650    296.03879   -34.182615    46572.561   -14031.465     1380.129   -15411.594    518.00366 
   23700    276.06119   -198.15415    46619.688    -14099.12    1286.9936   -15386.113    519.74144 
   23750     281.2118   -307.40006    46840.078   -14093.403    1311.0057   -15404.409    522.00788 
   23800    280.91827    105.18261    46960.524   -14063.102    1309.6373    -15372.74    525.44337 
   23850    281.60672   -86.816754    46704.089   -14072.681    1312.8468   -15385.528    523.96628 
   23900    276.07384   -78.469528    46763.205   -14069.271    1287.0526   -15356.324    524.34442 
   23950    283.84038   -48.562326    46694.954   -14012.663    1323.2601   -15335.923    526.32989 
   24000    283.56211    149.46665    46646.154   -14009.202    1321.9628   -15331.165    526.97373 
   24050    282.24783      285.939    46850.563   -14013.195    1315.8357   -15329.031    530.26171 
   24100     285.8868   -36.013598    46687.887   -14036.482    1332.8005   -15369.282    529.03355 
   24150    278.46008    -704.3796    46756.545   -14054.131    1298.1773   -15352.308    529.32222 
   24200    271.81518    194.78343    46620.402   -14079.935    1267.1988   -15347.134    529.36529 
   24250    285.14494    102.27764    46677.102   -14034.428     1329.342    -15363.77    531.41676 
   24300    275.01872    139.21302    46568.292   -14075.971    1282.1337   -15358.104    531.92677 
   24350    270.96767   -74.341394    46634.123   -14056.635    1263.2477   -15319.883    535.06777 
   24400    276.80283   -7.3600959    46747.611   -14092.533    1290.4512   -15382.984     537.9561 
   24450    286.48363    541.43858    46920.178   -14056.472    1335.5829   -15392.055    541.26647 
   24500      284.696   -100.48762    47023.532   -14083.995     1327.249   -15411.244    543.47046 
   24550    284.38972    355.06861     47005.12    -14045.56    1325.8211   -15371.381    545.91138 
   24600    277.67646     436.2628    46981.402   -14028.721     1294.524   -15323.245    545.92037 
   24650    279.46119   -124.25523     46950.12   -14035.496    1302.8444   -15338.341    546.92621 
   24700    289.50756    442.10972    46972.322   -14002.513    1349.6805   -15352.193    548.24213 
   24750    284.45653   -135.13661    46993.207   -14038.501    1326.1326   -15364.634    550.97527 
   24800    285.59106   -5.6292034    46850.546   -14049.956    1331.4218   -15381.378    551.57502 
   24850    276.56055    57.719344     46981.28   -14003.554    1289.3217   -15292.875    554.58215 
   24900     296.4965   -229.48268    47027.036   -13969.275    1382.2628   -15351.537    557.48265 
   24950     287.6813   -110.55042    47039.833   -13989.129    1341.1664   -15330.295    559.32378 
   25000    287.33927    283.49158    46862.784   -13962.005    1339.5719   -15301.577    558.44012 
   25050    292.73665     226.9838    46943.678   -13971.341    1364.7344   -15336.075    560.94287 
   25100    278.89406    28.104727    47008.603   -14022.229    1300.2004   -15322.429    562.78346 
   25150    286.27715    80.452744    46982.072   -13995.859    1334.6203   -15330.479     563.6713 
   25200    282.90895   -181.97625    46959.082   -14021.928    1318.9178   -15340.846    564.12353 
   25250    284.13532   -280.83479    46760.426   -14004.174    1324.6351   -15328.809    565.16926 
   25300    283.58414   -99.244279    46818.194   -14001.246    1322.0656   -15323.312    565.23543 
   25350    286.16551    366.60264    46866.125   -14006.168    1334.0999   -15340.268    565.32152 
   25400    289.23403   -258.96701    46714.149   -13989.791    1348.4053   -15338.196    567.99422 
   25450    287.03958    158.13751      46427.9   -13973.194    1338.1748   -15311.369     566.6041 
   25500    287.38996    27.264756    46580.503   -14008.383    1339.8082   -15348.192    569.05738 
   25550    273.54342    348.47193    46650.005   -14065.978    1275.2558   -15341.234    572.05737 
   25600    289.89031    -142.3189    46732.699   -13973.202    1351.4648   -15324.667     573.2912 
   25650    282.43264    165.42369    46850.656   -14077.207    1316.6973   -15393.904    574.28732 
   25700     283.3095    79.491392    47015.782   -14032.027    1320.7852   -15352.812    576.44539 
   25750    283.00403   -152.40279     47011.25   -14044.073    1319.3611   -15363.434    577.55907 
   25800    279.37277    133.99613    47170.384    -14000.57    1302.4322   -15303.002     580.4039 
   25850    285.37276   -245.55847    47222.566   -13984.668    1330.4041   -15315.072    582.91128 
   25900    286.90735   -26.775209    47180.654   -13972.799    1337.5583   -15310.357     582.3692 
   25950    286.06534   -320.10666    47108.957    -13937.66    1333.6329   -15271.293    585.20275 
   26000    282.31777   -24.765919    46943.771   -14013.284    1316.1618   -15329.446    585.24569 
   26050    287.05453   -115.42634    46806.399   -14013.858    1338.2445   -15352.102    585.53412 
   26100    281.12031   -17.704074    46753.055   -14011.504    1310.5792   -15322.083     587.4504 
   26150    286.55357    158.10032    46694.014   -14023.024     1335.909   -15358.933    588.99364 
   26200    282.23636    335.67414    46834.777   -14003.259    1315.7822   -15319.041    590.55108 
   26250    289.94629   -144.20382    46959.445    -13967.99    1351.7258   -15319.716    593.23407 
   26300    280.04931    161.42987    46745.344   -14002.786    1305.5862   -15308.373    593.32088 
   26350    273.43452    470.74706    46774.794   -13976.766    1274.7482   -15251.514     593.7744 
   26400    288.14508   -170.50116    46759.609   -13990.795    1343.3286   -15334.124    595.23008 
   26450    286.57056   -14.088123    46699.879   -14011.382    1335.9882    -15347.37     596.1896 
   26500    282.45074    65.814615    46792.552   -14037.205    1316.7817   -15353.986    598.01193 
   26550    279.49467    211.01876    46797.274   -14068.673    1303.0005   -15371.673    600.16151 
   26600    278.16623    80.202548    46964.315   -14076.765    1296.8073   -15373.573    602.27114 
   26650    280.89816   -83.325012     46990.74   -14078.946    1309.5435   -15388.489    604.90672 
   26700    283.88123    129.29075    46973.222    -14009.99    1323.4506    -15333.44    605.63075 
   26750    284.29615    481.54117    46962.288   -14009.399    1325.3849   -15334.784    606.83048 
   26800    292.25145   -256.67247    47000.716   -14014.784    1362.4724   -15377.256    607.90415 
   26850    281.50364    -436.6825    46704.143   -14072.383    1312.3663    -15384.75    606.79518 
   26900    280.53538    388.36956    46696.112   -14114.248    1307.8523     -15422.1    605.46058 
   26950    277.21089   -597.51633    46823.109   -14107.853    1292.3535   -15400.207    607.02128 
   27000    283.32461    150.34815    46829.745   -14108.092    1320.8556   -15428.948    608.87483 
   27050    276.08274    179.26853    46843.818   -14087.406    1287.0941     -15374.5    609.74804 
   27100    283.46107    89.205169    46951.764   -14081.631    1321.4918   -15403.123    612.04949 
   27150     274.9164    494.65613    46987.474   -14069.837    1281.6566   -15351.494    613.62248 
   27200    281.73018    204.34884    46906.188   -14092.306    1313.4224   -15405.729    612.94884 
   27250    280.09149   -106.63589    46861.516   -14115.214    1305.7829   -15420.997    614.98759 
   27300    282.52505   -298.94545    46738.396   -14104.076    1317.1281   -15421.204    614.88287 
   27350    285.59757    250.96115    46764.386     -14062.1    1331.4521   -15393.552    616.75233 
   27400    282.20585   -244.18399    46939.308   -14001.504      1315.64   -15317.144    619.38925 
   27450    289.50567    33.986723    46835.695   -13964.144    1349.6717   -15313.816    619.02896 
   27500    291.50907    321.95238    46927.927    -13987.13    1359.0115   -15346.142    620.88406 
   27550    282.30247   -281.01313    46864.288   -14014.183    1316.0904   -15330.274    620.27638 
   27600    285.75857    74.934857    47028.845   -14002.057    1332.2027   -15334.259    622.56376 
   27650    282.37408   -423.86272    46857.207   -14023.024    1316.4242   -15339.448    622.03218 
   27700    297.63588    -478.4313    46787.751    -13972.29    1387.5746   -15359.865    621.45014 
   27750    290.73762    -575.4927     46673.93   -13976.478     1355.415   -15331.893     623.1017 
   27800    296.48797    625.54461    46821.689   -13920.928     1382.223   -15303.151    625.85069 
   27850    282.56977    157.01414    46982.072   -14003.207    1317.3366   -15320.544    627.96395 
   27900    283.00182    619.66174    47035.065   -14064.406    1319.3508   -15383.756    628.83896 
   27950    272.54086    310.28136    46971.126   -14045.148    1270.5819    -15315.73    628.11542 
   28000    283.93087     38.41201    47052.038   -14018.185     1323.682   -15341.867    629.38411 
   28050    284.08155    -252.1041    47142.994   -13988.241    1324.3845   -15312.626    631.22095 
   28100    288.28574   -474.17494    46967.626   -14009.656    1343.9843    -15353.64    629.71793 
   28150    276.78493   -382.84676    46738.574   -14060.869    1290.3677   -15351.237     630.3008 
   28200    276.44041    16.195405    46798.895    -14055.47    1288.7616   -15344.231    631.26804 
   28250    283.61974   -283.32129     46823.24   -14020.263    1322.2315   -15342.495    632.65494 
   28300    279.44497    38.345925    46794.626   -14045.844    1302.7688   -15348.613    633.98951 
   28350    273.59206    43.429884    46839.544   -14050.269    1275.4826   -15325.751    636.65807 
   28400    277.64915     23.87332    46794.573   -14110.327    1294.3967   -15404.724    637.76461 
   28450    281.83942    406.44563    46799.678   -14065.939    1313.9317   -15379.871    637.90952 
   28500    286.96219    299.52226    47035.747   -14041.221     1337.814   -15379.035    641.45469 
   28550    292.06588    34.745427    46812.859   -14010.439    1361.6073   -15372.047    640.77542 
   28600    280.21357    383.99782    46717.883   -14036.553     1306.352   -15342.904    642.94142 
   28650    283.34833    84.451884    46702.174   -14031.077    1320.9662   -15352.043     643.4163 
   28700    280.49362    -77.00756    46951.834   -14014.799    1307.6576   -15322.457    647.55631 
   28750    278.33309    187.72757    46976.873   -14006.741    1297.5852   -15304.326    650.02979 
   28800    287.89831   -22.008655    47050.489   -13988.451    1342.1781   -15330.629    653.02389 
   28850    285.81836    153.84445    46991.493   -13980.273    1332.4815   -15312.755    654.88181 
   28900    283.23943    327.62534    47010.752   -14024.763    1320.4585   -15345.222    656.72131 
   28950    287.35245   -11.228225     46926.52   -14054.216    1339.6334   -15393.849    656.40041 
   29000    284.56673    172.57704    47087.745   -13984.639    1326.6464   -15311.285    659.68109 
   29050    282.32668    21.026583    47139.416   -14000.323    1316.2033   -15316.526    660.88006 
   29100    282.16358    105.27255    47123.238   -13946.618    1315.4429   -15262.061     660.0049 
   29150    288.80799   -84.822237    47090.985   -13989.405    1346.4191   -15335.824    661.98359 
   29200    290.37952    72.566151    47192.646   -14020.514    1353.7455    -15374.26     663.8391 
   29250     286.3565   -17.563209    46924.001    -14034.95    1334.9902    -15369.94    664.21511 
   29300    282.85924   -301.07944    46775.022   -14054.889    1318.6861   -15373.575     663.1288 
   29350    274.78328     186.7186    46957.911   -14091.131    1281.0361   -15372.167    665.85545 
   29400    277.30518     70.57601    46949.925   -14080.144    1292.7931   -15372.937    666.65413 
   29450     277.5038    73.244008    46785.411   -14100.795    1293.7191   -15394.514    664.99102 
   29500    286.50212    147.89654    46912.538   -14085.507    1335.6691   -15421.177    666.90164 
   29550    288.12316    251.00208    46905.074   -14014.658    1343.2264   -15357.884    670.29614 
   29600    283.00263    784.64632    46958.154   -14045.627    1319.3545   -15364.981    674.29227 
   29650    286.71638   -84.269748    47012.112   -14079.555     1336.668   -15416.223    675.96046 
   29700    282.20905    249.83453     46884.82   -14093.596    1315.6549   -15409.251    678.31057 
   29750    280.77008   -6.3764605    47094.005   -14076.287    1308.9465   -15385.234     682.0166 
   29800    288.60973   -352.15735    46976.072   -14074.651    1345.4948   -15420.146     682.0705 
   29850    278.63581    179.40878    47033.576   -14080.718    1298.9965   -15379.714    683.35274 
   29900    290.72349   -90.213581    47002.949   -14026.814    1355.3491   -15382.163    684.19713 
   29950    279.57811    39.366324    46960.357   -14036.477    1303.3895   -15339.867    686.23424 
   30000     279.2868   -259.18107    46743.425   -14046.054    1302.0314   -15348.085    684.57867 
   30050    280.84163   -209.53996    46828.626   -14039.451      1309.28   -15348.731     687.5683 
   30100    287.21406   -87.524084    46757.389   -14042.908    1338.9882   -15381.896    688.22131 
   30150    282.54806   -285.68513    46631.432   -14062.402    1317.2354   -15379.637    687.82795 
   30200      282.851    225.32155    46751.687   -14040.429    1318.6477   -15359.077    689.00512 
   30250    292.11833    591.08146    46959.913   -14004.071    1361.8518   -15365.923    693.09751 
   30300    280.34267    -99.13752    47000.016   -13945.623    1306.9539   -15252.577    694.14996 
   30350    290.24613    106.52218     46970.95   -13954.728    1353.1237   -15307.852    696.05698 
   30400    281.06743   -441.51463    46908.253    -14007.45    1310.3327   -15317.783    697.67847 
   30450    278.95034    259.01603    46931.942    -13998.72    1300.4628   -15299.183    699.04039 
   30500    290.27861   -276.00372    46866.259   -14020.239    1353.2751   -15373.514    699.32947 
   30550    296.90607   -156.84202    46901.056   -13995.948    1384.1722    -15380.12    701.71609 
   30600    278.99387     320.5251    46985.749    -14031.85    1300.6658   -15332.515    704.59439 
   30650     283.3876   -170.25603    47006.488   -14022.411    1321.1493    -15343.56    706.06091 
   30700    287.95671   -553.75298     46878.44    -14007.02    1342.4504    -15349.47    707.05487 
   30750     288.1875    235.30455    46913.788   -13993.847    1343.5264   -15337.374     708.6447 
   30800    277.55197    33.307534      47057.6   -14038.519    1293.9437   -15332.462    711.95053 
   30850    283.39704   -179.26091    46989.545   -14105.684    1321.1933   -15426.878    712.96709 
   30900     278.2908    230.22097    47016.249   -14085.879    1297.3881   -15383.267    713.67025 
   30950    272.69042   -73.696352    47243.337   -14118.726    1271.2792   -15390.005     717.1064 
   31000    279.52655   -553.36193    47142.928   -14092.623    1303.1491   -15395.773     716.3421 
   31050    272.14077   -343.26174    47009.433   -14117.616    1268.7167   -15386.333     715.8321 
   31100    283.04382   -413.93185    47044.883   -14086.783    1319.5466    -15406.33    718.33583 
   31150    273.06112    19.777566    46953.422    -14103.81    1273.0074   -15376.818    719.01638 
   31200     267.2951    -35.99673    46944.669   -14119.227    1246.1263   -15365.353    720.16601 
   31250    286.56491   -247.73994    46859.679   -14022.462    1335.9619   -15358.424    719.94543 
   31300    283.95853    105.81355     46837.01    -14007.99     1323.811   -15331.801    721.33568 
   31350    288.17615    25.782662     46739.74   -14020.026    1343.4734   -15363.499    720.19366 
   31400    272.76508    79.416479    46988.934   -14095.989    1271.6272   -15367.616    726.03098 
   31450    274.53514    1.1705208    47154.377   -14072.538    1279.8792   -15352.417     729.7006 
   31500    293.34451   -2.0225237    47091.601   -13961.757    1367.5683   -15329.325    730.47229 
   31550    283.02263    341.76468    47050.007    -14024.85    1319.4478   -15344.297    731.83862 
   31600    281.14804    146.84118    47113.084   -14034.401    1310.7085   -15345.109    734.17144 
   31650    279.88342    119.36256     47279.54   -14049.653    1304.8128   -15354.466    736.92921 
   31700    289.43399    8.9198297    47488.399   -14016.404    1349.3375   -15365.741    739.77868 
   31750    284.51352    42.462567    47310.187   -13990.841    1326.3983    -15317.24    739.47766 
   31800    286.62673   -502.46195     47339.43   -13966.473    1336.2501   -15302.723    740.66765 
   31850    284.32374   -481.91747    47122.684   -13971.972    1325.5136   -15297.486    740.58964 
   31900    286.78831   -245.35074     46976.43    -13983.88    1337.0034   -15320.883    739.94349 
   31950    282.46435   -219.32469    46958.418   -13988.302    1316.8451   -15305.147    739.83279 
   32000    282.77655    -135.9781     46967.58   -13998.868    1318.3006   -15317.168    741.44621 
   32050    282.57311    77.496938    46817.735   -14010.092    1317.3522   -15327.444    741.41469 
   32100    285.28794    -248.2365    46769.728   -14014.098    1330.0086   -15344.106    742.48953 
   32150    283.65043   -150.50578    46758.854   -14002.383    1322.3746   -15324.758    743.28196 
   32200    294.60454   -276.79534    46729.282    -13985.92    1373.4425   -15359.363     744.2684 
   32250    287.58285   -33.476715    46856.681    -13957.53    1340.7075   -15298.237    743.61566 
   32300    292.24223    23.734499    46891.265   -13935.895    1362.4295   -15298.324    744.79986 
   32350    279.25354    17.091061    46727.269   -14028.205    1301.8764   -15330.081    744.92495 
   32400    286.20604   -301.91477    46719.148   -14020.156    1334.2888   -15354.445    745.08362 
   32450    286.21881   -48.667475    46808.297   -14018.726    1334.3484   -15353.074    745.63834 
   32500    274.00378    175.60452    46665.821   -13983.632    1277.4021   -15261.034    745.20995 
   32550    284.46608    277.56553    46795.145   -13981.672    1326.1771    -15307.85    746.16135 
   32600    289.21628   -96.178673    47095.896   -14013.489    1348.3225   -15361.812    750.43912 
   32650    284.17874   -456.23258    46916.716   -14063.149    1324.8376   -15387.986    749.74599 
   32700    279.62204    456.02068     47047.22   -14057.861    1303.5943   -15361.455    752.64726 
   32750    276.80576   -345.62506    47008.812   -14076.416    1290.4648   -15366.881     753.8411 
   32800    273.24292    -264.9528    46783.646   -14114.939    1273.8549   -15388.794    752.34854 
   32850    287.37633    -121.8249    46831.357    -14082.05    1339.7447   -15421.794    753.65244 
   32900    279.59028   -167.03582    46734.427   -14111.122    1303.4462   -15414.569     755.3089 
   32950    267.95429    152.55565    47020.535   -14127.484    1249.1994   -15376.684    760.42242 
   33000    272.19462   -12.810296    46924.567   -14048.308    1268.9677   -15317.275    761.75678 
   33050    285.49766   -184.39232    46787.788   -14016.495    1330.9863   -15347.481      760.624 
   33100    284.00318    3.3632993    46875.801   -14012.981    1324.0191   -15337.001    763.53024 
   33150    275.38606    395.49264    46949.694   -14039.803    1283.8462   -15323.649    765.97594 
   33200    280.97497   -290.98166    46818.869   -14010.528    1309.9016    -15320.43    764.82225 
   33250    285.78156   -334.28595    46854.372   -13945.519    1332.3099   -15277.829    769.14563 
   33300    290.55081   -297.26498    46797.181   -14001.434    1354.5441   -15355.978    769.17229 
   33350    283.88642    -101.6616    46733.128   -14054.676    1323.4748   -15378.151    771.66544 
   33400    281.81898    -158.4724    46680.503   -13996.815    1313.8364   -15310.652    772.82803 
   33450    280.18186   -158.06475    46546.331   -14024.322    1306.2042   -15330.526    771.28348 
   33500    287.68223    161.21129    46705.611   -14013.731    1341.1708   -15354.902    773.81743 
   33550    283.70675    117.43371    46756.843   -14011.341    1322.6372   -15333.978    774.84734 
   33600    279.13989    249.21744    46985.472   -13974.942    1301.3465   -15276.289    778.18374 
   33650    278.43624   -106.79935    47013.677   -14000.955    1298.0661   -15299.021    780.88686 
   33700    281.15316    185.45482    47022.668   -14020.112    1310.7323   -15330.844    781.51319 
   33750    278.82117   -27.459076    46975.282   -13998.472    1299.8606   -15298.333    780.74866 
   33800    277.44975   -112.19692    46807.017   -13991.395    1293.4671   -15284.862    781.21105 
   33850    277.09989    392.69882    46687.746    -14011.03    1291.8361   -15302.866    781.07329 
   33900    289.00572    154.79169    46685.108   -14019.695    1347.3409   -15367.036    781.79128 
   33950    285.19173    382.71924    46593.338   -13985.555    1329.5601   -15315.115    783.76394 
   34000    279.32769    66.311887    46787.868   -14004.966     1302.222   -15307.188     785.4067 
   34050    290.27087   -324.22874    46819.332   -14025.923     1353.239   -15379.162    788.75425 
   34100    285.91307    359.38636    46800.219   -14034.421     1332.923   -15367.344    789.27392 
   34150    282.36844   -257.80833    46816.234   -14007.718     1316.398   -15324.116    789.02088 
   34200    274.91217    171.28138    46822.355   -14079.093    1281.6369    -15360.73    788.53362 
   34250    286.01717    105.20119    47046.146   -14028.977    1333.4083   -15362.386    791.46969 
   34300    285.87397   -215.34538    46986.893   -13962.163    1332.7407   -15294.904    790.08477 
   34350    292.09427   -311.90525     46877.14   -13954.276    1361.7397   -15316.016    788.58225 
   34400    282.78017   -169.51461    46803.498   -13977.566    1318.3174   -15295.883    788.25795 
   34450    281.24146    33.783825    46705.628   -14001.863     1311.144   -15313.007    790.38893 
   34500    290.33112    190.93189    46767.567   -13980.748    1353.5199   -15334.268    792.91233 
   34550    290.29781     336.3253    46954.769   -13996.825    1353.3646   -15350.189    795.62314 
   34600    277.05466   -2.7584459    47153.359   -14031.052    1291.6252   -15322.677    800.59118 
   34650    279.60005   -328.30629    46900.154   -14089.823    1303.4918   -15393.315    799.59399 
   34700    284.31393   -82.867331     46964.85   -14050.527    1325.4678   -15375.995    803.26922 
   34750    271.45327   -144.10017    46867.446   -14072.977    1265.5116   -15338.488    803.35594 
   34800    276.72535   -228.74955    46791.271   -14062.221      1290.09   -15352.311    805.62153 
   34850    283.14297    33.976834    46932.085   -14050.047    1320.0088   -15370.055    807.13263 
   34900    274.84343    488.38049    47059.378   -14051.095    1281.3165   -15332.412     808.5785 
   34950    276.47658   -335.34347    47002.829   -14118.773    1288.9302   -15407.703    809.53169 
   35000    282.47204   -108.85613    46877.815   -14087.788     1316.881   -15404.669    809.22688 
   35050    278.98658    106.78673    47015.293   -14041.881    1300.6318   -15342.513     813.4511 
   35100    285.96645    314.49342    46954.104   -14000.149    1333.1719   -15333.321    816.65195 
   35150    276.61447   -281.57242    46888.704   -14064.765     1289.573   -15354.338    817.25837 
   35200    285.68077   -103.92057    46843.517   -14023.167      1331.84   -15355.007    818.74692 
   35250    280.57091   -338.50192    46881.938   -14057.955    1308.0179   -15365.972    819.45627 
   35300    280.90372    73.315536    46757.375   -14061.789    1309.5695   -15371.358    818.43819 
   35350    281.32098    167.43585     46728.78   -14053.948    1311.5147   -15365.463    819.58912 
   35400    282.86678    207.57477    46821.027    -14008.67    1318.7212   -15327.392    823.52252 
   35450     287.5107     228.9936    46797.602   -13965.271    1340.3711   -15305.642    823.45939 
   35500    282.09029   -247.51717    46773.957   -13983.487    1315.1012   -15298.588    825.19185 
   35550    291.68446    205.52428    46861.763   -14005.524    1359.8292   -15365.353    828.24498 
   35600    290.68755   -396.41176    46966.557   -13957.698    1355.1815    -15312.88    830.62958 
   35650    289.47153   -141.62805    47030.418   -13963.255    1349.5125   -15312.768     832.0687 
   35700    281.14708   -250.68422     47187.82    -14017.61     1310.704   -15328.314    834.11179 
   35750    287.94257   -416.16404    47055.361   -13988.906    1342.3845    -15331.29      833.604 
   35800    282.93806   -551.63586    46826.766   -13988.734    1319.0535   -15307.787    832.41824 
   35850    289.22938    111.77453    46760.439   -13952.203    1348.3836   -15300.586    832.60509 
   35900    300.41542    641.64781    46787.362   -13923.277    1400.5328    -15323.81    834.25131 
   35950    295.09207    250.45025    46967.703   -13942.497    1375.7154   -15318.212    837.74929 
   36000    292.87632    -75.53065    47224.305   -13928.357    1365.3856   -15293.743    840.78624 
   36050    288.43522   -419.79726    47141.704   -14003.462    1344.6812   -15348.143     840.5846 
   36100     289.6941    -228.7161    47025.618   -14009.649    1350.5501     -15360.2     841.1634 
   36150    281.95962   -268.56192    47165.667   -14047.163    1314.4921   -15361.655    843.11991 
   36200     293.7279    56.588007    47004.132   -14071.825    1369.3556    -15441.18    841.56642 
   36250    279.47983    132.59346    47109.112   -14092.003    1302.9313   -15394.934    843.93094 
   36300    276.42123   -507.32681    46999.119   -14104.848    1288.6722   -15393.521    844.84014 
   36350     288.4226    170.01215    47118.552   -14029.735    1344.6224   -15374.357    846.30865 
   36400    287.09004    7.6120333    47088.024   -13986.984      1338.41   -15325.394    847.80418 
   36450    286.29155    209.89583    46961.779   -13971.742    1334.6875    -15306.43    849.12624 
   36500    285.35416   -310.86439     47063.72   -14020.617    1330.3173   -15350.934    852.92406 
   36550    266.88172   -510.62235    46980.942   -14130.118    1244.1991   -15374.317    852.12971 
   36600    277.18835       5.0928     46805.54   -14106.258    1292.2484   -15398.507    849.98461 
   36650    282.31088     68.64625    46806.426   -14042.479    1316.1296   -15358.609    850.12262 
   36700    286.79089    111.72918    46666.229   -14061.021    1337.0154   -15398.036    850.31208 
   36750    282.31183   -209.02881    46674.657   -14023.236    1316.1341    -15339.37    851.12272 
   36800    278.59536    4.5775485     46844.22   -14077.781    1298.8079   -15376.589    854.21175 
   36850    282.77646   -10.292485    46878.853    -14045.06    1318.3002    -15363.36    854.95192 
   36900    278.98329   -306.49093    46672.056   -14025.053    1300.6164   -15325.669     852.2248 
   36950     278.8925    226.50055    46706.382   -13986.653    1300.1932   -15286.846    854.22155 
   37000    277.34818     12.34032    46605.951   -14016.979    1292.9936   -15309.973    855.24182 
   37050    290.17096   -294.94021    46574.342    -14000.94    1352.7732   -15353.713    854.49564 
   37100    283.25846   -86.074337    46956.709   -14016.351    1320.5472   -15336.898    860.97865 
   37150      288.222     29.57715    46882.323    -14041.25    1343.6872   -15384.937    861.66595 
   37200    284.01371   -295.14665    46910.325   -14083.778    1324.0682   -15407.846     862.9197 
   37250    271.55005   -14.570873    46750.301   -14040.699    1265.9628   -15306.662    862.15796 
   37300    283.48326   -171.76222    46735.571   -14072.144    1321.5953    -15393.74    862.41556 
   37350    285.54652    300.12298    47036.474   -14063.325    1331.2142    -15394.54    866.22984 
   37400    281.08166    -29.87033    47057.223   -14042.974     1310.399   -15353.373    866.34759 
   37450     278.8024   -606.07115    46950.133    -14084.64    1299.7732   -15384.413    865.01349 
   37500    282.53573   -499.71228    46779.658   -14057.891    1317.1779   -15375.069    865.76708 
   37550    283.10363   -327.68432    46863.529   -14046.861    1319.8254   -15366.687    866.61221 
   37600    287.21375    460.37396    46941.823   -14022.562    1338.9867   -15361.549    870.29819 
   37650    273.33508    77.152399     47024.25   -14065.927    1274.2846   -15340.211    873.17256 
   37700    277.66436    158.09615    46974.869   -14128.829    1294.4676   -15423.297    874.43499 
   37750    270.99217    2.8754672    47076.742   -14136.194     1263.362   -15399.556    878.96022 
   37800     272.5197   -242.26274    47105.111   -14144.422    1270.4833   -15414.905    879.76858 
   37850    282.54268    -128.1114    47070.373   -14080.396    1317.2103   -15397.606     879.1992 
   37900    274.71534    8.5322548    47103.246   -14089.745    1280.7193   -15370.464    880.89287 
   37950    286.79232    143.90851    47120.895   -14055.938    1337.0221    -15392.96    882.72056 
   38000    284.34783   -683.31862    47080.506   -14066.991    1325.6259   -15392.617    883.23442 
   38050     291.6952    369.86334    47189.243    -14016.56    1359.8792   -15376.439    884.99163 
[...]
   91550    284.39022     195.0664    46454.149   -13999.785    1325.8235   -15325.609    2097.7549 
   91600    286.49019   -151.86453    46582.137   -14032.842    1335.6135   -15368.455    2100.8038 
   91650    282.04115   -397.58087    46573.834   -14039.665    1314.8722   -15354.537    2104.6776 
   91700    276.51025    77.623858     46516.96   -14090.374    1289.0872   -15379.461    2101.8069 
   91750    277.55174    19.844188    46521.663    -14046.45    1293.9426   -15340.392    2106.6326 
   91800    278.76747    38.869078    46761.841   -14076.914    1299.6103   -15376.525     2116.863 
   91850    280.09698    -349.8701     46628.14   -14021.216    1305.8085   -15327.025    2112.2132 
   91900     279.0915   -23.908741    46687.354    -14039.04    1301.1209    -15340.16    2118.2991 
   91950    274.08101     108.4607     46762.59   -14066.794    1277.7621   -15344.556    2121.9423 
   92000    282.12533   -73.023942    46633.487    -14047.71    1315.2646   -15362.975    2120.0517 
   92050    284.18732   -150.15097      46578.2    -14092.41    1324.8775   -15417.288     2119.318 
   92100    274.36623   -82.506137    46648.357   -14115.758    1279.0918    -15394.85    2124.1219 
   92150    290.90035    576.94248    46783.552    -14071.62    1356.1736   -15427.794    2129.8335 
   92200    284.94633   -95.429013    46788.424   -13997.827    1328.4161   -15326.243    2130.3867 
   92250    285.55403    145.15638    46738.881   -13960.446    1331.2491   -15291.695    2130.6314 
   92300    283.98553   -94.443056    46892.637   -13933.314    1323.9368   -15257.251    2134.6847 
   92350    294.38945    364.31722    46996.433   -13931.749    1372.4398   -15304.189    2141.2661 
   92400    287.03505   -96.408167    47079.202   -13991.781    1338.1537   -15329.934    2143.9986 
   92450     287.3513   -256.62322    47005.551   -14002.144     1339.628   -15341.772    2143.7223 
   92500    279.90734    80.787565    47013.472     -13994.9    1304.9243   -15299.824    2143.0291 
   92550    278.55755   -623.40424    46986.577   -14006.182    1298.6317   -15304.814     2142.192 
   92600    281.20495    92.567312     47000.22   -13998.182    1310.9738   -15309.155    2142.3285 
   92650    289.17562    356.10251    46882.914   -14002.069     1348.133   -15350.202    2138.2584 
   92700     285.7478    189.90399    46708.088   -14040.084    1332.1525   -15372.236    2133.9337 
   92750    283.30864    74.301978    46803.269   -14040.905    1320.7812   -15361.686    2140.3034 
   92800    287.90331    296.29194    46745.561   -14014.044    1342.2015   -15356.246    2139.3385 
   92850    283.34288    34.851662    46634.773   -14015.417    1320.9408   -15336.358    2136.9054 
   92900    284.12052    52.996675    46724.864    -14008.36    1324.5661   -15332.927    2140.9422 
   92950    280.45656   -60.249976     46792.92    -14019.29    1307.4848   -15326.775    2145.5926 
   93000    293.48556    6.8733494    46785.906   -13952.782    1368.2258   -15321.008    2147.9624 
   93050    288.80868   -176.71829    46927.227   -13934.966    1346.4223   -15281.388    2155.1312 
   93100     286.4593   -67.365056    47112.469   -13941.062    1335.4695   -15276.531    2160.8685 
   93150    280.87229   -25.224029    47108.056   -13988.224    1309.4229   -15297.647    2161.2682 
   93200    289.02101   -3.0884675    47094.391   -14001.298    1347.4122    -15348.71    2160.5723 
   93250    286.18365    292.29196    47301.972    -13997.31    1334.1845   -15331.495    2168.3513 
   93300    284.15717    226.67523    47198.213   -13964.599     1324.737   -15289.336    2165.6925 
   93350    277.89387   -256.15884    47180.472    -14020.64    1295.5376   -15316.178    2167.9855 
   93400     280.6527    31.558541    46873.622   -14053.692    1308.3992   -15362.092    2159.6502 
   93450    286.40231      69.1552    46774.701   -14032.314    1335.2038   -15367.517    2155.0926 
   93500    280.08789    26.359828    46980.491   -14121.075    1305.7661   -15426.841      2165.55 
   93550    272.39025    389.88002    46902.651   -14122.217    1269.8798   -15392.097    2164.3007 
   93600    276.34982   -259.26194    46974.978   -14107.818    1288.3393   -15396.157    2168.7289 
   93650    280.91103    305.55286    47053.375   -14088.511    1309.6036   -15398.114    2171.5063 
   93700    284.47221    179.08311    47261.657   -14077.752    1326.2057   -15403.958     2180.214 
   93750    281.50993    128.68014    47278.323   -14005.502    1312.3956   -15317.897    2181.3359 
   93800    290.34804    180.52512    47411.701   -14027.773    1353.5988   -15381.372    2185.8474 
   93850    277.97893   -316.99289    47346.843   -14080.371    1295.9341   -15376.305    2185.9723 
   93900    286.31944    -96.25461    47283.881   -14109.672    1334.8175    -15444.49    2182.9011 
   93950    281.17922   -290.79113    47207.706   -14100.861    1310.8538   -15411.715    2183.3614 
   94000    282.04802    41.892778    47180.044   -14107.335    1314.9042   -15422.239    2183.8794 
   94050    277.90593    -395.6214    47144.489   -14090.898    1295.5938   -15386.492    2185.2674 
   94100    285.91232   -389.18765     47113.73   -14122.277    1332.9195   -15455.196    2185.3066 
   94150    279.89042    137.43128    47211.027   -14092.123    1304.8455   -15396.968    2191.3477 
   94200    277.02641   -164.68947    47073.699    -14094.74    1291.4935   -15386.233    2186.6918 
   94250     285.4264   -191.64593    47004.032    -14040.56    1330.6541   -15371.214    2182.9045 
   94300    289.41471   -440.21688    46866.512   -14024.513    1349.2476    -15373.76    2181.0058 
   94350    287.77729    417.12233    46815.106   -13982.387     1341.614   -15324.001     2179.277 
   94400    280.14555    218.07963     46767.71   -13973.336    1306.0349   -15279.371     2178.971 
   94450    286.79515   -485.11973     46704.02   -13941.951    1337.0352   -15278.986    2177.6946 
   94500    289.04753    26.216601    46748.461   -13955.602    1347.5358   -15303.138    2181.7495 
   94550    282.95731    194.64248    46815.619   -14001.899    1319.1433   -15321.043    2179.9541 
   94600    286.47157    120.87183    46947.761   -14014.565    1335.5267   -15350.092    2184.0211 
   94650      271.829    4.8007235    46812.787    -14032.87    1267.2633   -15300.134    2181.9693 
   94700    279.38342   -341.92955    46700.173   -14025.622    1302.4818   -15328.103    2179.4777 
   94750    284.96848   -75.025324    46585.032    -13990.03    1328.5193   -15318.549    2179.2711 
   94800    282.74678   -16.689003    46400.888   -13994.406    1318.1618   -15312.567    2175.6649 
   94850    286.25208   -239.66036    46548.517   -13924.105    1334.5035   -15258.608    2181.4198 
   94900    280.25131   -195.05609    46562.679   -13976.848    1306.5279   -15283.376    2181.3436 
   94950    284.65187   -62.235024     46531.34   -13958.025    1327.0433   -15285.068    2180.5032 
   95000     290.2878   -79.263667     46700.25   -13924.109    1353.3179   -15277.427    2187.9167 
   95050    291.42549    195.25963    46751.354   -13972.215    1358.6218   -15330.837    2189.6696 
   95100     288.0652     176.9416    46857.282   -13974.115    1342.9562   -15317.071    2193.3918 
   95150    286.26425   -325.18332    46966.148   -13951.612    1334.5602   -15286.172    2197.4932 
   95200    290.79832   -137.81095    46772.448   -13983.363     1355.698   -15339.061    2190.9068 
   95250    289.88794    117.96972    46774.991   -13890.072    1351.4538   -15241.525     2192.774 
   95300    286.34309    -127.4906      46879.2    -13943.73    1334.9277   -15278.658    2196.3052 
   95350    289.84105   -138.14133    47025.031   -13912.472    1351.2352   -15263.707    2202.0554 
   95400    287.55425    39.379068    47226.959   -13944.123    1340.5742   -15284.697    2211.7904 
   95450    297.56052    -71.92695    47143.903   -13940.744    1387.2233   -15327.967    2211.0324 
   95500    291.52218    134.42606    47096.337   -13988.635    1359.0726   -15347.708    2209.4763 
   95550     287.6571    301.99487    47135.652   -14016.267    1341.0536   -15357.321    2213.3772 
   95600    283.99854   -330.24897    47150.976   -13967.126    1323.9975   -15291.123    2216.6856 
   95650     289.8138    243.35746    47072.353   -14005.314    1351.1081   -15356.422    2217.6407 
   95700    278.55956   -172.12025    46915.834   -14041.519     1298.641    -15340.16    2212.5374 
   95750    281.83383      167.168    46762.903   -14050.947    1313.9056   -15364.852    2208.1159 
   95800    279.44696   -12.735961    46765.561   -14056.604    1302.7781   -15359.382    2210.5514 
   95850    274.72326    223.27687     46842.75   -14033.886    1280.7563   -15314.642    2214.0458 
   95900    282.17271   -27.588457    46707.757   -14026.092    1315.4855   -15341.577    2212.5242 
   95950    277.27103    33.287605    46815.059   -14095.048    1292.6339   -15387.682    2219.0486 
   96000    274.95898     15.03144    46795.671   -14070.973    1281.8552   -15352.828    2219.7795 
   96050    272.72834   -199.88064    46698.947   -14032.409    1271.4559   -15303.865    2217.9145 
   96100    282.42018   -35.253239    46739.229   -14040.804    1316.6392   -15357.443    2218.7383 
   96150     277.8956   -151.55725    46768.054   -14035.983    1295.5456   -15331.529    2218.3479 
   96200    289.04542   -254.15546    46675.919   -14033.071    1347.5259   -15380.597    2212.4509 
   96250    283.11329   -309.33631    46509.842   -14008.287    1319.8705   -15328.157    2209.3632 
   96300    286.97895    281.85895    46713.522   -14024.226    1337.8921   -15362.118    2218.4859 
   96350    288.24538   -232.30597    46817.162   -13998.725    1343.7962   -15342.522    2223.0343 
   96400    284.11573   -402.65709    46673.754   -14000.963    1324.5438   -15325.507    2218.0688 
   96450    278.11851    331.14915     46653.38   -14072.357    1296.5848   -15368.942    2218.1372 
   96500    277.58479    93.450246    46882.928    -14032.15    1294.0967   -15326.246    2228.1746 
   96550    283.25827    6.7643046    46929.099   -14031.191    1320.5463   -15351.737    2230.3134 
   96600    277.86738    32.110963    46832.226   -14048.788    1295.4141   -15344.202    2228.8149 
   96650    270.64699   -45.275762    46950.245   -14094.322    1261.7527   -15356.075    2234.9665 
   96700    270.54115    27.418981    47106.135    -14138.88    1261.2593   -15400.139    2238.7058 
   96750    268.03008    391.08449     47155.89   -14136.037    1249.5527    -15385.59    2243.1297 
   96800    277.36594    310.70731    47165.171   -14084.647    1293.0764   -15377.723    2245.4111 
   96850    277.40369    221.67459    47245.449   -14044.415    1293.2524   -15337.667    2250.0208 
   96900    284.07777    119.27526    47034.071   -14054.082    1324.3669   -15378.449     2244.727 
   96950    280.10078    229.96019    46990.586   -14047.883    1305.8262   -15353.709     2244.157 
   97000    284.25209   -346.46597    46917.698   -14018.021    1325.1795   -15343.201    2244.1023 
   97050    274.62477   -12.099062      46661.6   -14054.832    1280.2971   -15335.129     2236.089 
   97100    281.45629   -315.77137    46792.695   -14041.199    1312.1456   -15353.345    2239.1128 
   97150    280.50597    87.765094     46874.41   -14072.731    1307.7152   -15380.446    2242.3859 
   97200    270.72701    155.54589    46972.125   -14113.215    1262.1258    -15375.34    2250.2809 
   97250    283.16413   -652.36302    46999.176   -14056.239    1320.1075   -15376.346    2249.9907 
   97300     280.6406    309.30715    46984.106   -14095.038    1308.3428   -15403.381    2251.3748 
   97350     278.4505   -251.48302    46957.889   -14065.042    1298.1326   -15363.174    2250.3303 
   97400    276.90107    109.47463    46808.858   -14068.313    1290.9092   -15359.222    2248.8212 
   97450    295.71386   -15.349546    46777.299   -13989.263    1378.6142   -15367.877    2250.2742 
   97500    288.68066   -51.448224    46824.009   -14008.375    1345.8254   -15354.201    2252.0619 
   97550     280.9416   -376.41381    46854.031   -14061.245    1309.7461   -15370.991    2252.8058 
   97600      278.035   -104.39306    46919.567   -14086.612    1296.1955   -15382.808    2254.8702 
   97650    289.40045    275.42525     46918.15   -14000.792    1349.1811   -15349.974    2254.7864 
   97700    288.58029    372.89033     47023.06    -13996.36    1345.3575   -15341.717    2259.2657 
   97750    282.26059   -215.90893    46934.691   -13996.608    1315.8952   -15312.503    2257.1364 
   97800    289.97071    201.54413    46844.572   -13972.044    1351.8397   -15323.884    2252.5583 
   97850    290.70442    -321.3579    46907.535   -13965.137    1355.2602   -15320.397      2256.65 
   97900    290.88283   -86.896136    46924.385   -13977.511     1356.092   -15333.603    2257.2218 
   97950    287.83928    286.96119    46797.094   -13990.234    1341.9029   -15332.136    2253.2182 
   98000    284.88711    288.09642    46949.415   -13954.211      1328.14   -15282.351    2259.7959 
   98050    284.76578    15.788606    46926.461   -14033.791    1327.5744   -15361.365    2262.3149 
   98100    288.11385    18.562913    46893.925     -14027.6     1343.183   -15370.783    2263.5532 
   98150    282.14141   -332.23822    46703.536    -14017.35    1315.3396    -15332.69    2259.1283 
   98200    286.99958    52.034813    46494.402   -14001.885    1337.9883   -15339.873    2254.8859 
   98250    282.10074    37.204694    46702.012   -14038.377    1315.1499   -15353.527    2262.7698 
   98300     277.1721   -306.33004    46608.843   -14032.053    1292.1727   -15324.225    2261.8569 
   98350    279.66487    111.29956    46946.859   -14054.552     1303.794   -15358.346    2272.4956 
   98400    276.58804   -229.55824    46929.477   -14066.027    1289.4498   -15355.477    2275.6285 
   98450    279.95871   -146.96382    46893.717    -14033.43    1305.1639   -15338.594     2274.929 
   98500    278.35232    237.21473    47037.727    -14030.88    1297.6749   -15328.555    2284.2229 
   98550    281.32659   -184.76698    47036.821   -14085.267    1311.5409   -15396.807    2287.9582 
   98600    279.40499   -304.85173    46972.126   -14141.663    1302.5824   -15444.245    2288.3757 
   98650    277.08811   -6.8341895     46875.69   -14093.515    1291.7811   -15385.296    2287.2734 
   98700    281.78414    214.49987    46889.627   -14087.346     1313.674    -15401.02    2288.0343 
   98750    273.61646    31.210834    47024.913    -14048.94    1275.5964   -15324.536    2291.9514 
   98800     273.1339    -363.9693     46764.79   -14126.241    1273.3467   -15399.588    2286.1435 
   98850    285.88511    83.152377    46671.803       -14072    1332.7926   -15404.793     2285.011 
   98900    272.41263    5.5806627    46751.627   -14081.011    1269.9841   -15350.995     2289.728 
   98950    280.36082    484.35058    46843.361   -14048.875    1307.0385   -15355.913    2290.3546 
   99000    277.05632    99.322908     46759.37   -14037.274    1291.6329   -15328.907    2288.4375 
   99050     283.2468    370.40397    46658.499    -14005.96    1320.4929   -15326.453    2284.6394 
   99100    285.35684    41.581762    46841.586   -13972.807    1330.3298   -15303.137    2295.5492 
   99150    286.10663    59.194733    46907.311   -14015.187    1333.8254   -15349.013     2300.306 
   99200    284.30953    224.46129    46821.544   -13998.367    1325.4473   -15323.814    2299.6683 
   99250    278.46727     189.6905    46920.156   -13972.284    1298.2108   -15270.494    2306.0257 
   99300    290.51408   -212.01075    46945.726   -13989.569    1354.3729   -15343.941    2307.0595 
   99350    283.86266    678.54747    46747.993     -13953.7     1323.364   -15277.064    2301.8817 
   99400    293.92475   -245.18783    46858.671    -13897.05    1370.2733   -15267.323    2307.0894 
   99450    292.25876   -132.99479    47130.098   -13876.105    1362.5065   -15238.612     2317.685 
   99500    293.56768    161.05366    47171.294   -13905.787    1368.6087   -15274.395    2316.4368 
   99550    299.09887   -178.88061    47141.714   -13942.223     1394.395   -15336.618    2314.4324 
   99600    291.24767    246.09043    47140.171   -13926.566    1357.7928   -15284.358    2314.9484 
   99650    293.91924   -33.991441    47160.056   -13932.565    1370.2476   -15302.812    2314.8023 
   99700      289.108   -301.32826    46953.537   -13931.982    1347.8177     -15279.8    2314.1218 
   99750    288.25104   -250.89236    46750.339   -13950.451    1343.8226   -15294.273    2308.8169 
   99800     293.6317   -47.494576     46624.44   -13953.024    1368.9071   -15321.931    2304.5703 
   99850    282.36693   -62.700156    46646.115   -14001.754    1316.3909   -15318.145    2308.0294 
   99900      281.399      29.8791    46597.699   -13968.119    1311.8785   -15279.997    2306.6532 
   99950    287.21139    206.61993    46574.786   -13995.237    1338.9758   -15334.213     2308.821 
  100000     286.9589   -450.79911    46623.796   -14014.033    1337.7986   -15351.831     2313.327 
  100050    296.82975    556.27265    46665.327   -13936.382    1383.8164   -15320.199    2313.2371 
  100100    290.36962    1.1121104     46870.68   -13957.406    1353.6994   -15311.106    2323.6253 
  100150    289.35891    468.20811    47036.811   -13959.689    1348.9874   -15308.676    2330.8547 
  100200    294.33301   -427.27617      47049.4    -13983.01    1372.1766   -15355.187     2331.404 
  100250    285.28424   -183.75884    46952.532   -13970.039    1329.9914    -15300.03    2331.0516 
  100300    288.31523   -134.37664    46722.635    -13996.69    1344.1218   -15340.812    2321.6792 
  100350    285.93368   -624.47386    46822.683   -13988.705    1333.0191   -15321.724    2324.3795 
  100400    282.96175    50.748481    46824.404   -13958.239     1319.164   -15277.403    2324.7882 
  100450    286.53288   -275.93299    46820.739   -13922.745    1335.8125   -15258.558    2326.9968 
  100500    294.06514   -255.46696    46770.536   -13923.135    1370.9279   -15294.063    2325.4704 
  100550    283.52439   -87.360743    46713.829   -13969.509     1321.787   -15291.296    2327.8978 
  100600    277.35996   -201.35973    46899.139   -13955.523    1293.0485   -15248.572    2335.6297 
  100621    286.23555    13.260427    46844.929   -14008.132    1334.4264   -15342.558    2335.2287 
Loop time of 87.1268 on 4 procs for 100000 steps with 1565 atoms

Performance: 991.658 ns/day, 0.024 hours/ns, 1147.752 timesteps/s
99.5% CPU use with 4 MPI tasks x no OpenMP threads

MPI task timing breakdown:
Section |  min time  |  avg time  |  max time  |%varavg| %total
---------------------------------------------------------------
Pair    | 67.691     | 68.526     | 70.307     |  12.8 | 78.65
Neigh   | 8.828      | 8.8569     | 8.913      |   1.1 | 10.17
Comm    | 5.7016     | 7.5491     | 8.4014     |  39.9 |  8.66
Output  | 0.082703   | 0.087436   | 0.10116    |   2.7 |  0.10
Modify  | 1.582      | 1.6055     | 1.6358     |   1.9 |  1.84
Other   |            | 0.5021     |            |       |  0.58

Nlocal:        391.250 ave         404 max         374 min
Histogram: 1 0 0 0 0 0 2 0 0 1
Nghost:        1051.75 ave        1061 max        1044 min
Histogram: 2 0 0 0 0 0 0 1 0 1
Neighs:        0.00000 ave           0 max           0 min
Histogram: 4 0 0 0 0 0 0 0 0 0
FullNghs:      11304.5 ave       11769 max       10622 min
Histogram: 1 0 0 0 0 0 1 1 0 1

Total # of neighbors = 45218
Ave neighs/atom = 28.893291
Neighbor list builds = 12552
Dangerous builds = 0
undump 1
reset_timestep 0
#unfix 2
#unfix 3
#unfix 4

################################################
####### Insert Ice #########
################################################

log log.${NAME}.eq_all
log log.icewater_284K_1atm_ML.eq_all
