
# Define the lattice
#
variable	    lattice_constant equal 6.36339
lattice		    diamond ${lattice_constant}
lattice		    diamond 6.36339
Lattice spacing in x,y,z = 6.3633900 6.3633900 6.3633900

# Define region
# multiples of lattice spacing
#
region 		    simbox block 0 1 0 4 0 4

# Create Atoms
#
create_box          1 simbox
Created orthogonal box = (0.0000000 0.0000000 0.0000000) to (6.3633900 25.453560 25.453560)
  1 by 2 by 2 MPI processor grid
create_atoms        1 box
Created 128 atoms
  create_atoms CPU = 0.000 seconds
mass                1 18.015

# Define potential
#
pair_style          sw
pair_coeff          * * ML.sw mW
Reading sw potential file ML.sw with DATE: 2019-02-27

# Add velocity/set timestep
#
velocity            all create ${TEMP} 120598 rot yes dist gaussian
velocity            all create 287 120598 rot yes dist gaussian
timestep            5.0

# Define output
#
compute	            1 all msd
thermo              100
thermo_style        custom step temp press vol etotal ke pe c_1[4]

# Neighbor lists
#
neigh_modify        delay 0 every 1 check yes

# Set fixes
#
fix                 1 all momentum 10 linear 1 1 1 rescale
fix                 2 all nve
fix                 3 all temp/csvr ${TEMP} ${TEMP} 500.0 928347
fix                 3 all temp/csvr 287 ${TEMP} 500.0 928347
fix                 3 all temp/csvr 287 287 500.0 928347
fix                 4 all press/berendsen iso ${PRES} ${PRES} 1000.0 modulus 20000
fix                 4 all press/berendsen iso 1 ${PRES} 1000.0 modulus 20000
fix                 4 all press/berendsen iso 1 1 1000.0 modulus 20000

# Run 0.5 ns equilibration
#
dump		    1 all custom 1000 eq.${NAME}.dump id type x y z vx vy vz
dump		    1 all custom 1000 eq.longice_284K_1atm_ML.dump id type x y z vx vy vz
run                 100000
Neighbor list info ...
  update every 1 steps, delay 0 steps, check yes
  max neighbors/atom: 2000, page size: 100000
  master list distance cutoff = 6.0032907
  ghost atom cutoff = 6.0032907
  binsize = 3.0016454, bins = 3 9 9
  1 neighbor lists, perpetual/occasional/extra = 1 0 0
  (1) pair sw, perpetual
      attributes: full, newton on
      pair build: full/bin/atomonly
      stencil: full/bin/3d
      bin: standard
Per MPI rank memory allocation (min/avg/max) = 4.689 | 4.689 | 4.689 Mbytes
Step Temp Press Volume TotEng KinEng PotEng c_1[4] 
       0          287    -657.6249    4122.7368    -1444.052    108.64755   -1552.6996            0 
     100    181.36105   -3.4139462    4103.8261   -1397.7502     68.65656   -1466.4068  0.077159602 
     200    211.72084   -12.350045    4110.5578   -1375.3348    80.149651   -1455.4844  0.097069212 
     300    220.35584    -55.43151    4110.0992   -1348.5649    83.418539   -1431.9834   0.13457913 
     400    283.51374   -4.5990312    4118.5372   -1337.2949    107.32778   -1444.6227   0.12331106 
     500     265.5655    200.21631    4118.9672   -1336.3015    100.53324   -1436.8348   0.10338129 
     600     317.2158   -150.79528     4127.556   -1321.1474    120.08613   -1441.2336   0.13989165 
     700    284.44178    153.88041    4120.5209   -1335.4402     107.6791   -1443.1193   0.12582631 
     800    262.93795   -193.33054    4124.2665   -1326.3113    99.538545   -1425.8498   0.16849424 
     900    284.32118    134.84209    4124.6004   -1326.1589    107.63344   -1433.7923   0.12724497 
    1000    247.83304   -149.61806    4126.2529   -1335.4649    93.820387   -1429.2853   0.12851397 
    1100    288.91157    161.30906    4127.2716   -1326.2524     109.3712   -1435.6236  0.099446693 
    1200    295.71428   -92.679845    4128.9979   -1322.6665    111.94645   -1434.6129   0.12418837 
    1300    308.03387    168.19909    4129.0859   -1323.1899    116.61019   -1439.8001   0.10888738 
    1400    285.54519   -140.84212    4129.2206   -1325.5386    108.09681   -1433.6354   0.13121522 
    1500     304.3167    -74.69884    4128.6177   -1334.8017      115.203   -1450.0047   0.09897185 
    1600    277.63187    68.256875    4128.9214   -1331.8112    105.10112   -1436.9124  0.098407512 
    1700    310.31987    150.23744    4131.4732   -1325.3836    117.47558   -1442.8592   0.08846024 
    1800    276.56511   -144.31517    4126.9763   -1328.9488    104.69728   -1433.6461   0.13282571 
    1900    289.60994   -48.417292     4129.947   -1311.3453    109.63557   -1420.9808   0.15706616 
    2000     307.2025   -130.48536    4132.8535   -1305.7141    116.29546   -1422.0096    0.1497532 
    2100    312.48222    35.676637    4134.8913    -1318.006    118.29417   -1436.3002   0.10373513 
    2200    305.25482    217.80758    4134.0963   -1308.6434    115.55814   -1424.2015    0.1125105 
    2300    281.31829   -6.3383066    4134.8274   -1315.1492    106.49666   -1421.6458   0.13005349 
    2400    329.24832   -94.834882    4137.4366   -1308.1379    124.64119   -1432.7791   0.13255064 
    2500    277.70715   -108.13631    4137.4755   -1318.9786    105.12962   -1424.1082   0.13225825 
    2600    312.24432   -244.69443     4135.371   -1320.2535    118.20411   -1438.4576   0.10065707 
    2700    285.47609   -57.065711    4134.1874   -1325.4675    108.07065   -1433.5382  0.092169778 
    2800    286.68753    28.476428    4134.5037    -1325.796    108.52925   -1434.3253  0.099942793 
    2900    303.23061   -29.228852    4136.0078   -1312.9717    114.79185   -1427.7635   0.13238131 
    3000    307.28222    112.51298     4134.467   -1330.3765    116.32564   -1446.7021   0.10155406 
    3100    275.54083    66.192465      4131.84    -1326.424    104.30953   -1430.7335   0.11065691 
    3200    288.36076    28.424069    4128.0654   -1337.4539    109.16268   -1446.6166  0.087659288 
    3300    274.25667    26.146071    4125.2903   -1334.3141    103.82339   -1438.1375   0.10235517 
    3400    277.93867   -147.76361    4127.7369   -1329.1051    105.21726   -1434.3224   0.11972009 
    3500    259.59457   -70.674339    4126.6752   -1338.1315    98.272867   -1436.4044   0.12572655 
    3600    274.91684    30.304409    4131.7405   -1317.7821    104.07331   -1421.8554   0.12965338 
    3700    300.81252   -68.129609    4132.5009    -1326.467    113.87645   -1440.3435   0.10518039 
    3800    312.65825    114.46122    4131.7837   -1306.4473    118.36081   -1424.8081   0.12114593 
    3900    300.06535   -109.73568     4136.396   -1300.8714     113.5936    -1414.465   0.15186865 
    4000    292.51578   -27.209543    4132.7019    -1329.817    110.73561   -1440.5526   0.12986056 
    4100    288.32512    91.320834    4126.5791   -1336.1338    109.14919    -1445.283  0.099643817 
    4200    271.31769   -219.72697    4127.6779   -1321.6106    102.71081   -1424.3214   0.12591447 
    4300    310.92503     118.2142    4128.0531   -1321.3387    117.70467   -1439.0433  0.096697484 
    4400    278.40201    -33.77351     4128.845   -1318.5053    105.39267    -1423.898   0.13012271 
    4500    266.89538   -25.731538     4125.977   -1333.4948    101.03668   -1434.5314   0.11192912 
    4600    282.96576    17.306307     4126.607   -1345.9531    107.12033   -1453.0734  0.094655865 
    4700    268.39905   -12.764692    4128.5799   -1329.8257    101.60592   -1431.4316   0.10230064 
    4800    296.97716   -72.994955    4128.1317   -1317.4092    112.42453   -1429.8337   0.11910579 
    4900    305.16658    83.756913    4132.5936   -1303.8823    115.52474   -1419.4071   0.13937125 
    5000    326.88454   -30.881391     4134.309   -1291.5246    123.74635   -1415.2709   0.16594868 
    5100    338.87384    117.52406    4141.5323    -1287.468    128.28506    -1415.753   0.14618929 
    5200    318.15451   -77.784341    4139.2646   -1315.3311    120.44149   -1435.7726   0.13069942 
    5300    287.35568   -89.239784    4134.8031   -1327.2088    108.78219    -1435.991    0.1079922 
    5400    300.55163   -88.588781    4132.3148   -1324.8802    113.77769   -1438.6579   0.13153865 
    5500    277.74645     -128.124    4134.1231   -1320.1414     105.1445   -1425.2859   0.13565092 
    5600     308.4342   -104.44742    4134.6393   -1326.9379    116.76174   -1443.6996   0.12489412 
    5700    307.82125   -138.20342    4136.6857   -1325.2097     116.5297   -1441.7393   0.11005444 
    5800    302.03589    72.530424    4135.6008   -1322.0903    114.33957   -1436.4298    0.1122642 
    5900    297.20422   -31.484019    4132.5973   -1332.1819    112.51048   -1444.6924   0.11115508 
    6000    270.27199    46.909533    4132.2903   -1340.3072    102.31494   -1442.6222   0.11352229 
    6100    292.54554   -10.994367    4130.7493   -1334.9338    110.74688   -1445.6807   0.13190241 
    6200    273.08298    10.592003    4127.7267   -1343.3731    103.37908   -1446.7522   0.12300891 
    6300    278.79373     -65.7574    4135.0781   -1330.5414    105.54096   -1436.0824    0.1215764 
    6400    289.98719    -22.40264    4133.9709   -1332.5473    109.77838   -1442.3257   0.12382836 
    6500    269.11158   -1.9836833    4133.6181   -1333.8623    101.87565   -1435.7379   0.12736285 
    6600     292.0738   -35.940714     4127.921   -1334.2761     110.5683   -1444.8443   0.12895898 
    6700    262.83032    185.34331    4130.6462   -1335.2023    99.497802   -1434.7001    0.1141133 
    6800    273.68146   -115.67347    4127.0123   -1342.8848    103.60564   -1446.4905   0.11867337 
    6900    269.01431   -18.061936    4133.2902   -1324.3568    101.83883   -1426.1956   0.12702413 
    7000    302.76834    19.959295    4133.8807   -1321.4635    114.61685   -1436.0803    0.1234642 
    7100    278.10179   -329.91152    4135.9915   -1325.9477    105.27901   -1431.2267   0.13176799 
    7200    280.29057   -41.842767    4134.5118   -1333.0571     106.1076   -1439.1647   0.11259763 
    7300    264.61592    16.817741    4130.3252   -1342.1863    100.17377     -1442.36    0.1151084 
    7400    286.56876    44.106454     4128.242   -1341.5212    108.48429   -1450.0055   0.10658811 
    7500     282.3842    70.927105    4128.5782   -1337.4567    106.90018   -1444.3568   0.11193024 
    7600     251.2794   -96.154294    4124.8385   -1346.2232    95.125052   -1441.3482   0.11616375 
    7700    250.87565   -3.6015785    4123.5347   -1332.8805    94.972207   -1427.8527   0.12940882 
    7800    251.07407    82.156549    4123.2476   -1342.5962    95.047323   -1437.6435   0.13161373 
    7900    279.01665    29.733699    4124.9739   -1334.7501    105.62534   -1440.3755   0.11691565 
    8000    318.48185    229.38972    4132.2067   -1314.9262     120.5654   -1435.4916     0.124891 
    8100    306.77524    33.796978    4135.9238    -1317.844    116.13372   -1433.9777   0.10628382 
    8200    324.42232   -25.735959    4137.5086   -1307.3254    122.81425   -1430.1396   0.12831391 
    8300    328.78828    271.02838    4134.0785   -1300.1584    124.46704   -1424.6254   0.12997044 
    8400     331.2932    -142.9279    4133.9072   -1305.1734    125.41531   -1430.5888    0.1531619 
    8500    325.93941   -90.741279    4129.1884   -1319.0005    123.38856   -1442.3891   0.12236173 
    8600    298.47739    93.384642    4125.6642   -1321.6949    112.99246   -1434.6873   0.13239047 
    8700    312.86741    61.989063    4126.4443   -1322.5676    118.43999   -1441.0076   0.13461232 
    8800    289.11874    8.5243553    4126.6485   -1320.6723    109.44962    -1430.122   0.14090029 
    8900    298.88839    61.181592    4129.1229   -1329.9445    113.14805   -1443.0926   0.12258669 
    9000    290.55198    63.278665     4124.979   -1328.2327    109.99219   -1438.2249   0.11724948 
    9100    286.50575   -95.151881    4127.5412   -1325.6403    108.46044   -1434.1007   0.13239434 
    9200    289.98829    117.26728    4128.1208   -1306.0812     109.7788     -1415.86   0.15255302 
    9300    286.56668    48.554298     4131.561   -1325.6823    108.48351   -1434.1658   0.13060499 
    9400    276.99853   -227.51571    4126.3323   -1329.3202    104.86136   -1434.1816   0.13701477 
    9500    276.82791    16.472708    4128.3445   -1330.1665    104.79677   -1434.9633   0.12037998 
    9600    264.00367    34.163234    4125.7028   -1348.9808    99.941988   -1448.9228   0.10260591 
    9700    268.77369     163.6517    4125.8405   -1342.0653    101.74774   -1443.8131  0.098587022 
    9800    267.49915    160.66415     4129.135   -1336.2063    101.26525   -1437.4716    0.1151991 
    9900    270.99555     62.18917    4128.8207   -1334.0267    102.58885   -1436.6155   0.11828489 
   10000     278.4075   -124.73807    4130.3881   -1328.4664    105.39474   -1433.8611   0.12546687 
   10100    273.94541   -27.468693    4128.6751   -1321.4259    103.70556   -1425.1315   0.14251681 
   10200     303.6787    182.38515    4132.2605   -1303.9595    114.96148   -1418.9209   0.12950886 
   10300    306.45252    40.674882    4133.2237   -1311.4873    116.01155   -1427.4989   0.12975374 
   10400    282.96399   -37.286768    4128.7225   -1315.7739    107.11966   -1422.8936   0.14330253 
   10500    257.53823   -127.60609    4127.1303   -1334.3739    97.494412   -1431.8683   0.12968426 
   10600    256.45195   -28.629097    4123.5327   -1346.4187    97.083189   -1443.5019   0.11571448 
   10700    283.26977    75.804209    4123.2848   -1342.6745    107.23542   -1449.9099   0.10535854 
   10800    263.68684   -43.908154    4126.0009   -1346.1446     99.82205   -1445.9666   0.11164281 
   10900    259.82394   -241.07216    4126.1217   -1344.6747    98.359698   -1443.0344   0.11526285 
   11000    257.42095   -100.99584    4121.0734   -1352.4979    97.450013   -1449.9479   0.11031508 
   11100    294.97427   -51.719016    4123.0809   -1326.7977    111.66631    -1438.464   0.13273409 
   11200    257.95169    15.471368    4125.0856   -1335.2942    97.650934   -1432.9451   0.12147784 
   11300     294.8444     121.2512    4123.8241   -1344.6151    111.61714   -1456.2322   0.10280913 
   11400    268.50392    50.194375    4125.1901   -1338.5508    101.64562   -1440.1964   0.11174052 
   11500    270.61649    368.84309    4134.6794   -1318.3389    102.44536   -1420.7842   0.14646159 
   11600     292.2137   -1.9979743    4135.4567   -1301.1682    110.62126   -1411.7895   0.15684053 
   11700    354.18874    79.514127    4139.7815   -1290.5767    134.08271   -1424.6594   0.14398123 
   11800    299.06778    4.8096205    4139.7256   -1290.6148    113.21596   -1403.8308   0.14837683 
   11900    278.97492   -154.41267    4137.0563   -1303.9284    105.60955    -1409.538   0.15105667 
   12000    299.71494   -136.34195    4131.4644   -1311.8415    113.46095   -1425.3025   0.16020824 
   12100    269.86379   -85.037198    4129.5252   -1322.5964    102.16041   -1424.7568   0.14371779 
   12200    279.51509    134.94078    4130.6188    -1332.298    105.81404   -1438.1121   0.11897205 
   12300    287.29618    192.71824    4132.4757   -1328.9496    108.75967   -1437.7093   0.11051892 
   12400    298.55583   -78.147633    4131.3162   -1319.7177    113.02215   -1432.7398   0.13040324 
   12500    299.34807   -146.94361       4131.7    -1317.026    113.32206   -1430.3481   0.14132383 
   12600    281.63529   -73.153677    4132.5048   -1310.9537    106.61667   -1417.5703   0.14411829 
   12700    305.81686  -0.88921709    4130.3847   -1320.3703    115.77091   -1436.1412     0.119582 
   12800    309.17684    11.586714    4127.5115   -1323.9476    117.04288   -1440.9904   0.11206179 
   12900    317.17082    180.75562    4128.7698   -1324.2083     120.0691   -1444.2774   0.11563338 
   13000    271.81893    9.8095257     4129.153   -1329.9002    102.90056   -1432.8008   0.12392144 
   13100    263.45358   -105.76469    4128.5508   -1324.7714    99.733746   -1424.5052   0.13192705 
   13200    292.53184   -60.131287    4127.4182   -1328.7818     110.7417   -1439.5235   0.11946192 
   13300    257.93374   -32.749046    4125.9138   -1334.4529     97.64414   -1432.0971   0.12430639 
   13400    272.32357    136.15991    4122.9672   -1337.7441    103.09159   -1440.8357   0.11957677 
   13500    288.63058    24.264391    4126.5885   -1326.3435    109.26482   -1435.6083   0.12958338 
   13600    283.81006    -90.72015    4123.6122   -1333.5094    107.43995   -1440.9493   0.12431782 
   13700    278.56663   -226.53881    4126.3244    -1320.678    105.45498    -1426.133   0.13688388 
   13800    278.04527    14.112244    4126.3893   -1321.5756    105.25762   -1426.8332   0.13356265 
   13900    304.32714    60.100649    4127.3906   -1324.1584    115.20696   -1439.3654   0.12717473 
   14000    344.70613    318.45739    4132.0754   -1307.0783    130.49294   -1437.5713   0.10763816 
   14100    298.22276    -93.47113    4135.1122   -1320.7657    112.89606   -1433.6618   0.12199928 
   14200    293.60997    43.873956    4130.4019   -1327.7136    111.14983   -1438.8634   0.11716937 
   14300    253.55202    18.058011    4127.9574   -1330.7183    95.985381   -1426.7037   0.13752971 
   14400       268.51   -105.85947    4124.7768    -1345.107    101.64792   -1446.7549   0.11088337 
   14500    253.20336    55.168951     4122.164   -1339.6849    95.853393   -1435.5383   0.11563354 
   14600    290.34478    1.5892241    4127.2113   -1335.0739    109.91375   -1444.9876   0.11208299 
   14700    278.11751    -79.07912    4130.5155   -1334.0084    105.28497   -1439.2934    0.1146045 
   14800    302.87305   -26.651563    4132.6991   -1314.3452    114.65649   -1429.0017   0.13617827 
   14900    279.69696   -14.057887    4132.3355   -1323.3145    105.88289   -1429.1974   0.12141595 
   15000    280.04259     102.4051    4133.6238   -1329.9866    106.01373   -1436.0003   0.12002722 
   15100      296.703   -56.582788    4129.4779   -1321.3175    112.32074   -1433.6382   0.11568316 
   15200    309.73273   -30.872771    4127.8635   -1322.5684    117.25331   -1439.8217   0.11866288 
   15300    283.84452   -78.392185    4128.9039    -1319.892      107.453    -1427.345   0.12939808 
   15400    283.34296   -78.545673    4127.2316   -1328.9629    107.26313   -1436.2261    0.1130628 
   15500    284.00834    10.383396    4127.7324   -1334.6375    107.51501   -1442.1525   0.10192301 
   15600    339.51581     226.2056    4134.7913   -1295.5975    128.52808   -1424.1255   0.12184823 
   15700    301.18184   -50.685366      4137.56    -1298.905    114.01626   -1412.9213   0.15164182 
   15800    312.99193    106.90197     4135.707   -1310.7489    118.48712    -1429.236   0.13528905 
   15900     302.5026   -87.090909    4137.2654   -1302.8613    114.51625   -1417.3776   0.15912877 
   16000    326.90726   -77.499184    4135.8266   -1302.5945    123.75495   -1426.3494   0.13546832 
   16100    310.32116   -62.250131    4131.5058   -1318.0525    117.47607   -1435.5286   0.12682755 
   16200    347.71559    104.77786    4137.7787   -1305.1229    131.63222   -1436.7551   0.12083339 
   16300     300.4483   -173.52961    4135.6192   -1310.8056    113.73857   -1424.5442   0.15245052 
   16400    303.37549   -48.646461       4133.6   -1319.9225     114.8467   -1434.7692   0.12961077 
   16500    295.25083   -46.819906    4131.2296   -1320.8897      111.771   -1432.6607   0.12772969 
   16600    318.53766   -28.130495    4130.7488   -1318.1149    120.58653   -1438.7014    0.1143947 
   16700    320.16223    32.196875    4130.8039   -1319.2842    121.20153   -1440.4858   0.11570535 
   16800     316.6054   -73.255833    4127.5204   -1321.8679    119.85505   -1441.7229    0.1349834 
   16900    305.64473    177.40455    4129.0399   -1314.4611    115.70575   -1430.1668   0.12751072 
   17000    289.31757   -129.44746    4125.8092   -1330.0379    109.52489   -1439.5628   0.12892052 
   17100    304.21186    95.988686    4124.1954    -1324.848    115.16332   -1440.0113   0.11038691 
   17200    258.85078   -112.43183    4121.1997   -1339.1054    97.991296   -1437.0967   0.13251233 
   17300     279.9955   -66.737366    4118.8298   -1341.9837     105.9959   -1447.9796   0.12298823 
   17400    235.63495    50.214827    4117.5144   -1342.5815    89.202645   -1431.7842   0.13100533 
   17500    268.88723    101.17077    4118.9321    -1344.135    101.79072   -1445.9257   0.11587586 
   17600    287.78953    77.957542    4121.3767   -1336.8397    108.94643   -1445.7862   0.11602547 
   17700    259.54034   -12.658876    4119.1337   -1339.8203    98.252339   -1438.0726   0.12918492 
   17800    256.10041   -22.723678    4120.0565   -1343.1572    96.950107   -1440.1073   0.12640635 
   17900     290.4429     60.28781    4119.3556   -1331.0554     109.9509   -1441.0063   0.14072546 
   18000    292.30725   -90.839889    4124.2119   -1323.9883    110.65667    -1434.645   0.14845637 
   18100    312.41952    120.87227    4126.4561   -1309.5112    118.27043   -1427.7816   0.14054569 
   18200    292.57078    34.704296    4127.7885   -1326.6757    110.75643   -1437.4322   0.12228046 
   18300    305.58897    107.23614    4126.7833    -1320.383    115.68464   -1436.0677   0.11975526 
   18400    277.51967   -95.071413    4127.9027   -1321.7393    105.05864   -1426.7979   0.15317681 
   18500    262.84231   -99.328451    4128.3363   -1330.5713    99.502341   -1430.0737   0.13970601 
   18600    300.66691   -113.03563    4129.1177   -1308.7557    113.82133   -1422.5771   0.13913148 
   18700    334.22891    76.209558    4132.9193   -1310.0018    126.52666   -1436.5284   0.11976459 
   18800     325.9541      17.5908    4131.8373     -1314.04    123.39412   -1437.4342   0.12871235 
   18900    312.49339    46.968483    4130.7085   -1314.9169     118.2984   -1433.2153   0.13788938 
   19000    299.62497    13.620232     4131.424   -1315.1461    113.42689    -1428.573   0.14759161 
   19100    290.59086   -303.51124    4130.5143   -1319.4032    110.00691   -1429.4101   0.14259864 
   19200    326.22538    41.054629    4132.6952   -1311.6966    123.49682   -1435.1934   0.13082931 
   19300    317.34934   -178.06925    4131.8172   -1314.6619    120.13668   -1434.7986   0.14631712 
   19400      302.643    228.98195    4132.7556   -1309.0883     114.5694   -1423.6577   0.14199776 
   19500    287.51684   -146.69405    4133.6513   -1324.4438     108.8432    -1433.287   0.14366911 
   19600    298.54327    88.026935    4129.3911   -1320.2008     113.0174   -1433.2182   0.12570005 
   19700    290.66462    59.652613    4127.3961   -1334.2902    110.03483    -1444.325    0.1210641 
   19800    272.78301   -239.56352    4130.3639   -1334.3998    103.26552   -1437.6653   0.12319481 
   19900    274.81012    42.890721    4125.9529    -1340.939    104.03291   -1444.9719   0.11383548 
   20000    262.70874    -234.8581    4124.2233   -1345.8059    99.451774   -1445.2577   0.12693119 
   20100    280.78792    166.90531    4122.9428   -1343.0561    106.29588    -1449.352   0.10092805 
   20200    307.65035    157.99056      4127.38    -1326.473      116.465    -1442.938    0.1113724 
   20300    312.57216    139.87796    4129.2972    -1320.235    118.32822   -1438.5633   0.10993367 
   20400    291.13444   -91.759888    4128.9622   -1310.6185    110.21269   -1420.8312    0.1559353 
   20500    302.22291    50.496272    4132.6594    -1320.429    114.41037   -1434.8394   0.12908184 
   20600    269.43975   -157.68899    4128.0251   -1337.3112    101.99989   -1439.3111   0.12578052 
   20700    269.54899   -81.415276    4129.5339   -1333.7355    102.04124   -1435.7768   0.12489258 
   20800    298.41891    89.235295    4129.4038   -1323.9999    112.97032   -1436.9702   0.13466293 
   20900    269.96203   -73.323501    4127.5941   -1330.1572     102.1976   -1432.3548   0.14974091 
   21000    269.27266    96.523931    4125.4059   -1339.2853    101.93663    -1441.222   0.12190363 
   21100    248.70939    -10.64434    4126.6877     -1336.63    94.152142   -1430.7822   0.13366869 
   21200    292.94733      14.6017    4130.5905   -1322.9865    110.89899   -1433.8855   0.12092548 
   21300    306.19021   -180.30816    4128.6379   -1314.7126    115.91225   -1430.6249   0.14350649 
   21400    316.86156    28.201992    4133.3653   -1313.4908    119.95202   -1433.4428   0.11735219 
   21500    328.99918    96.899649    4130.6903   -1306.3461    124.54688    -1430.893   0.11864978 
   21600    283.57324    210.52726    4132.6036   -1315.6751     107.3503   -1423.0254   0.11102122 
   21700    294.39122   -61.982122    4131.7453     -1324.43    111.44559   -1435.8756   0.10546773 
   21800    300.70956    82.383216    4129.8189   -1322.9376    113.83748   -1436.7751   0.11004696 
   21900    300.18513    63.034465    4130.7255   -1320.8542    113.63895   -1434.4931   0.11414654 
   22000    293.13744    -153.3888    4128.6311   -1332.8595    110.97095   -1443.8305     0.122977 
   22100    305.94221    36.706018    4126.5061   -1329.8962    115.81836   -1445.7145   0.12493301 
   22200    248.86952   -134.30015    4124.1336   -1343.3632     94.21276   -1437.5759   0.13862545 
   22300    275.77561   -145.00994     4121.397   -1340.8989    104.39841   -1445.2973   0.13470093 
   22400    309.77364   -16.414785     4126.818   -1311.7005     117.2688   -1428.9693   0.15030827 
   22500    311.45757    15.253622    4134.7332   -1316.0842    117.90627   -1433.9905   0.13313904 
   22600    296.43761   -269.88633    4135.7413   -1310.0815    112.22027   -1422.3017   0.14012987 
   22700    286.29868   -165.67608    4130.8239   -1335.1507    108.38205   -1443.5328   0.11706193 
   22800     294.2444   -18.397206    4130.5478   -1332.6483    111.39001   -1444.0383   0.10091338 
   22900    274.06158    16.947098    4130.1907   -1330.4624    103.74954   -1434.2119   0.10362343 
   23000    325.59367    124.02423    4129.9533   -1338.1761    123.25768   -1461.4338  0.081151995 
   23100    274.04489     -69.2466    4129.5358   -1331.4336    103.74322   -1435.1768   0.10897923 
   23200    302.40395   -31.935278    4129.2705   -1320.3679    114.47891   -1434.8468   0.12288726 
   23300     295.5672    63.981384    4131.5948   -1310.0031    111.89077   -1421.8939   0.12263922 
   23400    304.49024   -66.866491    4128.6873   -1325.7348     115.2687   -1441.0035   0.12240677 
   23500    288.68687    31.777991    4128.9752   -1319.7928    109.28613   -1429.0789   0.12556002 
   23600    315.43781   -115.48666    4130.1245   -1322.0653    119.41305   -1441.4783   0.13142051 
   23700    285.22267    46.120849    4130.0309   -1323.1241    107.97472   -1431.0988   0.12891529 
   23800    291.36961   -24.191863     4132.488   -1316.7643    110.30172   -1427.0661    0.1406029 
   23900    279.09376   -18.192706    4130.8081    -1332.782    105.65454   -1438.4365   0.12255109 
   24000    274.44153    23.298998     4128.626   -1327.7429    103.89338   -1431.6363   0.12999304 
   24100    288.35299     11.75785    4131.0991   -1320.7031    109.15974   -1429.8628   0.13370875 
   24200    269.56404    50.532626    4133.4573   -1324.3517    102.04694   -1426.3987   0.12471383 
   24300    267.09416   0.49038826    4127.6012    -1341.553    101.11193    -1442.665    0.1206515 
   24400    249.23441    128.88759    4126.6475     -1341.41    94.350893   -1435.7609   0.11995761 
   24500    263.56922   -93.099554    4125.1856   -1338.7807    99.777522   -1438.5582   0.13088866 
   24600    276.78334     7.383029    4125.0757   -1347.7394     104.7799   -1452.5193  0.099781144 
   24700    256.78848    56.168511    4121.3148    -1347.624    97.210584   -1444.8346   0.10873405 
   24800    261.25728   -86.611032     4125.557   -1335.4145    98.902306   -1434.3168   0.11996708 
   24900    260.18731    128.50278    4123.8737    -1335.022    98.497257   -1433.5192   0.12688017 
   25000    265.35276    112.65486    4122.9063   -1342.9012     100.4527   -1443.3539   0.11100822 
   25100    257.06776    163.65741    4119.8975   -1350.4815     97.31631   -1447.7978   0.10964731 
   25200    271.12121   -56.398005    4119.6937   -1353.3939    102.63643   -1456.0303   0.11642252 
   25300    251.22176    83.041303    4118.0057   -1351.7416    95.103232   -1446.8448   0.11618569 
   25400     259.4826   -101.35389    4118.0669   -1339.4246    98.230479   -1437.6551     0.138099 
   25500    263.53395    68.183627     4120.392   -1343.7647     99.76417   -1443.5289   0.12232334 
   25600    268.94204    12.795301    4121.1814   -1345.9804    101.81147   -1447.7919   0.11595211 
   25700    271.28633    94.254076    4126.3305   -1331.2128    102.69893   -1433.9118   0.13362708 
   25800    268.81908    68.588256    4123.7469   -1339.3669    101.76492   -1441.1318   0.13969134 
   25900    282.66388    73.739004    4124.7177   -1322.3333    107.00605   -1429.3394   0.15649905 
   26000    244.50489   -16.183728    4122.9341    -1330.842    92.560473   -1423.4025   0.14483915 
   26100     274.6048    299.74533    4121.9815   -1334.2498    103.95518    -1438.205   0.10933651 
   26200     263.4318   -64.917463    4122.3228   -1331.5075      99.7255    -1431.233   0.13886268 
   26300    250.34609   -121.22028    4121.7175   -1340.5091    94.771737   -1435.2808   0.13294539 
   26400    245.78156    11.213114    4119.4894   -1342.7872    93.043774    -1435.831   0.13182873 
   26500    305.88305    33.556434    4121.6585   -1329.7319    115.79597   -1445.5278   0.11778009 
   26600    275.57686    125.43822    4127.7816   -1323.1095    104.32317   -1427.4326   0.11394731 
   26700    312.19374   -17.680985    4126.4646   -1321.4451    118.18496     -1439.63   0.11722773 
   26800    274.17904   -126.00656    4125.7771   -1321.6128    103.79401   -1425.4068   0.14010612 
   26900    253.12335    36.042272    4128.4839   -1322.7681    95.823102   -1418.5912   0.14299179 
   27000    304.57371      282.418    4133.0692   -1310.1231     115.3003   -1425.4234   0.12785754 
   27100    300.66795   -7.0226699    4133.4848   -1312.4838    113.82172   -1426.3055   0.13373818 
   27200    321.27093   -77.683327     4130.433   -1314.3338    121.62125    -1435.955    0.1408894 
   27300    294.35981   -123.98931    4126.4387   -1317.6157     111.4337   -1429.0494   0.15069963 
   27400    303.25824    194.13947    4130.6845   -1304.7209    114.80231   -1419.5232   0.14708067 
   27500    298.78477    25.254379    4127.2498   -1313.6634    113.10882   -1426.7723   0.15034863 
   27600    308.97633    102.44108    4125.8867   -1322.0854    116.96697   -1439.0524   0.12735276 
   27700    293.66487   -216.01159    4126.6873   -1320.4912    111.17062   -1431.6618   0.13560933 
   27800    334.07176    18.429938    4126.1324    -1314.516    126.46717   -1440.9832   0.12604803 
   27900    284.96203   -14.230372    4122.2903   -1329.6935    107.87605   -1437.5696   0.12479414 
   28000    276.42896    30.023637    4118.5102   -1332.5603    104.64574   -1437.2061   0.12943321 
   28100    275.14691    133.23112    4117.2537   -1343.1956     104.1604    -1447.356   0.11427083 
   28200     314.3932    1.2241879    4120.1498   -1334.1416    119.01759   -1453.1592   0.11374341 
   28300     262.2802    -21.36138    4119.1673   -1335.9541    99.289547   -1435.2437   0.12999694 
   28400    296.52142   -27.694233    4120.0827   -1326.2257      112.252   -1438.4777   0.13647006 
   28500    285.92916   -76.267387     4122.996   -1315.4832    108.24217   -1423.7254   0.15815931 
   28600    280.57386   -99.350234    4119.7642   -1324.3582    106.21485   -1430.5731   0.15861531 
   28700    272.74803    273.99998    4122.9624   -1329.5209    103.25228   -1432.7732   0.11994287 
   28800     269.5431    42.892927    4120.5462   -1335.8053    102.03901   -1437.8444   0.13016431 
   28900    302.97265   0.35816126    4120.8817   -1334.1736     114.6942   -1448.8678   0.11814225 
   29000    274.72805    95.827648     4121.472   -1333.1989    104.00184   -1437.2008   0.13335653 
   29100    293.60789    262.28058    4120.9129   -1331.1992    111.14905   -1442.3482    0.1296018 
   29200    270.54509   -104.51873    4123.0041   -1332.9484    102.41833   -1435.3667   0.13441523 
   29300    297.92702    53.894012    4123.7406   -1326.2756    112.78411   -1439.0597   0.11990836 
   29400    280.38968   -111.23567    4122.1552   -1334.5039    106.14513    -1440.649   0.11200913 
   29500    284.94325    5.7119194    4117.7979   -1323.7149    107.86894   -1431.5838   0.14168111 
   29600    295.21228   -176.02043    4123.7023   -1322.4171    111.75641   -1434.1735   0.15711393 
   29700    307.48497   0.22124821    4123.4732   -1314.3524     116.4024   -1430.7548   0.14898791 
   29800    266.00817    79.813187    4121.1045   -1328.9334    100.70082   -1429.6342   0.12953166 
   29900    270.52346    86.882355    4118.0931   -1337.3268    102.41014   -1439.7369   0.11520109 
   30000    280.54567     37.08487    4120.3109   -1324.0059    106.20417     -1430.21     0.140522 
   30100    280.33356    9.3340456    4117.2861   -1336.7193    106.12388   -1442.8431   0.14189025 
   30200    300.36891   -126.00502    4120.3512   -1326.4336    113.70852   -1440.1422   0.15714593 
   30300    307.53016    39.788868    4123.8302   -1325.6435     116.4195    -1442.063   0.12511517 
   30400    286.44513    24.750287    4119.2013   -1326.0325    108.43749     -1434.47   0.13367342 
   30500    295.18382   -122.81746    4118.3716   -1334.7122    111.74564   -1446.4579   0.12908805 
   30600    255.27657   -71.897561    4117.1253    -1347.381    96.638232   -1444.0193   0.14409685 
   30700    258.11668    64.874996    4119.3889   -1331.0184    97.713394   -1428.7318   0.16450278 
   30800    268.89935   -33.352435    4120.0612   -1325.8564    101.79531   -1427.6517   0.15254669 
   30900    306.14037    81.256084    4121.2259   -1324.1259    115.89338   -1440.0192   0.12482569 
   31000    289.19775    123.25934    4123.8477   -1317.0791    109.47953   -1426.5587   0.12989244 
   31100    297.14175   -24.330092    4119.2782   -1326.2568    112.48683   -1438.7436   0.15485564 
   31200    284.68675   -215.25064     4119.024   -1323.5806    107.77184   -1431.3524   0.17720959 
   31300    302.41472   -44.521698    4125.3421   -1312.0015    114.48299   -1426.4845   0.15056263 
   31400    318.20422     91.39005    4126.2038   -1297.6808    120.46031   -1418.1411   0.14404875 
   31500    313.95872   -84.295281    4123.5913   -1312.0622    118.85312   -1430.9153   0.13948853 
   31600    289.90349   -140.57584    4120.2116   -1319.9814     109.7467   -1429.7281   0.17351182 
   31700    282.08142   -147.56689    4119.5689   -1323.6551    106.78555   -1430.4406   0.16958655 
   31800    256.33589   -118.84499    4120.5983   -1324.8495    97.039253   -1421.8888   0.16142573 
   31900    293.06794    11.983961    4121.8334   -1327.5222    110.94464   -1438.4668   0.12744598 
   32000    259.61556    7.0658928    4115.4075   -1329.9413    98.280814   -1428.2221   0.13615073 
   32100    292.19278    74.853892    4111.0948   -1329.6591    110.61334   -1440.2724   0.15322928 
   32200    264.94327    233.55374    4114.9687   -1334.0476    100.29769   -1434.3453   0.14019491 
   32300    268.14577    -141.5906    4116.8194   -1339.4431    101.51003   -1440.9532   0.14324282 
   32400    282.56503   -92.927406    4117.7794   -1330.9514    106.96863     -1437.92   0.13247969 
   32500    271.84654   -32.252327    4118.5341   -1340.9298    102.91101   -1443.8408   0.12169643 
   32600    284.04493   -205.17466    4123.1988   -1314.1209    107.52886   -1421.6497   0.15967697 
   32700    323.49129    38.691783    4120.0054    -1320.561    122.46179   -1443.0228   0.14677423 
   32800    302.35897    108.32081    4123.7832   -1332.7067    114.46188   -1447.1685   0.13613155 
   32900    321.72364    1.5377615    4125.1136   -1321.4203    121.79262   -1443.2129   0.12465233 
   33000    288.81897    22.078825    4125.1346   -1327.2265    109.33614   -1436.5626   0.12677674 
   33100    282.03322    30.024295    4125.3137   -1319.7194    106.76731   -1426.4867   0.13860139 
   33200    277.93173   -35.531639    4122.9806   -1324.9437    105.21463   -1430.1583   0.15264315 
   33300    282.27782    103.50821    4120.9281   -1334.2128    106.85991   -1441.0728   0.14671342 
   33400    312.37009   -74.859567    4122.8208   -1331.3333    118.25172    -1449.585   0.12806889 
   33500     275.3234   -160.49988    4122.2562   -1345.2693    104.22722   -1449.4966   0.12606647 
   33600    288.82348    71.072805       4120.1    -1335.418    109.33785   -1444.7559   0.11923403 
   33700    246.61295   -26.172523    4120.7611   -1338.4149    93.358509   -1431.7734   0.14425555 
   33800    304.09805     219.2054    4124.7602    -1330.726    115.12023   -1445.8462   0.13774499 
   33900    292.89055   -61.821782    4129.8661     -1312.52    110.87749   -1423.3975   0.18005485 
   34000    311.60141    95.503461    4132.1126   -1309.2141    117.96073   -1427.1748   0.15788809 
   34100    277.73703   -14.679649    4122.5698   -1330.5156    105.14093   -1435.6566   0.15280241 
   34200    267.13982   -14.694977    4119.2871   -1333.0658    101.12922   -1434.1951   0.13957816 
   34300     280.9815    24.239819    4124.1654   -1321.0324    106.36917   -1427.4015   0.15193265 
   34400    262.01363   -119.33198    4120.6746   -1335.4461    99.188634   -1434.6347   0.16250527 
   34500    271.36588    44.871872    4122.2916   -1319.4215    102.72905   -1422.1506    0.1785926 
   34600    296.85504   -117.60559    4123.7442   -1324.0821     112.3783   -1436.4604   0.14130969 
   34700     329.5143    447.38701    4126.8328   -1312.7964    124.74188   -1437.5382   0.11250287 
   34800    282.07297   -20.038557    4124.1104   -1330.3807    106.78235   -1437.1631   0.12859627 
   34900    295.70021   -240.05105    4117.7188     -1333.59    111.94112   -1445.5311   0.16592555 
   35000    292.00856   -109.34807    4120.6734   -1322.7906     110.5436   -1433.3342   0.17052663 
   35100    293.04297    33.522835     4122.653   -1311.3427    110.93519   -1422.2779    0.1614083 
   35200    299.82803    178.41472    4126.7583   -1311.7192    113.50376   -1425.2229   0.13388119 
   35300    305.13633    198.92398    4128.1053   -1307.3719    115.51329   -1422.8852   0.15381103 
   35400     290.3431   -62.057046     4129.671   -1317.9523    109.91312   -1427.8654    0.1745584 
   35500    264.15547   -79.710061    4125.5584   -1326.2351    99.999455   -1426.2346   0.16685298 
   35600    284.37647    13.659538    4123.4153   -1334.8175    107.65437   -1442.4718   0.13469404 
   35700     281.6236  0.050705696    4124.6075   -1331.7953    106.61224   -1438.4076   0.11840165 
   35800    328.54102   -231.95722    4127.0556   -1312.4636    124.37344    -1436.837   0.15574223 
   35900    311.83331    21.931996      4129.87   -1307.7986    118.04852   -1425.8471   0.16846769 
   36000    286.30839   -14.024901    4128.3325   -1314.9425    108.38573   -1423.3282   0.17174287 
   36100    327.64062    32.665196     4128.227   -1319.1523    124.03258   -1443.1849   0.13212501 
   36200    317.97435    68.694268    4125.9358   -1321.3459    120.37329   -1441.7191   0.11367107 
   36300    291.18694    3.4301667    4127.7266   -1325.2411    110.23257   -1435.4737   0.12888794 
   36400    290.04967   -119.33988    4122.5839   -1330.8061    109.80204   -1440.6081   0.15149386 
   36500    274.74152   -78.280681    4120.4411    -1329.194    104.00694    -1433.201   0.15733424 
   36600    300.09854     22.07842    4121.7462   -1324.3078    113.60617   -1437.9139   0.13674007 
   36700    301.95527    63.017143    4124.0882   -1320.9728    114.30906   -1435.2819   0.12443393 
   36800     293.6616   -33.298308    4125.3865   -1327.5918    111.16938   -1438.7612   0.13574676 
   36900    271.80291   -237.69743    4123.6517   -1317.6864    102.89449   -1420.5809   0.18986142 
   37000    295.36728    23.944922    4124.9649   -1313.6214    111.81509   -1425.4365    0.1717339 
   37100    307.91203    186.09036    4125.5309   -1314.0938    116.56406   -1430.6579   0.14724007 
   37200    303.21539    9.8036451    4125.1255   -1314.2054    114.78609   -1428.9915   0.13686621 
   37300    283.35207   -90.885475    4121.6583    -1328.678    107.26658   -1435.9446   0.15571844 
   37400    296.24004    179.11801    4121.0297   -1318.2995    112.14548    -1430.445   0.16925336 
   37500    288.37443    259.55496     4121.331    -1327.138    109.16785   -1436.3058   0.13725373 
   37600    300.63884    88.277548    4123.6751   -1327.6468     113.8107   -1441.4575   0.11740996 
   37700    294.64996   -110.14375    4125.6325   -1333.9967    111.54354   -1445.5402   0.11129255 
   37800    286.94085   -280.07161     4121.722   -1333.5007    108.62516   -1442.1258    0.1505616 
   37900    235.64519   -148.39256    4120.0912    -1353.809    89.206522   -1443.0155   0.12840843 
   38000    262.47403    103.04642    4119.3929   -1349.0931    99.362925    -1448.456   0.11676771 
   38100    272.86154    250.17544    4124.0127   -1331.7308    103.29525   -1435.0261   0.12427813 
   38200    275.84644    160.43003    4127.6222   -1327.0224    104.42522   -1431.4477   0.12429866 
   38300    276.71941   -95.569635     4128.073   -1326.3338     104.7557   -1431.0895   0.14879709 
   38400    289.51954    53.604898    4127.2857   -1324.6661    109.60135   -1434.2675   0.12936627 
   38500    301.68789     39.24457    4126.5565   -1329.4802    114.20784   -1443.6881   0.12404435 
   38600    260.72421   -200.97486    4128.0249   -1342.9733    98.700508   -1441.6739   0.12701473 
   38700    263.95612   -222.32208    4124.5803   -1335.7485    99.923988   -1435.6724   0.14253814 
   38800    244.25348   -203.10458     4122.303   -1336.9505    92.465298   -1429.4158   0.14881167 
   38900    304.06373   -32.892239    4122.1981   -1332.6317    115.10724   -1447.7389   0.10990852 
   39000    293.75488    274.92778    4126.2734   -1321.1071    111.20469   -1432.3118   0.13672334 
   39100     297.9937     33.92749      4130.26   -1323.9199    112.80935   -1436.7292   0.12310934 
   39200    273.59192   -52.396595    4124.5911    -1339.425    103.57175   -1442.9968   0.12334976 
   39300    269.26699   -7.3085674    4120.4951   -1338.3179    101.93449   -1440.2524   0.12288036 
   39400    239.49006   -1.3470235    4118.3751   -1357.2579    90.662045     -1447.92  0.099781934 
   39500    253.58135   -231.66764     4117.627   -1346.0348    95.996487   -1442.0313   0.12867469 
   39600    268.48605    279.19731    4120.7752   -1337.0017    101.63885   -1438.6406   0.12113134 
   39700    258.24283   -70.432654     4123.195   -1323.2621    97.761148   -1421.0232   0.16014253 
   39800    289.37633    2.2203086    4124.8504   -1333.9452    109.54713   -1443.4923   0.12313187 
   39900    270.84434    65.131078    4123.5417   -1323.5974    102.53161    -1426.129    0.1434859 
   40000    269.29068   -13.169255    4121.7222   -1335.9177    101.94346   -1437.8612    0.1361578 
   40100    323.67528    93.805616    4121.4061   -1308.7371    122.53144   -1431.2685   0.15005531 
   40200    287.89391   -109.21312    4126.5142   -1319.0269    108.98595   -1428.0129   0.15160475 
   40300    259.09276    154.49892    4122.5564   -1334.2442    98.082899   -1432.3271   0.13105152 
   40400    299.01954    51.963387    4124.0421   -1335.1465     113.1977   -1448.3442   0.11841892 
   40500    281.89016     169.5257    4122.6574   -1337.2924    106.71315   -1444.0056   0.10992853 
   40600    273.84752   -115.23946      4123.88   -1336.1962    103.66851   -1439.8647   0.13369436 
   40700    303.53649    174.77326    4127.3474   -1322.9575    114.90765   -1437.8651   0.12073241 
   40800    280.51235   -154.87936    4122.4131    -1330.815    106.19156   -1437.0066   0.13679133 
   40900    299.64069    170.98367    4123.1716   -1334.7462    113.43284    -1448.179   0.11511698 
   41000    277.73794    89.881001    4125.8265   -1334.4796    105.14127   -1439.6209   0.13015216 
   41100    270.62629     -45.0978    4124.4012   -1327.7398    102.44907   -1430.1889   0.15427714 
   41200    289.44314    4.9808151    4122.3275   -1336.2811    109.57243   -1445.8535   0.12753249 
   41300    277.56215   -100.12086    4126.2508   -1329.6061    105.07472   -1434.6809   0.13602376 
   41400    279.67281    3.0009534    4123.6833    -1319.804    105.87374   -1425.6778   0.15293505 
   41500    293.00719   -91.429384    4123.3011   -1321.1511    110.92164   -1432.0727    0.1788581 
   41600    279.80036    92.035303     4124.099   -1325.8079    105.92203     -1431.73   0.16330433 
   41700    306.60868   -39.108593    4123.2256   -1320.2406    116.07066   -1436.3113   0.15892116 
   41800    303.24794    73.315985    4122.7814   -1324.3503    114.79841   -1439.1487   0.13126275 
   41900    266.89685   -66.987962    4120.1173   -1333.8788    101.03724    -1434.916    0.1586902 
   42000    275.00317   -100.62986    4120.8096   -1327.1034    104.10599   -1431.2094   0.17537123 
   42100    288.15408    36.785941    4118.4774   -1328.5362    109.08444   -1437.6207   0.17181973 
   42200    276.28493    90.117978    4121.6112    -1331.775    104.59122   -1436.3662   0.12444559 
   42300     290.2504    210.56709    4118.4189   -1333.8479    109.87803   -1443.7259    0.1126374 
   42400    287.21348    76.742525     4122.663   -1333.1015    108.72836   -1441.8299   0.13428935 
   42500    252.44531   -89.786879     4121.457   -1328.7551    95.566421   -1424.3215   0.17474075 
   42600    257.03164   -246.69897    4118.1055   -1343.3641    97.302636   -1440.6667   0.15847026 
   42700    265.98887   -12.504254    4113.1443   -1351.0539    100.69351   -1451.7474   0.12140563 
   42800    262.46918    71.633207    4117.2518   -1339.8295    99.361086   -1439.1906   0.12359524 
   42900    277.43217     69.09645    4116.1273   -1349.0887    105.02552   -1454.1142   0.12012874 
   43000    242.36065    107.47323    4118.6356   -1339.5449    91.748746   -1431.2937   0.15480229 
   43100    273.27461     26.20165    4121.3421   -1337.1092    103.45162   -1440.5608   0.15449213 
   43200    274.43371   -30.461801    4126.2511    -1318.036    103.89041   -1421.9264   0.15207485 
   43300    280.60827    124.57332    4128.2721   -1326.3146    106.22787   -1432.5425   0.12767572 
   43400    294.14518   -43.668272    4127.3984   -1322.1405    111.35245   -1433.4929   0.13704268 
   43500    262.02045   -70.537341    4123.7829   -1334.9243    99.191216   -1434.1156   0.14563731 
   43600    278.33727    22.493808    4120.8007   -1330.3471    105.36816   -1435.7153   0.14996314 
   43700    328.79403    142.93877    4125.6122   -1326.2141    124.46922   -1450.6833    0.1222126 
   43800    250.84117    31.944237    4120.3461   -1334.0462    94.959153   -1429.0054   0.12828817 
   43900    279.10014    118.06034    4119.6523   -1335.4055    105.65695   -1441.0625   0.12359512 
   44000    260.97604    14.685562    4114.9742   -1352.6791     98.79584    -1451.475   0.12085436 
   44100     268.5047   -49.532612    4113.1974   -1352.9246    101.64591   -1454.5705   0.13631064 
   44200    244.75404   -41.456828    4113.6164   -1350.4183    92.654795   -1443.0731   0.14049232 
   44300    261.81085   -227.19837    4119.9212   -1334.1121    99.111869    -1433.224    0.1519944 
   44400    289.55781    87.471567    4119.0248   -1338.3025    109.61584   -1447.9183   0.12071732 
   44500    273.92885   -172.29023    4118.0863   -1339.9952     103.6993   -1443.6945   0.15073047 
   44600    271.10829    68.194212    4118.3454   -1342.8945    102.63153    -1445.526   0.13611992 
   44700    265.60582    215.24888    4119.5591   -1342.5928     100.5485   -1443.1413   0.13580603 
   44800    265.79485    36.011797    4121.3431   -1341.9573    100.62006   -1442.5774   0.12569889 
   44900    286.73546   -186.94133    4123.0467   -1334.0615     108.5474   -1442.6089   0.13631478 
   45000    321.11297    42.937311    4123.1307   -1313.4562    121.56145   -1435.0176   0.13692865 
   45100     316.8653   -10.815759    4121.2862   -1321.8928    119.95344   -1441.8462   0.14708979 
   45200     295.8047    5.4238309    4121.7476   -1317.7896    111.98068   -1429.7703    0.1627095 
   45300    317.24708    203.33954    4124.5287   -1313.6732    120.09797   -1433.7712   0.13888469 
   45400    311.90254      65.5008    4124.7094   -1313.5285    118.07472   -1431.6032   0.13960151 
   45500    320.32364   -39.627906    4121.8464   -1326.2937    121.26264   -1447.5564   0.11433077 
   45600    309.17955    258.91686     4126.885   -1313.1477     117.0439   -1430.1916   0.13557425 
   45700    315.10643   -35.851126    4128.9994   -1314.2094     119.2876    -1433.497   0.14972894 
   45800    295.41283   -28.786652    4128.0917   -1315.1998    111.83233   -1427.0321   0.16215033 
   45900    283.50094    115.71761    4129.3256   -1317.8755    107.32293   -1425.1984   0.13381737 
   46000    294.18979   -23.054147    4127.8089   -1328.5445    111.36933   -1439.9138   0.11687264 
   46100    265.55394    8.3284209    4127.7295   -1321.1986    100.52886   -1421.7275   0.14361371 
   46200    293.04552    185.34229    4127.2809   -1323.0019    110.93616    -1433.938   0.13632913 
   46300    268.88609    154.91763    4132.5125   -1311.6114    101.79029   -1413.4017   0.16015482 
   46400    311.25316    190.35427    4131.8862    -1316.467    117.82889   -1434.2959   0.13119886 
   46500    288.50495    69.906809    4136.6604   -1315.0309    109.21726   -1424.2481   0.13033042 
   46600    318.18138   -21.317066    4137.7694   -1309.2297    120.45166   -1429.6814   0.12622536 
   46700    287.81575    17.150453    4138.7397   -1312.8225    108.95636   -1421.7789   0.13274686 
   46800    275.49986   -69.412457    4132.8131   -1323.5477    104.29402   -1427.8417   0.14851968 
   46900    308.30584    204.84286    4133.2919   -1313.5067    116.71315   -1430.2198    0.1265559 
   47000    275.91403   -68.768823    4133.4314   -1325.8404    104.45081   -1430.2912   0.13490055 
   47100    319.91567    76.339187    4134.3297   -1317.7669    121.10819   -1438.8751    0.1135725 
   47200    276.91606    51.418731    4131.9901   -1321.6943    104.83014   -1426.5244   0.13415543 
   47300    315.83925    133.19338     4135.459   -1304.3948    119.56501   -1423.9598   0.14487748 
   47400     298.5488   -2.3028546    4135.8439   -1309.9866    113.01949   -1423.0061   0.15117331 
   47500    265.15372   -6.8349514     4131.509    -1341.262    100.37736   -1441.6393   0.12281976 
   47600    297.74276   -113.84838    4131.5506   -1328.5925    112.71435   -1441.3068   0.12401547 
   47700    271.38524   -104.02773     4130.478   -1333.7483    102.73638   -1436.4847   0.13267601 
   47800    290.90927     22.88558    4126.8907   -1342.0201    110.12745   -1452.1475   0.11765981 
   47900    301.34166   -92.443912    4130.1055   -1329.8008    114.07677   -1443.8775   0.12784826 
   48000    270.95097   -64.569108    4127.3856   -1342.8412    102.57198   -1445.4132   0.12189495 
   48100     249.5805   -177.82755    4130.0226   -1345.7182    94.481914   -1440.2001   0.11920335 
   48200    252.13022    86.420134    4130.0062   -1338.5364     95.44714   -1433.9835   0.11680299 
   48300    289.36367    21.175477    4123.4253   -1346.6571    109.54235   -1456.1994   0.11002828 
   48400    259.07561    29.183497    4128.4538   -1345.4218    98.076409   -1443.4983   0.11993381 
   48500    276.10788    165.45928    4127.7731   -1336.6109    104.52419   -1441.1351   0.12637366 
   48600    270.81263   -18.538378    4127.9797   -1332.2031    102.51961   -1434.7227   0.14276891 
   48700    286.33598    318.32471    4130.2421   -1323.6705    108.39617   -1432.0666   0.12730658 
   48800    295.74249   -59.823028    4134.9826   -1318.1242    111.95713   -1430.0813   0.12754494 
   48900    308.80527    225.64157    4133.8053   -1299.9212    116.90221   -1416.8234   0.14947867 
   49000    296.17688   -181.29435    4131.8809    -1311.822    112.12157   -1423.9435   0.16443132 
   49100    314.78526   -138.99872    4131.8485   -1302.9247    119.16601   -1422.0907   0.16862995 
   49200    270.17345   -263.81385    4127.3203   -1316.9592    102.27764   -1419.2369   0.16716138 
   49300    304.41981    188.78631    4129.1378   -1310.8629    115.24204   -1426.1049   0.14605378 
   49400    291.89378    54.259669     4126.613   -1317.5449    110.50015   -1428.0451    0.1661986 
   49500     318.5849   -79.071835    4126.3242   -1329.4205    120.60442   -1450.0249   0.13987454 
   49600    265.36832   -203.14188    4120.5644   -1331.0133     100.4586   -1431.4719   0.15979246 
   49700    266.38966    78.944466    4121.6833   -1330.8541    100.84524   -1431.6993   0.14711245 
   49800    273.73753     4.272561    4121.7997   -1324.1498    103.62687   -1427.7767    0.1500802 
   49900    295.07732    33.297211    4126.5702   -1323.2219    111.70532   -1434.9272   0.14399812 
   50000    282.84221    75.997521    4124.6616   -1328.6911    107.07356   -1435.7647   0.14676202 
   50100    293.40922    289.18151    4120.9593   -1321.5189    111.07384   -1432.5927   0.16205105 
   50200    276.13293    133.12773    4121.2779   -1329.6641    104.53368   -1434.1978   0.14054474 
   50300    343.10053    528.55037    4126.4286   -1304.7672    129.88513   -1434.6523   0.14309754 
   50400    308.03759   -139.95261    4124.2249   -1325.0019     116.6116   -1441.6135    0.1535243 
   50500    283.80119    60.369163    4126.2611   -1318.3099     107.4366   -1425.7465   0.17063597 
   50600    281.00017   -137.57581    4122.5947   -1326.8594    106.37623   -1433.2356   0.17343186 
   50700    284.64285   -107.66849    4122.9465   -1328.4513    107.75522   -1436.2065   0.15449109 
   50800    293.56366   -60.719127    4120.4369   -1317.9136    111.13231   -1429.0459    0.1655427 
   50900    278.36298   -54.873705    4120.6892   -1351.3197    105.37789   -1456.6976   0.11600914 
   51000    271.72604   -12.633988    4118.5618   -1344.7927    102.86539    -1447.658   0.13292841 
   51100    274.97896    62.177079    4119.0306   -1340.3487    104.09683   -1444.4455   0.14539296 
   51200     290.2567    64.643236    4123.9056   -1335.0819    109.88041   -1444.9623   0.13122527 
   51300    258.08123   -248.41219    4122.3785   -1338.2101    97.699974   -1435.9101   0.14921661 
   51400    234.19179   -72.163312    4120.2885   -1348.3763    88.656317   -1437.0326   0.12816987 
   51500      238.493    43.969825    4120.5624   -1349.4056    90.284595   -1439.6902   0.13886702 
   51600    270.39956    24.650139    4121.4954     -1337.57    102.36323   -1439.9333   0.14547947 
   51700    280.45815     165.2951    4122.4465   -1334.6979    106.17104    -1440.869   0.14494031 
   51800    252.67073    195.50602    4123.6516   -1342.6403    95.651758   -1438.2921   0.13430697 
   51900     269.2733    -97.10599    4125.4679   -1334.1255    101.93688   -1436.0623   0.13480817 
   52000    252.14815   -97.343139    4124.6888    -1336.688    95.453929   -1432.1419   0.14668988 
   52100    240.88644   -149.91597    4122.1818   -1356.7889    91.190663   -1447.9795   0.14231114 
   52200     286.3875    83.919981    4122.4951   -1339.6418    108.41568   -1448.0575   0.14191239 
   52300    292.12122    -8.468412    4125.8695   -1337.0582    110.58625   -1447.6444   0.12960289 
   52400    257.79722   -275.26195    4122.8421   -1345.5992    97.592458   -1443.1917   0.12618808 
   52500    255.75843     66.41694    4118.2638   -1346.6073    96.820648   -1443.4279   0.12763062 
   52600    248.61722    233.43183    4114.6263    -1352.555    94.117251   -1446.6723   0.13196427 
   52700    269.27801    107.17131    4117.5594   -1351.5301    101.93866   -1453.4688   0.12747501 
   52800    265.17108    154.65891    4124.0765   -1337.3549    100.38393   -1437.7389   0.13661915 
   52900    279.84743   -221.54483    4123.0158   -1345.8915    105.93985   -1451.8314   0.13118571 
   53000     290.7575   -36.343153    4128.4179   -1321.9609       110.07   -1432.0309   0.14861662 
   53100    282.79238   -91.164868    4132.3043    -1328.945     107.0547   -1435.9997   0.14103211 
   53200    273.17531   -21.370887    4129.7095   -1320.0821    103.41403   -1423.4961   0.18906565 
   53300    262.28737   -93.452791     4125.247   -1348.5958    99.292262   -1447.8881   0.14757084 
   53400    256.15848   -69.536247    4124.9708   -1340.1424     96.97209   -1437.1145   0.14996049 
   53500    268.50761   -69.323964    4121.4598   -1351.6537    101.64701   -1453.3007   0.11620288 
   53600    287.64909    31.793309    4122.8557   -1335.8572    108.89327   -1444.7505   0.12787082 
   53700    250.13523   -57.114921    4124.9592   -1333.2774    94.691912   -1427.9693   0.15322181 
   53800    301.86845   -166.81351    4124.8292   -1337.2842    114.27619   -1451.5604   0.14156372 
   53900    261.53047    139.24595    4127.9411   -1329.0656    99.005728   -1428.0714   0.14314706 
   54000    290.05563    38.168163    4127.2903   -1331.0751    109.80429   -1440.8794   0.11614223 
   54100    306.10674    35.166979    4132.8529    -1324.067    115.88065   -1439.9476   0.12197821 
   54200    278.07722   -183.89235    4128.2104   -1319.2088    105.26971   -1424.4785    0.1727829 
   54300    287.15881    38.817481    4125.8634   -1318.7523    108.70767     -1427.46   0.16619393 
   54400    306.99312   -20.937349    4130.1408   -1310.1166     116.2162   -1426.3328   0.15905692 
   54500     282.9321    150.95645    4129.0198   -1325.1189    107.10759   -1432.2265   0.13518058 
   54600     283.4946    117.64598    4127.6802   -1331.7944    107.32053   -1439.1149   0.13989996 
   54700    270.18246   -13.155171    4130.9538   -1330.7589    102.28105   -1433.0399   0.15895729 
   54800     264.2546   -114.41618    4128.6876   -1331.4774    100.03698   -1431.5143   0.16670993 
   54900    269.72318   -12.171763    4126.3128   -1336.0993    102.10718   -1438.2065   0.14399917 
   55000     292.8016   -130.93207    4127.4896   -1338.7533    110.84382   -1449.5971   0.13120936 
   55100    302.44165    277.77282    4129.9984   -1321.3351    114.49318   -1435.8283    0.1230442 
   55200    310.63007   -155.81298    4132.4511   -1323.2163    117.59301   -1440.8093   0.14573958 
   55300    284.25513     99.78999    4125.9918   -1335.4941    107.60844   -1443.1025   0.13996795 
   55400    236.19999   -136.21183    4120.0216   -1350.0272    89.416547   -1439.4437   0.13628506 
   55500    274.62275    109.64792    4120.9656   -1347.3639    103.96198   -1451.3259   0.11342425 
   55600    276.41118     198.1921    4120.7094   -1341.6169    104.63901   -1446.2559   0.10911014 
   55700    279.61427    29.217834    4126.8559   -1328.4743    105.85158   -1434.3259   0.13160709 
   55800    317.55378      152.251     4128.925   -1323.4747    120.21407   -1443.6888   0.13454697 
   55900    296.50502   -27.877428    4133.7932   -1308.8879    112.24579   -1421.1337   0.15487343 
   56000    319.90206    77.434907     4139.528   -1303.0829    121.10304   -1424.1859    0.1499852 
   56100    283.18908   -44.880213    4136.4244   -1325.5796    107.20487   -1432.7845   0.13884317 
   56200    291.75968   -27.882324    4132.8588   -1312.2958    110.44938   -1422.7452   0.16528116 
   56300    282.05515   -302.68147    4130.8466   -1322.5684    106.77561    -1429.344   0.18157437 
   56400     300.0832    121.74032    4129.2361   -1322.0071    113.60036   -1435.6074      0.16734 
   56500    303.15084    69.236253    4129.7341   -1320.2012    114.76165   -1434.9628   0.17225383 
   56600    286.61042    35.833014    4126.4124   -1335.3391    108.50007   -1443.8392   0.13814394 
   56700    241.07402   -40.635867    4122.6055   -1350.4859    91.261673   -1441.7475   0.13361181 
   56800    259.12828    -96.41398    4124.3322   -1347.9576    98.096346    -1446.054   0.12965789 
   56900    266.14541   -35.126169    4123.7422   -1347.4617    100.75277   -1448.2145    0.1366118 
   57000    289.02167    126.20312    4126.0951   -1339.6323    109.41288   -1449.0452   0.12718131 
   57100    271.89035    14.486751     4128.267   -1341.3775    102.92759   -1444.3051   0.11846765 
   57200    284.96206    20.299559     4126.606   -1344.4593    107.87606   -1452.3353   0.10813251 
   57300    289.73961     131.5273    4128.4164   -1328.8782    109.68466   -1438.5628   0.11981878 
   57400     284.7611    47.503966    4130.5167   -1317.9387    107.79998   -1425.7386   0.16885388 
   57500    265.30154   -49.874561    4125.0523    -1331.451    100.43331   -1431.8843   0.16549729 
   57600    277.98893    97.150152     4123.178   -1338.6484    105.23629   -1443.8847   0.13189103 
   57700    268.05458    12.180743    4125.2342   -1329.7964    101.47551   -1431.2719   0.13446108 
   57800    278.29385    26.235956    4119.9809   -1349.9829    105.35172   -1455.3347   0.13101152 
   57900    259.55586    80.443814    4119.5307   -1342.0908    98.258214    -1440.349   0.17701157 
   58000    254.31022   -125.70046    4123.5077   -1341.5607     96.27241   -1437.8331   0.18347454 
   58100    309.23983    41.697316    4130.7453   -1321.7882    117.06672   -1438.8549   0.17177071 
   58200    278.13196   -13.178836    4124.2966    -1342.336    105.29043   -1447.6264    0.1300988 
   58300    259.83079   -43.577776    4122.2594   -1353.9369     98.36229   -1452.2991   0.12781142 
   58400    231.51441   -32.967007     4120.304   -1349.6335    87.642762   -1437.2762   0.15526977 
   58500    257.86375   -269.13307     4123.804   -1334.7657    97.617642   -1432.3834   0.18987629 
   58600    285.50444   -147.14109    4123.8961   -1341.8209    108.08138   -1449.9023   0.14742922 
   58700    280.95152   -65.843941    4123.8507   -1341.4013    106.35781   -1447.7591   0.11643339 
   58800    292.43332  -0.17477591    4124.5293   -1334.0375     110.7044   -1444.7419   0.11310193 
   58900     276.5728    117.00492    4125.8261   -1331.7227     104.7002   -1436.4229   0.13223601 
   59000    305.97259    138.97431    4129.3344   -1312.8762    115.82986    -1428.706   0.16154089 
   59100    274.34699    124.26968    4125.9978   -1327.8871    103.85759   -1431.7447   0.14854302 
   59200    303.74706     106.1347     4128.721   -1312.6396    114.98736   -1427.6269   0.15728704 
   59300    293.24369   -1.9426954    4128.3432    -1320.493    111.01117   -1431.5042   0.15163932 
   59400    242.19563   -75.878414     4118.724   -1346.1376    91.686273   -1437.8239   0.14601947 
   59500    259.92429    12.698536    4117.7013   -1336.8261    98.397687   -1435.2237   0.16331268 
   59600    251.43984    -116.5875    4120.7515   -1341.2874    95.185788   -1436.4731   0.17831741 
   59700    244.40915   -191.99277    4122.1387   -1346.0901     92.52423   -1438.6143   0.16830668 
   59800    259.92672    83.640913    4118.4046   -1343.3956    98.398608   -1441.7942   0.15147913 
   59900    284.79328    47.672926    4123.5736   -1321.3903    107.81216   -1429.2024   0.15466977 
   60000    266.41957   -69.575834    4124.9899   -1341.0045    100.85656   -1441.8611   0.13915642 
   60100    283.28105   0.14710737    4120.2181   -1342.4665    107.23969   -1449.7062   0.13229173 
   60200    299.55434    113.82036    4122.3977   -1331.7214    113.40015   -1445.1216   0.14342687 
   60300    260.12854   -128.62119    4124.7038   -1330.8913    98.475007   -1429.3663   0.15494465 
   60400     325.0318    35.302367    4125.8492   -1324.2003    123.04497   -1447.2453   0.12987798 
   60500     274.9614   -54.948984    4125.0152   -1324.3968    104.09018   -1428.4869    0.1485815 
   60600    293.93393    28.184466    4125.4612   -1317.1785    111.27247    -1428.451    0.1631708 
   60700    303.60885    29.046215    4129.0825   -1303.8244    114.93504   -1418.7594    0.1695679 
   60800     285.3582    5.0737512    4129.6394    -1319.308    108.02602    -1427.334   0.15528635 
   60900    300.08605    25.583537    4127.1119   -1317.8584    113.60144   -1431.4598   0.15292232 
   61000    295.23966    70.651271    4130.2193     -1315.42    111.76678   -1427.1867   0.14843564 
   61100    296.18506    49.771481    4130.4508   -1316.3766    112.12467   -1428.5013   0.15530254 
   61200    276.01216    147.47609    4125.4497   -1321.8682    104.48796   -1426.3562   0.16340343 
   61300    293.36585    28.110424    4129.1694   -1319.1044    111.05742   -1430.1618   0.16691521 
   61400    274.35791     29.67551    4127.4961   -1320.0042    103.86172   -1423.8659   0.14844004 
   61500    339.95802    53.432769    4130.1695   -1320.9847    128.69549   -1449.6802   0.13708864 
   61600    280.47778   -203.29763    4125.6418     -1326.31    106.17847   -1432.4885   0.15746534 
   61700    294.90506   -84.472179    4128.1813   -1326.1826    111.64011   -1437.8227   0.15159455 
   61800    283.52636    108.35666    4126.6353   -1330.8262    107.33256   -1438.1588   0.13010452 
   61900    268.03434    35.544482    4123.1737   -1346.6453    101.46785   -1448.1132   0.11479209 
   62000    270.25631    54.358574    4120.8019   -1341.9474    102.30901   -1444.2564   0.12247587 
   62100    275.07268    1.7469271    4123.9697   -1328.9258    104.13231   -1433.0581   0.15146474 
   62200    293.85826    47.566514    4126.8241   -1323.3095    111.24383   -1434.5533   0.14978902 
   62300    263.38363     47.56297    4121.7454   -1332.9706    99.707266   -1432.6779   0.15829609 
   62400     304.6339    191.65604    4120.6641   -1329.4205    115.32308   -1444.7436   0.13847304 
   62500    288.54567    88.031092    4124.1411    -1329.372    109.23268   -1438.6047   0.14062432 
   62600    279.60681   -195.28837    4123.8193   -1334.7785    105.84876   -1440.6273   0.14186606 
   62700    282.94441   -50.796909    4119.8704   -1332.7272    107.11225   -1439.8395   0.15445562 
   62800    283.01227    -201.0608    4121.1753   -1338.1899    107.13794   -1445.3279   0.15190149 
   62900    262.74913    95.336419    4121.8094   -1344.0434    99.467067   -1443.5104   0.13202443 
   63000    263.71197   -46.582361    4121.2968   -1349.9165    99.831562   -1449.7481   0.13386389 
   63100    275.96582   -26.308651    4125.5354   -1320.9645    104.47041   -1425.4349    0.1714535 
   63200    256.63772   -150.39675    4121.8773   -1332.2331    97.153512   -1429.3866   0.16762275 
   63300    296.43218    105.75546    4123.8684   -1338.0677    112.21822    -1450.286    0.1226067 
   63400    255.48072   -67.106089    4121.0217   -1340.8107    96.715518   -1437.5262   0.14276225 
   63500     275.8564   -129.07166    4122.1876   -1343.1076    104.42899   -1447.5365   0.13350448 
   63600    269.43695    131.61756    4118.3153   -1340.3013    101.99883   -1442.3001   0.15063937 
   63700    267.28545    99.200817    4123.7822   -1332.7949    101.18435   -1433.9792    0.1551013 
   63800    263.63623   -159.72171    4122.3267   -1339.7571    99.802891   -1439.5599   0.14978462 
   63900    272.32623   -87.819724    4123.3245   -1341.0762     103.0926   -1444.1688   0.13320793 
   64000    287.57699    286.62273    4122.4755   -1332.6389    108.86597   -1441.5048   0.12382348 
   64100    282.36169   -119.72594    4121.8377   -1331.5914    106.89165   -1438.4831   0.15850021 
   64200    299.47917   -61.306703    4127.6677   -1322.9603     113.3717    -1436.332   0.16429679 
   64300    285.80798   -172.68954    4125.0679   -1323.0453    108.19629   -1431.2416   0.17160451 
   64400    303.15135   -152.83409    4125.7472   -1328.7792    114.76185   -1443.5411   0.14991607 
   64500    293.33547    53.576282    4127.7383   -1312.5759    111.04592   -1423.6218   0.15483923 
   64600    310.73283    143.71489    4131.7294   -1319.7642    117.63192   -1437.3961   0.13757711 
   64700    267.70867    112.88032    4127.2017   -1322.2623    101.34456   -1423.6068   0.17333936 
   64800    280.78162   -384.44922    4126.8398   -1318.2494     106.2935   -1424.5429   0.19244044 
   64900     300.3829   -33.032862    4125.4238   -1320.1672    113.71382    -1433.881   0.15139868 
   65000    282.60096   -112.78104    4118.3545   -1335.2903    106.98223   -1442.2726   0.12664037 
   65100    296.79777    108.83193    4121.7968   -1314.5404    112.35662    -1426.897    0.1505043 
   65200    334.60926    21.044991    4126.7646   -1309.4273    126.67064    -1436.098   0.16488797 
   65300     294.3559    41.351189    4124.4605   -1309.7604    111.43221   -1421.1926   0.18733175 
   65400    275.58805   -263.56824    4124.3558   -1327.3892    104.32741   -1431.7167   0.17189428 
   65500    293.94321    241.38105    4123.5061   -1326.9972    111.27599   -1438.2732   0.12801279 
   65600    273.77828    68.740665    4125.1406   -1333.0479    103.64229   -1436.6902    0.1371501 
   65700    283.30993   -12.203279    4123.8359   -1325.4232    107.25062   -1432.6738   0.16432053 
   65800    266.24037   -76.177092    4124.6049   -1323.5965    100.78872   -1424.3853   0.18469938 
   65900    293.13137   -250.16829    4130.6485   -1313.2931    110.96865   -1424.2618   0.18852286 
   66000    283.97636    57.535973    4127.5441   -1322.3775    107.50291   -1429.8804    0.1674171 
   66100    259.33257   -227.96111    4130.2086   -1331.1002    98.173685   -1429.2739   0.14949588 
   66200     288.5135   -8.9192643    4129.5808   -1325.8025     109.2205    -1435.023   0.14591524 
   66300    262.50088   -59.961015    4128.8577   -1328.2434    99.373087   -1427.6164   0.16061789 
   66400    309.60174    125.03862    4131.3033   -1312.9858    117.20373   -1430.1895   0.16259558 
   66500    257.49789   -154.31335    4126.0141   -1336.0319    97.479142    -1433.511   0.16367439 
   66600    296.11177     91.24117     4129.009   -1329.6928    112.09692   -1441.7898   0.12078774 
   66700    290.05323    6.1276342    4127.5992   -1324.6994    109.80338   -1434.5028   0.13377654 
   66800    287.75745     203.5871    4125.6736   -1330.9715    108.93429   -1439.9058   0.12555311 
   66900    256.65111     61.01926    4124.0622     -1333.21    97.158582   -1430.3686   0.15770466 
   67000    258.62521    43.528809    4123.5796   -1345.4314    97.905904   -1443.3373   0.14528128 
   67100     273.0145   -151.77423    4125.2814   -1334.5642    103.35316   -1437.9173   0.14726674 
   67200    258.16559   -106.10127    4122.6833   -1351.2424    97.731908   -1448.9743    0.1147184 
   67300    261.24911    200.62672    4120.0446    -1351.615    98.899216   -1450.5142    0.1035455 
   67400    286.53219   -11.102887    4122.7267   -1340.5263    108.47045   -1448.9968   0.14587987 
   67500    274.47641    104.51995    4124.0956   -1332.7934    103.90658   -1436.6999   0.14975733 
   67600    277.67716     51.50849    4127.7699   -1325.5492    105.11827   -1430.6675   0.16341872 
   67700    261.72398    181.17011    4127.8374   -1326.1967    99.078983   -1425.2757   0.14437795 
   67800    291.77405   -45.101838    4130.2492   -1320.9446    110.45482   -1431.3994   0.14889106 
   67900    280.37771   -120.04533    4129.9621   -1328.6721    106.14059   -1434.8127   0.14367938 
   68000    282.25751    24.367997    4130.7702   -1325.6689    106.85221   -1432.5211   0.15879166 
   68100    292.13227   -47.367022    4130.5016   -1327.5921    110.59043   -1438.1825    0.1530003 
   68200    261.13484    48.493515    4125.0176   -1338.7899    98.855955   -1437.6458   0.13313118 
   68300    304.80538    170.72369    4125.6039   -1338.5408      115.388   -1453.9288   0.10431719 
   68400     286.4367    69.696986    4122.4996   -1320.5305     108.4343   -1428.9648   0.14091719 
   68500     293.6442    36.093762    4126.3831   -1329.0387    111.16279   -1440.2015   0.14809848 
   68600    279.50535   -210.91647    4126.5093   -1324.3628    105.81035   -1430.1732   0.17402309 
   68700    270.58175   -130.72842    4129.0844   -1333.9951    102.43221   -1436.4273   0.13720196 
   68800    309.56067    38.937574     4129.922   -1323.9103    117.18818   -1441.0985   0.11057274 
   68900    272.65862     192.8295    4126.9429   -1337.7588    103.21843   -1440.9772   0.11499867 
   69000    282.96704    57.989937    4127.9217   -1324.2373    107.12082   -1431.3581   0.14012986 
   69100    291.73559    48.663726    4129.5683   -1327.3199    110.44026   -1437.7602   0.15995964 
   69200    313.52708   -156.50859    4132.7682   -1310.0325    118.68971   -1428.7222   0.16039325 
   69300    285.51664   -37.034171    4133.3406   -1325.4692      108.086   -1433.5552   0.12224161 
   69400    287.26881    -182.0027    4131.3778   -1330.5169    108.74931   -1439.2662   0.12325922 
   69500    300.98789      83.3329    4127.6966    -1328.132    113.94284   -1442.0749   0.13619993 
   69600    264.67807   -41.568038     4125.484   -1329.1379    100.19729   -1429.3352   0.16515729 
   69700    276.10358   -24.534897    4126.5649   -1345.9988    104.52257   -1450.5213   0.13950305 
   69800    281.32086    87.385741    4129.4236   -1325.0357    106.49763   -1431.5333   0.13467239 
   69900    274.95313    113.32237    4131.9672   -1325.1472    104.08705   -1429.2342   0.11104849 
   70000    285.57544    6.4981722    4128.1631   -1328.6999    108.10826   -1436.8081    0.1283886 
   70100    270.64666    36.111998    4126.1638   -1335.3152    102.45678    -1437.772   0.15491145 
   70200    263.23692   -69.485913    4123.6061   -1343.4062    99.651727   -1443.0579   0.15113398 
   70300    276.21611   -116.19599    4126.4453   -1344.0835    104.56516   -1448.6486   0.12907554 
   70400    289.52823    65.096227    4124.6444   -1339.4735    109.60464   -1449.0781  0.097174563 
   70500    282.45167   -113.86552    4128.6097   -1332.0651    106.92572   -1438.9908   0.12526823 
   70600    300.58775    122.98893    4126.0276   -1329.1616    113.79136    -1442.953   0.14843122 
   70700    275.32714   -124.92947    4126.7341   -1327.8207    104.22863   -1432.0493   0.17245153 
   70800    286.91239    -293.2002    4127.1235   -1327.1556    108.61438     -1435.77   0.15497682 
   70900     262.3791    45.922167    4122.1103   -1348.6965    99.326986   -1448.0235  0.099037002 
   71000    293.32277   -127.34583    4124.9209   -1326.6204    111.04111   -1437.6616   0.12385672 
   71100     269.9737    66.062024    4122.9006   -1337.3317    102.20202   -1439.5337   0.14115297 
   71200    262.93765    149.68023     4123.153   -1338.5354    99.538433   -1438.0739   0.14870158 
   71300    262.87396    -81.79047    4122.6439   -1347.4843    99.514321   -1446.9986   0.13274834 
   71400     280.4476    55.868136    4130.5875   -1332.5706    106.16705   -1438.7376   0.11497993 
   71500    269.41603    204.31054    4131.4199   -1329.9447    101.99091   -1431.9356   0.10379264 
   71600    268.28957    -9.330213    4123.2564   -1334.8636    101.56447   -1436.4281   0.12921682 
   71700    270.30497    11.977681     4123.769   -1337.0202    102.32743   -1439.3476   0.14755004 
   71800    269.92599    91.479362     4125.992   -1325.1495    102.18396   -1427.3335   0.16291206 
   71900     262.0533   -159.21495    4131.1313   -1327.1203    99.203652    -1426.324   0.15681286 
   72000    286.16097   -86.792114    4133.6043   -1332.9427    108.32992   -1441.2726   0.10725194 
   72100     292.0273   -27.546604    4126.3373   -1340.1943     110.5507    -1450.745   0.10889436 
   72200    284.98992   -26.268882    4126.6214   -1331.6237     107.8866   -1439.5103   0.14364562 
   72300    299.72824   -43.935215    4127.2675   -1315.2233    113.46598   -1428.6893   0.17248515 
   72400     296.4371     75.24328    4130.7077   -1308.3661    112.22008   -1420.5862   0.17290334 
   72500    332.39486    143.97921    4139.0938   -1298.4551    125.83236   -1424.2874   0.11773329 
   72600    318.79103   -117.03308    4134.0843   -1306.9003    120.68245   -1427.5827   0.14174886 
   72700    300.13272    -100.7202    4128.5739   -1327.4952    113.61911   -1441.1143   0.14094506 
   72800    279.96962   -13.740849    4123.6377   -1329.7236     105.9861   -1435.7097   0.16668314 
   72900    265.77684   -165.10541    4131.5084   -1329.7012    100.61325   -1430.3145   0.15252784 
   73000    263.03777    24.536851    4127.2079   -1333.1067    99.576333    -1432.683   0.11931544 
   73100    301.12543   -7.4651426    4127.8731   -1321.4896    113.99491   -1435.4845   0.11289393 
   73200    294.54423    57.243658    4123.9611   -1321.0114    111.50351   -1432.5149   0.13184965 
   73300    290.94938    197.56118     4127.068   -1331.5192    110.14263   -1441.6619    0.1412779 
   73400    298.46352   -41.669814    4133.8161   -1318.0465    112.98721   -1431.0337   0.15138065 
   73500    307.12138   -41.383082     4137.957   -1308.3838    116.26475   -1424.6485   0.13727961 
   73600     352.9832    165.14414    4138.6771   -1294.9745    133.62634   -1428.6009   0.12131403 
   73700    289.24785   -47.387685    4131.3762    -1301.818     109.4985   -1411.3165   0.14339883 
   73800    269.22041   -54.410334    4130.7886   -1318.6032    101.91685     -1420.52   0.15705261 
   73900    328.51315   -205.50214    4129.9717   -1314.7684    124.36288   -1439.1313    0.1728426 
   74000     322.6474   -50.268603     4131.793   -1320.2963    122.14233   -1442.4386   0.15904134 
   74100    318.55831    86.632128    4133.2423   -1317.1592    120.59435   -1437.7536   0.12182847 
   74200    285.73787    169.92744    4127.9683     -1335.62    108.16975   -1443.7898   0.10463168 
   74300    285.52369     161.9205     4131.052    -1322.204    108.08867   -1430.2927   0.13109418 
   74400    329.35937   -221.90848    4141.7104   -1294.7988    124.68323   -1419.4821   0.19846999 
   74500     283.3099    -14.93286    4134.0709   -1311.4143    107.25061   -1418.6649   0.16688489 
   74600    299.68947   -3.6850192    4131.6506   -1322.3378    113.45131   -1435.7891   0.12734127 
   74700    324.97094    167.04377    4129.4142   -1326.3974    123.02193   -1449.4193  0.091160566 
   74800    330.12297    154.83722    4131.2922   -1313.5905     124.9723   -1438.5628   0.11284828 
   74900    310.85704   -82.603146    4137.0817   -1297.6124    117.67893   -1415.2913   0.19876044 
   75000    302.64818   -48.773396    4135.1728   -1301.7232    114.57137   -1416.2946   0.18269788 
   75100    301.69669   -57.081091    4135.4318   -1307.9316    114.21117   -1422.1428   0.16549717 
   75200    301.00291    35.157525    4132.0805   -1327.2283    113.94853   -1441.1768   0.10735701 
   75300    307.41013    50.550585    4132.9523    -1322.114    116.37406    -1438.488   0.13699671 
   75400    290.36436   -42.014019    4130.9155   -1322.5852    109.92117   -1432.5064   0.18009474 
   75500    263.45649   -320.06498    4127.8855   -1334.3375    99.734846   -1434.0723   0.18163149 
   75600    307.31646   -82.275138    4128.2877   -1340.7995     116.3386   -1457.1381   0.12929639 
   75700    275.33294     83.96373    4127.7502   -1337.5853    104.23083   -1441.8162   0.10163586 
   75800    263.27917    131.00303    4126.5528   -1338.2249    99.667721   -1437.8926   0.12048233 
   75900     288.9127    9.6967266    4126.5984   -1325.2654    109.37162   -1434.6371   0.14830479 
   76000    271.16015   -85.197749    4127.4388   -1325.2272    102.65116   -1427.8784   0.15849644 
   76100    281.57092    53.752464     4122.541   -1331.2899     106.5923   -1437.8822   0.13599078 
   76200    308.33194    -41.79587    4124.5284   -1324.8113    116.72303   -1441.5343   0.12854631 
   76300     326.1481    38.200646    4125.2516   -1319.2787    123.46756   -1442.7463   0.12453053 
   76400     280.5717   -33.062287    4118.2868   -1334.0325    106.21403   -1440.2465   0.14036402 
   76500    291.20583   -86.769337    4120.5646   -1321.7272    110.23972   -1431.9669   0.16896361 
   76600    309.72959   -50.918692    4121.0365   -1325.8171    117.25212   -1443.0693   0.15779295 
   76700    280.65973    108.36003    4117.4109      -1338.2    106.24735   -1444.4474   0.13550019 
[...]
   81900    255.84136   -60.506083    4124.4995   -1322.0474     96.85204   -1418.8995   0.14987562 
   82000    264.57003    166.25281    4126.9355   -1328.0282    100.15639   -1428.1845   0.12770991 
   82100    260.59616    135.74749    4121.8416    -1337.917    98.652033    -1436.569   0.12310155 
   82200    266.48506   -19.295789    4123.8174   -1339.1828    100.88135   -1440.0642   0.14043741 
   82300    261.70819    14.597551    4123.7309   -1333.3169    99.073004   -1432.3899   0.14245166 
   82400    272.92372   -139.71345    4128.0083   -1330.8931    103.31879   -1434.2119   0.14439946 
   82500    271.97434    22.714194    4126.8326   -1328.1759    102.95939   -1431.1353   0.11981082 
   82600    294.42837     76.27387    4125.4043   -1331.8744    111.45965   -1443.3341   0.12182992 
   82700    284.62779    244.87412    4122.6842    -1335.243    107.74951   -1442.9925   0.11857621 
   82800    292.35662   -90.905548    4123.9265   -1311.2249    110.67536   -1421.9002   0.18365323 
   82900    316.31514    68.362092     4134.491   -1310.8048    119.74517     -1430.55   0.14615509 
   83000    275.71974   -196.49443    4129.6096   -1326.8084    104.37726   -1431.1856   0.13643186 
   83100    302.19958    63.902078    4130.0945   -1326.2412    114.40154   -1440.6427   0.11806533 
   83200     304.4851    4.0465606    4131.1534   -1318.5699    115.26676   -1433.8366   0.13701298 
   83300    308.72524   -137.40091    4131.1131   -1313.8584    116.87192   -1430.7303   0.15979956 
   83400    293.46361   -9.8987683    4132.9051   -1311.6255    111.09443   -1422.7199   0.15911013 
   83500    293.70704   -213.99228    4130.3483    -1321.797    111.18658   -1432.9836   0.14402319 
   83600    310.75861   -77.411878    4129.1444   -1324.9132    117.64167   -1442.5548    0.1228472 
   83700    287.21075   -42.179481    4126.7936   -1330.0031    108.72733   -1438.7305   0.13447011 
   83800    271.46615   -83.481495    4127.8192   -1328.7081    102.76701   -1431.4751   0.14162777 
   83900    273.72389   -8.8418135    4122.1183   -1337.8658     103.6217   -1441.4875    0.1436763 
   84000    264.20906   -172.57299    4124.0515   -1342.1664    100.01974   -1442.1862   0.13309126 
   84100     269.1036    102.49207    4122.2018   -1333.2411    101.87263   -1435.1137   0.11538717 
   84200    262.99433   -15.475202    4121.5012   -1336.5648    99.559888   -1436.1247   0.12884466 
   84300    308.63226     299.0741    4124.6832   -1322.9064    116.83671   -1439.7431   0.13776671 
   84400    262.21103    96.243692     4123.592   -1324.2832    99.263363   -1423.5465   0.15944551 
   84500    274.92331    59.992703    4123.6326   -1331.2593    104.07576   -1435.3351   0.13505399 
   84600    280.59617    158.23399    4123.4025   -1329.1596    106.22329   -1435.3829    0.1163633 
   84700    280.72605   -64.017574     4122.332   -1323.6844    106.27246   -1429.9568   0.13832552 
   84800    287.11566    120.20558    4116.9682   -1334.5809    108.69133   -1443.2722   0.15410911 
   84900    286.34313   -175.25172    4118.2073   -1317.6994    108.39888   -1426.0983   0.18477828 
   85000    292.99422    108.31582    4119.9353    -1327.157    110.91674   -1438.0737   0.14892479 
   85100    287.82425   -109.63123    4119.4246     -1321.04    108.95958   -1429.9996   0.14750213 
   85200    321.97332   -199.72319    4117.4038   -1311.0618    121.88715   -1432.9489   0.16798398 
   85300    294.64317    67.159798     4121.796   -1326.4224    111.54096   -1437.9633   0.16527863 
   85400    257.20062   -101.92417    4123.4175   -1329.0932    97.366606   -1426.4598   0.17156533 
   85500    290.51092   -13.902252    4123.5168   -1323.6455    109.97665   -1433.6222   0.14431271 
   85600    292.45845  -0.92136307    4125.9935   -1311.9727    110.71391   -1422.6866   0.15469103 
   85700     294.3003    64.300964    4127.5945   -1322.0205    111.41117   -1433.4317   0.12649714 
   85800    272.18693   -143.62566    4125.4624   -1323.5284    103.03987   -1426.5683   0.16076398 
   85900     299.0144   -55.356994    4130.3094    -1327.824    113.19575   -1441.0197   0.13911498 
   86000    272.50148   -41.833361    4127.0322   -1328.3702    103.15895   -1431.5291   0.15524223 
   86100    288.56157   -79.603351    4126.4573   -1321.6441     109.2387   -1430.8828    0.1459944 
   86200    292.22804    143.46006    4123.4808   -1319.4261    110.62669   -1430.0528   0.13642206 
   86300     305.5695   -114.69727    4124.8099   -1323.5225    115.67727   -1439.1997   0.15430911 
   86400    335.51754    93.497856    4127.9347   -1303.8224    127.01448   -1430.8369   0.17016825 
   86500     300.8749   -200.57823    4130.1107   -1314.6313    113.90007   -1428.5314   0.17342443 
   86600    285.55425   -44.728134    4130.6205   -1319.7598    108.10024   -1427.8601   0.13580501 
   86700    282.48188   -82.116125     4127.287   -1328.3796    106.93715   -1435.3168   0.12534854 
   86800    280.67437    83.687283    4124.8732    -1323.218     106.2529   -1429.4709   0.13534213 
   86900    284.93872    -102.6055     4125.469   -1303.5965    107.86722   -1411.4637   0.19186856 
   87000    341.06469    98.748624    4129.3567   -1313.6897    129.11443   -1442.8041   0.14988477 
   87100    268.04144    40.735294    4128.4418   -1320.7844    101.47054   -1422.2549   0.15388255 
   87200    293.45667    85.942098    4129.6402   -1326.5224     111.0918   -1437.6142   0.12506255 
   87300    257.86617   -445.66633    4124.8172   -1328.8073    97.618561   -1426.4259   0.16105024 
   87400    307.56747    36.594975    4125.0727   -1327.7499    116.43363   -1444.1836   0.14735866 
   87500    256.80133   -200.59097    4128.4982   -1330.0894     97.21545   -1427.3048   0.14842183 
   87600    299.01186    -40.47654     4129.651   -1318.4874    113.19479   -1431.6822   0.13454142 
   87700    309.59958    187.50099    4130.0787   -1327.5797    117.20291   -1444.7827   0.10778777 
   87800    304.28271   -7.9218366     4128.619   -1326.1206    115.19014   -1441.3107   0.11907588 
   87900    295.97242    71.119436    4125.6309   -1331.0728    112.04417    -1443.117   0.12813631 
   88000    303.06373    50.807783     4127.477   -1328.7034    114.72868   -1443.4321   0.12648316 
   88100    255.40667   -68.052115    4120.6413   -1344.1787    96.687483   -1440.8662   0.12567933 
   88200    258.47429   -92.318664    4124.9972   -1336.3688    97.848771   -1434.2175   0.13257157 
   88300    289.60558    149.94949     4126.481   -1336.8436    109.63392   -1446.4775   0.10327937 
   88400    285.44323   -22.393362    4127.0804   -1334.9641    108.05821   -1443.0223   0.13439184 
   88500    268.98305    108.99868     4124.187   -1336.2869      101.827   -1438.1139   0.13292743 
   88600    280.70445    -81.98553    4128.7201   -1328.8869    106.26428   -1435.1512   0.15916286 
   88700    329.97053    53.441337    4132.3427   -1320.5599    124.91459   -1445.4745   0.11721793 
   88800    255.40888    -26.67476    4127.2609   -1334.0118     96.68832   -1430.7001   0.14744064 
   88900    292.08771    165.38904    4126.0354   -1336.2714    110.57356    -1446.845   0.11290979 
   89000     249.8806    33.722043    4123.9002   -1336.1789     94.59552   -1430.7744   0.15011978 
   89100    283.24185   -194.54089    4125.5052   -1347.1497    107.22485   -1454.3745   0.12426446 
   89200    258.22222     185.3199    4122.8746   -1333.4555    97.753346   -1431.2089   0.12553656 
   89300     235.9148   -171.57317    4124.8189    -1330.621    89.308587   -1419.9296   0.13496141 
   89400    306.33567    275.71571    4126.7751   -1324.2093    115.96731   -1440.1766    0.1112644 
   89500    292.14407   -52.946187    4124.9932   -1322.2227     110.5949   -1432.8176   0.14624676 
   89600    281.11902    93.462377     4124.468   -1334.8069    106.42123   -1441.2281   0.11452757 
   89700    287.07079   -72.536576     4131.593    -1318.404    108.67434   -1427.0783   0.15031897 
   89800    270.77943     217.5142    4123.7393   -1344.1938    102.50704   -1446.7008  0.092726696 
   89900    231.33075   -67.728177    4116.0543   -1357.9325    87.573236   -1445.5057   0.12442883 
   90000    251.60109    92.745293    4121.7679   -1344.8697    95.246833   -1440.1166   0.12070438 
   90100    259.74225   -63.169416    4123.2524   -1339.4335    98.328772   -1437.7622   0.14343746 
   90200     283.0859   -162.30057    4125.3165   -1329.2086    107.16581   -1436.3745   0.15023786 
   90300    270.49675    10.511245    4123.7719   -1335.1183    102.40003   -1437.5184   0.12889493 
   90400    292.18218   -174.52073    4124.9459   -1326.3354    110.60932   -1436.9447   0.15067489 
   90500    276.52501   -77.125515    4121.5271   -1337.1148     104.6821   -1441.7969   0.12226959 
   90600    262.47413   -60.615071    4118.6442   -1338.1954    99.362962   -1437.5583   0.15438927 
   90700    310.26102    195.13993     4121.519   -1330.6594     117.4533   -1448.1127   0.12261504 
   90800    284.07842   -4.8070147    4123.0394   -1332.5992    107.54154   -1440.1408   0.13018373 
   90900    317.98179    188.48696     4122.455   -1322.2675     120.3761   -1442.6436    0.1150931 
   91000    289.24169   -80.363376     4120.087   -1322.2005    109.49616   -1431.6966   0.14637465 
   91100    302.57394    51.116272     4124.009   -1316.7172    114.54326   -1431.2604   0.15591037 
   91200     273.4172   -32.750628    4120.1823   -1322.6173     103.5056   -1426.1229   0.15219846 
   91300    296.85106     267.9645    4119.7287   -1319.7073    112.37679   -1432.0841   0.12712894 
   91400    289.59013    110.48603    4116.6551   -1340.9992    109.62807   -1450.6273    0.1084521 
   91500    266.24192   -70.774459    4111.1599   -1346.0985    100.78931   -1446.8878   0.14074787 
   91600    279.20003   -81.279256    4115.7185   -1334.8302    105.69477   -1440.5249   0.15783952 
   91700    291.27092   -176.51525    4116.3379   -1323.6827    110.26436    -1433.947   0.17100322 
   91800    298.22371    143.01935    4126.1036   -1316.4228    112.89643   -1429.3193   0.13745107 
   91900    299.65526    228.16166    4127.4401   -1314.1146    113.43836   -1427.5529   0.12945577 
   92000    285.35464    167.43576    4126.6029   -1324.9629    108.02467   -1432.9876   0.11931153 
   92100    289.03405    -219.2488    4127.2792   -1309.7724    109.41756     -1419.19   0.16764599 
   92200    277.82555    159.36547    4126.4516   -1317.8483    105.17444   -1423.0227   0.14406097 
   92300    255.30378   -48.403611    4125.3471   -1318.8648    96.648534   -1415.5134   0.15257589 
   92400    321.55173    145.01468    4125.9941   -1319.2276    121.72755   -1440.9552   0.10743069 
   92500    290.16909   -62.777508    4124.2788    -1324.133    109.84725   -1433.9802   0.12764375 
   92600    304.96705   -17.111575    4128.0318   -1313.0706     115.4492   -1428.5198   0.14456906 
   92700    235.53114   -115.15653    4127.5707   -1320.7702    89.163345   -1409.9335     0.173647 
   92800    321.36712    88.566064    4129.6691   -1317.0535    121.65766   -1438.7111   0.12596517 
   92900    304.57844    53.976935    4132.8751   -1295.4814    115.30209   -1410.7835    0.1435905 
   93000    297.08711   -111.86365    4133.9146   -1319.6214    112.46615   -1432.0875   0.12766498 
   93100    290.13336   -110.39992    4127.7806   -1316.4571    109.83372   -1426.2908   0.15565199 
   93200    296.59206   -131.99209    4128.8317   -1320.2535    112.27874   -1432.5322   0.14659449 
   93300    317.64095    109.02856    4126.5114   -1328.8769    120.24707   -1449.1239   0.11433356 
   93400    294.18756    92.101935    4129.2759   -1324.3533    111.36849   -1435.7218   0.11619765 
   93500    312.89355    183.38781    4129.5874   -1321.5366    118.44988   -1439.9864   0.10238324 
   93600    242.23303   -358.06654    4126.9611   -1339.1914    91.700433   -1430.8918   0.14187601 
   93700    259.69858   -33.644558    4123.6605   -1351.2609    98.312242   -1449.5731    0.1145432 
   93800    214.70217   -36.492511    4119.7095   -1355.2152    81.278273   -1436.4935   0.12927615 
   93900    262.44879     65.57811    4123.4442    -1345.767    99.353369   -1445.1204   0.11225343 
   94000    256.15359    18.709277    4122.8168   -1339.5078    96.970239    -1436.478   0.11101163 
   94100    282.91032    98.838668    4126.4753   -1327.6564    107.09935   -1434.7558   0.11436155 
   94200    277.16045    29.166357    4125.6865   -1334.8249    104.92266   -1439.7476   0.12164348 
   94300     292.8656   -28.933589    4120.7378   -1338.6691    110.86804   -1449.5372    0.1377203 
   94400    286.95653   -18.575698    4123.2517   -1327.4516    108.63109   -1436.0827   0.14381446 
   94500    262.17506   -219.28565    4124.5216   -1324.5895    99.249746   -1423.8393   0.14171333 
   94600    291.67916   -55.580142    4122.7813   -1329.0543     110.4189   -1439.4732   0.11720631 
   94700    274.53955   -166.14745    4123.4516   -1335.3283    103.93048   -1439.2588   0.13720264 
   94800    299.91284   -158.43753    4124.7522   -1315.0978    113.53587   -1428.6336   0.15972322 
   94900     289.5461    94.689537    4130.6678   -1322.3002    109.61141   -1431.9116   0.14320361 
   95000    324.43563    24.367005    4133.4468   -1318.1379    122.81929   -1440.9572   0.10667355 
   95100      288.683    135.43985    4126.5519   -1334.1982    109.28467   -1443.4829  0.097595669 
   95200    273.88859   -138.57911    4125.7999   -1340.1902    103.68405   -1443.8742   0.10980298 
   95300    263.65433    220.75777     4120.015   -1341.7682    99.809742    -1441.578   0.12165255 
   95400    279.59176    57.815848    4123.3993   -1338.3833    105.84306   -1444.2263   0.11938204 
   95500    262.79318   -208.87698    4125.8594   -1335.2505    99.483743   -1434.7342   0.11837502 
   95600    288.02136   -37.446758    4129.9703   -1322.3906    109.03419   -1431.4248   0.12213296 
   95700    287.34822   -256.42238    4128.6592   -1329.3258    108.77937   -1438.1052   0.12004472 
   95800    297.87432    129.20409    4124.3589   -1327.1162    112.76416   -1439.8804   0.13226334 
   95900    298.97013    -15.27129    4124.9362   -1328.4633    113.17899   -1441.6423   0.12329608 
   96000    321.15022    1.5577504    4133.4193   -1311.9142    121.57555   -1433.4898   0.12819465 
   96100    270.37859   -188.17646    4132.3435   -1318.1699     102.3553   -1420.5251    0.1386798 
   96200    299.27543   -83.308932    4126.8903   -1324.5097    113.29457   -1437.8043   0.12801241 
   96300    266.51964   -11.389977     4126.185     -1330.32    100.89444   -1431.2145   0.13369103 
   96400    293.11801    29.311978    4128.3979   -1323.3851     110.9636   -1434.3487   0.14243623 
   96500    288.39466   -48.928458    4133.6821   -1313.9619    109.17551   -1423.1374   0.14359763 
   96600    282.17117   -216.28023    4128.5706   -1322.2868    106.81953   -1429.1063    0.1412673 
   96700    313.60133    15.071212    4132.3228   -1323.0438    118.71782   -1441.7616   0.10310453 
   96800    291.69733    39.838915    4130.2655   -1320.4392    110.42578    -1430.865   0.12459761 
   96900    285.74888   -21.847285    4128.4313   -1331.5505    108.17392   -1439.7244   0.12913649 
   97000    270.70757     94.53584    4122.9166   -1344.2513    102.47984   -1446.7311   0.12165671 
   97100     287.5518   -22.340158    4132.0459    -1327.399    108.85644   -1436.2554   0.12106966 
   97200    297.72671    13.681356     4128.328   -1334.3845    112.70828   -1447.0927  0.092415137 
   97300    299.58802    57.833735    4132.4459   -1316.3124     113.4129   -1429.7253   0.11990639 
   97400    297.75601    13.358189    4130.3631   -1321.0334    112.71937   -1433.7527   0.13383207 
   97500    284.46452    30.997997    4131.5307   -1319.1471    107.68771   -1426.8348   0.15645827 
   97600       312.91    32.996292    4131.4552   -1315.6289    118.45611    -1434.085   0.12962288 
   97700    287.70087    12.283848    4135.8004    -1315.711    108.91287   -1424.6238   0.12329467 
   97800    284.67153   -101.64835    4133.2397   -1322.7887    107.76607   -1430.5548   0.12867786 
   97900    285.64472   -64.603228     4134.082   -1314.7089    108.13449   -1422.8434   0.16441971 
   98000     295.0579   -166.53629    4134.8847    -1308.859    111.69797    -1420.557    0.1665985 
   98100    309.69073    73.197997    4139.3137   -1316.2636    117.23741    -1433.501    0.1150077 
   98200    275.08678    118.55979     4135.652   -1328.5784    104.13764   -1432.7161   0.10446858 
   98300     276.7759   -58.390868    4132.8035   -1329.1088    104.77708   -1433.8859   0.11430402 
   98400    257.81736    10.420926    4128.7877   -1335.3497    97.600082   -1432.9498   0.12602013 
   98500    283.29711   -238.11643    4128.5708   -1335.0212    107.24577    -1442.267   0.11923523 
   98600    274.89198    157.87833    4128.8165   -1335.6426     104.0639   -1439.7065   0.10660214 
   98700    304.37141    88.200907    4134.5005   -1323.2873    115.22372    -1438.511     0.110533 
   98800    292.41367    122.98015    4133.8458   -1328.9319    110.69696   -1439.6289   0.10091761 
   98900    312.13107    113.87802    4132.3964   -1325.9073    118.16124   -1444.0685   0.11212777 
   99000    286.47801    -19.35595    4133.5951   -1328.5553    108.44994   -1437.0052   0.11431571 
   99100    310.59774    28.825187     4134.416    -1311.474    117.58077   -1429.0548   0.13936503 
   99200    291.95068   -84.419441    4137.9153   -1320.3161    110.52169   -1430.8378   0.12828882 
   99300    294.71482   -63.218105    4128.8563   -1336.5818    111.56809   -1448.1499   0.11863922 
   99400     273.0016    41.538099    4128.4152   -1329.5338    103.34827   -1432.8821   0.12569822 
   99500    297.90465    95.025517    4126.7933   -1335.8115    112.77564   -1448.5871   0.11350784 
   99600    262.26199    28.835593    4127.8515   -1337.5372    99.282652   -1436.8198   0.11565377 
   99700    290.92547    117.13702    4129.2199    -1326.068    110.13358   -1436.2016   0.11642528 
   99800    288.59945    168.17824     4130.063   -1325.3546    109.25304   -1434.6076    0.1135132 
   99900    291.96943    49.286832    4130.2509   -1325.5271    110.52879   -1436.0558    0.1136326 
  100000    293.40437   -70.400051    4131.1972   -1325.9644      111.072   -1437.0364   0.10887317 
Loop time of 3.84824 on 4 procs for 100000 steps with 128 atoms

Performance: 11225.906 ns/day, 0.002 hours/ns, 25985.893 timesteps/s
99.4% CPU use with 4 MPI tasks x no OpenMP threads

MPI task timing breakdown:
Section |  min time  |  avg time  |  max time  |%varavg| %total
---------------------------------------------------------------
Pair    | 1.9483     | 1.9813     | 2.0193     |   2.2 | 51.49
Neigh   | 0.17045    | 0.17061    | 0.17073    |   0.0 |  4.43
Comm    | 0.8456     | 0.90319    | 0.95549    |   4.5 | 23.47
Output  | 0.025687   | 0.027138   | 0.03128    |   1.5 |  0.71
Modify  | 0.57061    | 0.58861    | 0.60724    |   1.7 | 15.30
Other   |            | 0.1774     |            |       |  4.61

Nlocal:        32.0000 ave          34 max          31 min
Histogram: 2 0 0 1 0 0 0 0 0 1
Nghost:        283.000 ave         284 max         281 min
Histogram: 1 0 0 0 0 0 1 0 0 2
Neighs:        0.00000 ave           0 max           0 min
Histogram: 4 0 0 0 0 0 0 0 0 0
FullNghs:      907.000 ave         960 max         878 min
Histogram: 2 0 0 1 0 0 0 0 0 1

Total # of neighbors = 3628
Ave neighs/atom = 28.343750
Neighbor list builds = 3439
Dangerous builds = 0

undump              1
unfix               2
unfix               3
unfix               4




################################################
#######         Run Simulation         #########
################################################

reset_timestep      0
log                 log.run_${NAME}
log                 log.run_longice_284K_1atm_ML
