
# Create simulation box of size ~100 x 25 x 25 Angstrom
#
#variable	    lattice_constant equal 6.36339
#lattice		    diamond ${lattice_constant}
region all block 0 ${LEN} 0 ${WIDTH} 0 ${WIDTH} units box
region all block 0 100 0 ${WIDTH} 0 ${WIDTH} units box
region all block 0 100 0 25.5269852578308 0 ${WIDTH} units box
region all block 0 100 0 25.5269852578308 0 25.5269852578308 units box
create_box 1 all
Created orthogonal box = (0.0000000 0.0000000 0.0000000) to (100.00000 25.526985 25.526985)
  4 by 1 by 1 MPI processor grid

# fill box with randomly distributed atoms
#
create_atoms 1 random 2081 63782 all
Created 2081 atoms
  create_atoms CPU = 0.000 seconds
mass 1 18.015
group water region all
2081 atoms in group water

# Define potential
#
pair_style sw
pair_coeff * * ML.sw mW
Reading sw potential file ML.sw with DATE: 2019-02-27

# Run minimization
#
minimize 1.0e-8 1.0e-8 10000 1000
WARNING: Using 'neigh_modify every 1 delay 0 check yes' setting during minimization (../min.cpp:187)
Neighbor list info ...
  update every 1 steps, delay 0 steps, check yes
  max neighbors/atom: 2000, page size: 100000
  master list distance cutoff = 6.0032907
  ghost atom cutoff = 6.0032907
  binsize = 3.0016454, bins = 34 9 9
  1 neighbor lists, perpetual/occasional/extra = 1 0 0
  (1) pair sw, perpetual
      attributes: full, newton on
      pair build: full/bin/atomonly
      stencil: full/bin/3d
      bin: standard
Per MPI rank memory allocation (min/avg/max) = 4.222 | 4.226 | 4.231 Mbytes
Step Temp E_pair E_mol TotEng Press 
       0            0    2593458.8            0    2593458.8    3806731.6 
     637            0   -22387.226            0   -22387.226    -847.1079 
Loop time of 1.00238 on 4 procs for 637 steps with 2081 atoms

99.8% CPU use with 4 MPI tasks x no OpenMP threads

Minimization stats:
  Stopping criterion = max force evaluations
  Energy initial, next-to-last, final = 
      2593458.82723315  -22386.9177412398  -22387.2262684079
  Force two-norm initial, final = 49150409.0 4.3496623
  Force max component initial, final = 32380499.0 0.79901988
  Final line search alpha, max atom move = 0.054572375 0.043604412
  Iterations, force evaluations = 637 1000

MPI task timing breakdown:
Section |  min time  |  avg time  |  max time  |%varavg| %total
---------------------------------------------------------------
Pair    | 0.73622    | 0.81812    | 0.94839    |   9.2 | 81.62
Neigh   | 0.021832   | 0.022542   | 0.023571   |   0.4 |  2.25
Comm    | 0.012324   | 0.11399    | 0.20606    |  20.4 | 11.37
Output  | 0          | 0          | 0          |   0.0 |  0.00
Modify  | 0          | 0          | 0          |   0.0 |  0.00
Other   |            | 0.04772    |            |       |  4.76

Nlocal:        520.250 ave         546 max         505 min
Histogram: 2 0 0 0 1 0 0 0 0 1
Nghost:        1144.75 ave        1176 max        1104 min
Histogram: 1 0 0 0 0 0 2 0 0 1
Neighs:        0.00000 ave           0 max           0 min
Histogram: 4 0 0 0 0 0 0 0 0 0
FullNghs:      14378.5 ave       15771 max       13514 min
Histogram: 2 0 0 0 1 0 0 0 0 1

Total # of neighbors = 57514
Ave neighs/atom = 27.637674
Neighbor list builds = 24
Dangerous builds = 0

# Add velocity/set timestep
#
velocity all create ${TEMP} 120598 rot yes dist gaussian
velocity all create 287 120598 rot yes dist gaussian
timestep 10.0

# Define output
#
compute 1 all msd
thermo 50
thermo_style custom step temp press vol etotal ke pe c_1[4]

# Neighbor lists
#
neigh_modify delay 0 every 1 check yes

# Set fixes
#
fix 1 all momentum 10 linear 1 1 1 rescale
fix 2 all nve
fix 3 all temp/csvr ${TEMP} ${TEMP} 500.0 928347
fix 3 all temp/csvr 287 ${TEMP} 500.0 928347
fix 3 all temp/csvr 287 287 500.0 928347
fix 4 all press/berendsen iso ${PRES} ${PRES} 1000.0 modulus 20000
fix 4 all press/berendsen iso 1 ${PRES} 1000.0 modulus 20000
fix 4 all press/berendsen iso 1 1 1000.0 modulus 20000

# Run 1 ns equilibration
#
dump 1 all atom 1000 eq.water.${NAME}.dump
dump 1 all atom 1000 eq.water.longseed_284K_1atm_ML.dump
run 100000
Per MPI rank memory allocation (min/avg/max) = 3.472 | 3.476 | 3.481 Mbytes
Step Temp Press Volume TotEng KinEng PotEng c_1[4] 
     637          287    401.17589    65162.698   -20607.802    1779.4244   -22387.226 2.1390817e-33 
     650     145.4106   -516.57597    65297.316   -20353.529    901.55805   -21255.087   0.15406391 
     700    205.13472    -56.00269    65117.232    -19688.89    1271.8527   -20960.743    0.6664473 
     750    233.91747   -443.94944     64969.12    -19266.93    1450.3082   -20717.238    1.3936854 
     800    245.01609    118.64585    64657.525    -19104.58    1519.1206   -20623.701    2.0134916 
     850    268.45519   -359.28782    64395.138   -18945.686     1664.445   -20610.131    2.7514775 
     900    271.08551    4.0569266    64004.958   -18860.745    1680.7532   -20541.498    3.4874149 
     950    276.23009   -304.88729    63762.804   -18745.894      1712.65   -20458.544    4.3348365 
    1000     274.7814   -97.355925    63542.651   -18708.363     1703.668   -20412.031     5.371352 
    1050    286.00137   -71.001423    63405.062   -18662.361    1773.2327   -20435.593    6.6803049 
    1100    288.02368   -11.591831    63336.978   -18643.598    1785.7713   -20429.369    7.8880305 
    1150    286.14578   -52.352556     63074.33   -18710.687    1774.1281   -20484.816    8.9578876 
    1200    278.23777    247.80277    62863.865   -18794.835    1725.0978   -20519.932    9.9456969 
    1250    277.21297    267.60979    62800.561   -18786.598     1718.744   -20505.342    10.866358 
    1300    282.50938   -531.89605    62757.659   -18768.926    1751.5822   -20520.508    11.855391 
    1350    277.99094    177.49488    62517.966   -18735.615    1723.5674   -20459.182    12.773572 
    1400    279.48296   -83.890635    62469.166    -18757.25    1732.8181   -20490.068    13.644211 
    1450    284.76456   -285.39508    62365.344   -18802.839    1765.5645   -20568.404    14.455768 
    1500     284.5311   -1.2339291      62530.3   -18718.564     1764.117   -20482.681    15.600674 
    1550    281.52955    153.81033    62736.685       -18663    1745.5071   -20408.507    16.572068 
    1600    290.26381    67.408762    62548.011     -18630.6    1799.6602    -20430.26    17.621495 
    1650    281.33873   -43.623454    62475.164   -18661.392     1744.324   -20405.716    18.983131 
    1700     290.9097   -86.342684    62508.195   -18654.496    1803.6648   -20458.161    20.280499 
    1750    278.43631   -68.119433    62416.281   -18646.541    1726.3288    -20372.87    21.745533 
    1800    278.77153     133.6536    62372.161   -18713.965    1728.4071   -20442.373    23.409966 
    1850    280.82441   -180.36246    62386.289   -18686.134    1741.1352   -20427.269     24.88726 
    1900    284.17955   -76.899864    62432.075   -18685.853    1761.9374   -20447.791    26.186212 
    1950    286.12718    354.98723    62776.982   -18640.649    1774.0128   -20414.661    27.840505 
    2000    282.39118   -73.685762    62779.579   -18643.565    1750.8493   -20394.415    29.522102 
    2050    294.26307   -395.23985    62771.741   -18513.522     1824.456   -20337.978    31.206089 
    2100      294.563    236.97407    62384.143   -18539.984    1826.3156     -20366.3    32.550692 
    2150     286.5869   -382.62621    62378.179   -18550.253    1776.8631   -20327.116    34.113411 
    2200    290.98829    483.80255    62501.642   -18566.975    1804.1521   -20371.128    35.952758 
    2250    289.74556    20.680484    62617.586   -18550.443    1796.4471    -20346.89    37.763947 
    2300    292.19397    160.07095    62764.962    -18534.19    1811.6274   -20345.817    39.676197 
    2350    292.92911   -296.47227    62710.615   -18554.862    1816.1854   -20371.048    41.317823 
    2400    283.98876   -251.93284    62565.752   -18564.054    1760.7544   -20324.809    43.164618 
    2450    292.66211   -402.21883    62581.612   -18557.689    1814.5299   -20372.219     44.76987 
    2500    288.61569   -418.75373    62615.856   -18525.859    1789.4418   -20315.301    46.867753 
    2550    297.14021    86.788263    62748.477   -18459.993    1842.2945   -20302.288    48.876613 
    2600    297.77593     346.9291     62527.95   -18474.657     1846.236   -20320.893    50.459497 
    2650    298.07457   -248.27034    62592.235   -18453.834    1848.0877   -20301.921     52.28439 
    2700    297.27623   -35.763048    62477.544   -18504.617    1843.1379   -20347.755    53.498488 
    2750    286.76636   -178.10126    62520.406   -18490.176    1777.9758   -20268.152    55.115673 
    2800    288.50293   -239.75545    62450.342   -18463.536    1788.7427   -20252.279    56.286134 
    2850    281.76647    310.45268    62662.411   -18498.719     1746.976   -20245.695    57.957531 
    2900    288.89963   -268.87572    62490.516   -18546.136    1791.2023   -20337.338    59.526443 
    2950    287.36345   -221.77439    62378.596   -18571.755    1781.6778   -20353.433    61.077095 
    3000    286.40267    76.974747    62376.365   -18583.785    1775.7208   -20359.506    63.312582 
    3050     288.7365    443.75287    62294.547    -18545.84    1790.1908   -20336.031    65.189489 
    3100    286.02083    185.07989    62501.586   -18513.573    1773.3535   -20286.927    67.032149 
    3150    283.77143   -224.02011    62494.631   -18541.289    1759.4069   -20300.696    68.927965 
    3200    288.25877    -83.49719    62274.508   -18581.179    1787.2289   -20368.408    70.289842 
    3250     281.1891    84.025775    62071.374   -18593.125    1743.3963   -20336.522    71.946078 
    3300    295.96305    161.04688    62392.853   -18576.455     1834.996   -20411.451    73.777641 
    3350    285.73789    292.63641     62303.55   -18556.324    1771.5992   -20327.923    76.058181 
    3400    283.25613    151.46916    62403.235   -18602.313    1756.2121   -20358.525    77.831071 
    3450    286.72213   -81.133158    62382.012   -18570.965    1777.7016   -20348.667    79.301166 
    3500    278.57062   -326.77722    62230.373   -18663.203    1727.1615   -20390.364    81.304461 
    3550    284.34224   -199.71558    62167.724   -18649.251     1762.946   -20412.197    82.723026 
    3600    283.88372    50.528231    62184.251   -18664.181    1760.1031   -20424.284    84.429546 
    3650    279.00902   -185.60192    62200.044    -18685.46    1729.8796    -20415.34    85.953447 
    3700    276.42722    166.25912    62267.925   -18690.328    1713.8722     -20404.2    87.727503 
    3750    285.37516    175.54048    62161.405   -18656.321    1769.3502   -20425.671    89.165908 
    3800    278.24815     253.1396    62389.913   -18629.177    1725.1622   -20354.339    91.286792 
    3850    282.21704    140.09032    62326.114   -18659.028    1749.7696   -20408.798     93.54557 
    3900    275.60659    1.8489759    62409.736   -18630.677    1708.7842   -20339.462    95.520762 
    3950    289.03115   -203.56736     62469.01    -18544.18    1792.0177   -20336.198      97.8206 
    4000    293.06438   -66.802567    62296.319   -18631.841     1817.024   -20448.865    100.01399 
    4050    285.47188    385.24479    62176.238   -18597.873    1769.9499   -20367.823    101.78149 
    4100    281.93945    18.519757    62379.675   -18627.966    1748.0485   -20376.014     103.7998 
    4150    292.93124    13.857174    62291.917   -18603.003    1816.1986   -20419.202    105.03661 
    4200    283.70234    262.14294    62272.563   -18642.602    1758.9786   -20401.581    106.19751 
    4250    279.83034   -18.496227    62432.985   -18627.896    1734.9719   -20362.868    107.86254 
    4300    284.43598   -111.95026    62169.472   -18625.504    1763.5272   -20389.031    108.85687 
    4350    279.80332   -86.146015    62378.719   -18612.167    1734.8043   -20346.971    110.23281 
    4400    284.99824     38.43482    62345.607   -18601.652    1767.0133   -20368.665    111.01095 
    4450     281.1627    63.174871    62327.817   -18588.464    1743.2326   -20331.697    112.26577 
    4500    286.61038    68.233911    62245.029   -18585.555    1777.0087   -20362.563     113.5993 
    4550    282.46477   -309.01082    62145.177   -18608.059    1751.3056   -20359.365    114.53176 
    4600    285.45181   -112.43929    62161.623   -18638.778    1769.8255   -20408.604    115.72845 
    4650    277.72169    39.365322    62148.839   -18626.183    1721.8981   -20348.081    117.32335 
    4700    291.60408    -138.0759    62349.814   -18518.536    1807.9701   -20326.506    118.55054 
    4750    286.95699    206.00511    62434.099   -18569.122    1779.1577    -20348.28    120.32539 
    4800    277.69554    359.38379    62523.642   -18598.898    1721.7359   -20320.634    120.83442 
    4850    300.53446    102.09175    62490.838   -18465.627    1863.3391   -20328.967    120.44847 
    4900    291.81658    58.475926    62310.887   -18476.093    1809.2876    -20285.38    120.67051 
    4950    296.24349    202.70111    62346.086   -18423.262    1836.7348   -20259.997    121.80592 
    5000    293.80359   -49.101983    62462.876   -18479.181    1821.6072   -20300.788    122.82158 
    5050    291.15537   -50.987127    62528.682   -18462.421     1805.188   -20267.609    124.07716 
    5100    282.87381   -280.63701    62344.432   -18554.252    1753.8416   -20308.093    124.70771 
    5150    281.54016   -75.369419    62058.472   -18538.374    1745.5729   -20283.947    124.59641 
    5200    285.22992   -351.98381    62268.947   -18610.491    1768.4497    -20378.94     125.4687 
    5250    281.22264   -152.08888    62296.398   -18572.911    1743.6042   -20316.516    126.74523 
    5300    286.07219   -81.531349    62438.471   -18532.745    1773.6718   -20306.417     128.1751 
    5350    282.09312   -255.42092     62427.31   -18595.682    1749.0013   -20344.683    129.58577 
    5400    292.94494   -81.051142    62349.985   -18596.589    1816.2835   -20412.873    130.98065 
    5450    290.03775    122.34778     62466.43   -18557.424    1798.2586   -20355.682    131.60719 
    5500    286.82453    394.12484    62483.853   -18599.486    1778.3365   -20377.822    131.90936 
    5550    279.54849    315.69688    62629.183   -18631.922    1733.2244   -20365.147    132.69047 
    5600    277.88441    207.65418    62461.906    -18635.77    1722.9069   -20358.677    133.76122 
    5650    281.31603    150.63632    62349.597   -18650.844    1744.1833   -20395.027      134.446 
    5700    288.36518    51.282625    62413.038   -18609.938    1787.8886   -20397.826    135.46757 
    5750    290.06137    76.384014    62399.247   -18628.699    1798.4051   -20427.104    136.07996 
    5800    281.03127   -502.17551    62268.881   -18626.131    1742.4177   -20368.549    136.42713 
    5850    280.45092     123.7121    62246.352   -18643.923    1738.8195   -20382.742    136.78096 
    5900    279.51721   -245.52614    62285.555   -18675.306    1733.0304   -20408.336    137.43443 
    5950    277.28035   -42.405022    62476.736   -18723.983    1719.1617   -20443.145    138.36917 
    6000    278.16752   -161.44578     62280.47   -18686.232    1724.6623   -20410.894    139.13252 
    6050    284.24105    9.1241156    62150.712   -18622.995    1762.3186   -20385.314    139.83131 
    6100    285.43648    154.10217    62189.411   -18594.556    1769.7304   -20364.286    140.80983 
    6150    280.60795    140.84788    62066.901   -18684.505    1739.7931   -20424.298    141.97718 
    6200     280.9817    103.22445    62323.542   -18635.775    1742.1104   -20377.886     143.2843 
    6250    281.75233    196.59107    62364.147   -18666.757    1746.8884   -20413.645    144.16695 
    6300     290.6198    175.97386    62681.056   -18583.235    1801.8674   -20385.103    145.65508 
    6350    286.38629    74.209333    62471.327   -18619.384    1775.6193   -20395.004    146.43815 
    6400    287.56438    267.86936    62439.284   -18574.369    1782.9235   -20357.293    147.64062 
    6450    289.29544    407.17517    62265.991   -18509.731    1793.6563   -20303.387    148.05436 
    6500    292.73244   -246.93371    62147.027   -18546.628     1814.966   -20361.594    149.07342 
    6550    285.86674    87.936452    62130.886   -18605.798    1772.3981   -20378.196    150.35728 
    6600    283.75205    -149.8594     62181.05   -18632.043    1759.2868    -20391.33     152.0687 
    6650    284.48826   -119.37362    61915.787   -18670.824    1763.8514   -20434.675    152.76648 
    6700    283.74161    60.663936    61774.901   -18674.789    1759.2221   -20434.011    153.97421 
    6750     285.5475    117.11166    62081.579   -18627.204    1770.4187   -20397.622    155.86139 
    6800    284.47608   -45.021725    62197.632   -18566.526    1763.7759   -20330.302    157.11271 
    6850    283.14059   -74.870141    62335.518   -18574.675    1755.4957    -20330.17    158.47561 
    6900    291.78684    -195.0504     62304.63   -18512.122    1809.1032   -20321.225    159.29599 
    6950    295.83729   -95.371433    62141.785   -18525.929    1834.2163   -20360.145    160.80086 
    7000    291.16787    74.235246    62179.666   -18511.733    1805.2655   -20316.999    162.39289 
    7050    278.37322    216.97826    62227.729   -18555.021    1725.9376   -20280.958    164.62973 
    7100    297.67761   -119.26726    62299.295   -18557.964    1845.6265   -20403.591    165.91036 
    7150    289.68343   -13.573715    62504.442   -18584.214    1796.0619   -20380.276    167.89141 
    7200    286.06083    262.02652    62550.961   -18595.904    1773.6015   -20369.505    169.50523 
    7250    284.55673   -153.20086    62481.164   -18679.807    1764.2759   -20444.082    171.23937 
    7300     279.6944   -111.00304    62164.837   -18675.978     1734.129   -20410.107    171.31075 
    7350    279.42217    -119.8731    62099.918   -18669.306    1732.4412   -20401.747    172.55433 
    7400    273.68439    131.64908    62255.204   -18679.529    1696.8664   -20376.395    173.50145 
    7450    286.70039    155.14073    62489.893   -18615.425    1777.5668   -20392.991    174.87514 
    7500    283.67114   -62.603414    62349.611   -18625.542    1758.7852   -20384.327    175.47225 
    7550    278.21708   -186.51747    62473.824   -18725.348    1724.9695   -20450.318    176.29756 
    7600    280.93668   -24.973453    62478.105   -18720.782    1741.8313   -20462.613    177.59674 
    7650    279.81356     294.9698    62390.539   -18698.746    1734.8678   -20433.614    178.40207 
    7700    287.52336    340.20182    62597.319   -18608.546    1782.6693   -20391.215    179.79183 
    7750    293.98259      102.163    62595.963   -18566.001     1822.717   -20388.718    181.06823 
    7800    286.80274    388.45508    62644.097   -18645.177    1778.2013   -20423.378    182.06869 
    7850     274.5857   -127.24411    62715.402   -18612.806    1702.4547   -20315.261    184.18461 
    7900    278.24769    -3.887222    62628.125   -18650.341    1725.1593     -20375.5    184.79948 
    7950    276.83758    89.524196    62382.686    -18670.47    1716.4165   -20386.887    185.35656 
    8000    284.95918    286.55206    62663.294   -18622.923    1766.7711   -20389.694    186.85861 
    8050    278.36739    72.112054    62705.661   -18661.245    1725.9014   -20387.147    187.71589 
    8100    277.08075   -421.39185    62587.153   -18691.793    1717.9242   -20409.717    188.55518 
    8150    282.59236   -189.67827    62522.428   -18695.556    1752.0966   -20447.653    188.98073 
    8200    285.55849    147.95355    62649.164   -18711.006    1770.4869   -20481.493    190.84541 
    8250    272.15837   -178.81545    62650.829   -18723.113     1687.405   -20410.518    192.16182 
    8300    273.13107   -196.63031    62522.414   -18696.412    1693.4358   -20389.847    192.51838 
    8350    293.53682   -289.26861    62620.203   -18647.612    1819.9532   -20467.565    194.24349 
    8400    280.64064   -84.803941    62455.359   -18639.182    1739.9958   -20379.178     195.4332 
    8450    292.75573   -314.85726    62469.774   -18598.409    1815.1104    -20413.52    197.48784 
    8500    291.41691   -174.59917    62492.152   -18579.716    1806.8096   -20386.525    198.86861 
    8550    290.42299    195.06995    62398.254   -18580.287    1800.6472   -20380.935    199.84578 
    8600    283.38166   -403.89282    62516.279   -18610.687    1756.9903   -20367.677    200.65685 
    8650    289.15047   -53.742188    62174.253   -18597.281    1792.7575   -20390.039    201.03982 
    8700    288.44496    14.961936     62205.09   -18565.026    1788.3832   -20353.409    201.96032 
    8750    286.95155   -45.636676    62242.197   -18631.039     1779.124   -20410.163    202.64907 
    8800    288.95372   -238.11352     62167.04   -18608.103    1791.5376   -20399.641    203.10404 
    8850     289.3231    73.734465     62309.32    -18648.66    1793.8278   -20442.487    203.41517 
    8900     282.6974   -134.30644    62078.007   -18680.084    1752.7479   -20432.832    203.00561 
    8950    280.11926   -374.35398    62174.896   -18642.503    1736.7632   -20379.266      204.817 
    9000     276.8304     195.1011    62174.241   -18611.526     1716.372   -20327.898    205.05161 
    9050    283.69052    110.93738    62079.555   -18686.193    1758.9053   -20445.098    205.54694 
    9100    284.19894   -130.16396    62278.321    -18678.72    1762.0575   -20440.777    206.01022 
    9150    290.33458    128.81066    62346.534   -18599.555     1800.099   -20399.654    207.29275 
    9200    284.65931   -353.95245    62464.184   -18594.912    1764.9119   -20359.824    208.57191 
    9250    290.68108   -207.96727     62399.48   -18567.396    1802.2474   -20369.643     210.5337 
    9300    290.13896   -141.55994    62310.566   -18648.192    1798.8862   -20447.078    212.17347 
    9350     287.0731   -155.67799     62551.99    -18682.15    1779.8776   -20462.028    214.40795 
    9400    299.18657   -100.68167    62393.775   -18615.789    1854.9821   -20470.771    215.15968 
    9450    288.83145   -259.89249    62373.225   -18617.575    1790.7795   -20408.355    216.78846 
    9500    286.47465    -499.5608      62267.7   -18649.383    1776.1672    -20425.55    217.47135 
    9550    278.23747    55.756228    62167.281   -18660.446    1725.0959   -20385.542    218.35634 
    9600    285.73451   -39.040178    62217.079   -18577.322    1771.5782     -20348.9    219.67134 
    9650    296.86206   -238.04551     62099.71   -18575.676      1840.57   -20416.246    221.17875 
    9700    290.85266   -179.66646    62311.787   -18538.636    1803.3112   -20341.947     223.6201 
    9750    283.50964    77.950982    62092.355   -18565.276    1757.7838    -20323.06    224.41064 
    9800    277.60577    241.47575    62165.152   -18625.432    1721.1794   -20346.611    226.46865 
    9850    281.36182    117.04667    62185.706   -18630.995    1744.4672   -20375.463    228.32634 
    9900    284.68296   -102.97896    62243.141   -18668.929    1765.0585   -20433.988      229.814 
    9950    290.29496   -296.13706    62252.408   -18619.491    1799.8534   -20419.344    231.35067 
   10000    270.96283   -6.9866476    62165.886   -18652.559    1679.9925   -20332.551     232.7246 
   10050    289.00839    248.89489    62180.432   -18622.251    1791.8765   -20414.128    233.98689 
   10100    291.42139   -261.30376    62097.898   -18620.567    1806.8373   -20427.405    236.39361 
   10150    288.17463    21.652012    62328.347   -18613.725    1786.7072   -20400.433    238.72526 
   10200    283.44084   -269.61068    62512.449   -18674.554    1757.3573   -20431.911      240.925 
   10250    268.85969   -210.17797    62543.726    -18765.04    1666.9529   -20431.993    242.08351 
   10300    282.75938   -159.86017    62578.441   -18664.733    1753.1322   -20417.865    243.63737 
   10350    286.54072    -404.8072    62250.519   -18604.005    1776.5768   -20380.581    243.81855 
   10400    290.74909    177.04417    62285.813   -18600.013     1802.669   -20402.682    246.63422 
   10450    291.88126   -502.46565    62288.783   -18620.536    1809.6886   -20430.225     248.8345 
   10500    285.14402     384.5622    62150.364   -18563.716    1767.9171   -20331.633    250.40021 
   10550    290.82429    96.399497    62221.798   -18549.512    1803.1353   -20352.647    252.48918 
   10600    295.48969    140.49822    62385.931   -18514.799    1832.0612    -20346.86    253.56166 
   10650    285.85581    21.158932    62331.439   -18510.639    1772.3303   -20282.969     255.4524 
   10700    294.67079     150.8494    62394.982   -18510.031    1826.9839   -20337.015    256.38445 
   10750    286.49299    12.900117    62582.084   -18527.444    1776.2809   -20303.725    258.49868 
   10800    294.69371    318.52674    62566.677   -18503.506     1827.126   -20330.632    259.12922 
   10850    289.57088   -116.87845    62650.166   -18573.031     1795.364   -20368.395    260.03456 
   10900    289.83485   -334.13739    62698.114   -18545.621    1797.0007   -20342.621     261.2338 
   10950    288.37044   -88.358919    62547.091   -18523.708    1787.9212   -20311.629    261.94225 
   11000    290.06897    225.24737     62352.68   -18545.902    1798.4522   -20344.354    262.18889 
   11050    297.22802   -105.56508    62230.646   -18585.639     1842.839   -20428.478    263.41633 
   11100    289.17295    109.74671    62234.931   -18601.003    1792.8968     -20393.9    264.31305 
   11150    290.56483    114.69504    62091.287   -18628.008    1801.5266   -20429.535    264.51101 
   11200    287.31829    38.297165    62307.865   -18611.458    1781.3978   -20392.856    266.30649 
   11250    283.06478    177.35393    62395.631   -18596.922    1755.0257   -20351.948    266.97107 
   11300    279.47313    26.922529    62225.749   -18606.544    1732.7571   -20339.301    267.58288 
   11350    288.51479   -218.46918    62204.486    -18527.63    1788.8162   -20316.447    268.93993 
   11400    290.05849   -119.18406    62247.807   -18586.563    1798.3872    -20384.95    270.05642 
   11450    286.84342   -29.357124    62159.912   -18613.212    1778.4535   -20391.666    272.08755 
   11500    283.21035    148.46892    62362.055   -18614.782    1755.9282    -20370.71    273.66571 
   11550    282.99416   -131.30657    62405.471   -18628.866    1754.5878   -20383.454    274.53419 
   11600    281.65555    91.867888    62074.698   -18623.994    1746.2883   -20370.282    275.40283 
   11650    288.00242    270.87948    62181.296   -18571.917    1785.6394   -20357.556    276.62403 
   11700    292.89421    -42.26437    62211.186   -18501.298     1815.969   -20317.267    278.12154 
   11750    294.82229   -220.60675    62302.891    -18512.21    1827.9232   -20340.134    279.49619 
   11800    284.26776   -2.8113242    62331.399   -18604.643    1762.4843   -20367.127     280.7205 
   11850     286.2027    105.94589    62286.607   -18587.973    1774.4811   -20362.454    281.21891 
   11900    281.41443   -128.49543    62174.651   -18628.056    1744.7933   -20372.849    282.06646 
   11950    279.93955   -194.51222    61956.676   -18675.211     1735.649    -20410.86    282.73175 
   12000    279.27801    389.51182    62297.106   -18590.492    1731.5474    -20322.04    284.34135 
   12050    287.47249   -21.211949    62319.033   -18584.111    1782.3538   -20366.465    286.00426 
   12100    290.06486   -220.40629    62240.468   -18544.116    1798.4268   -20342.543    287.21015 
   12150    296.29269   -71.862535    62200.968   -18477.736    1837.0399   -20314.776    288.62688 
   12200    293.86554   -390.63007    61992.767   -18546.303    1821.9913   -20368.294    289.98618 
   12250    288.08643    67.960414    61988.925   -18582.038    1786.1603   -20368.198    291.36071 
   12300    285.82574    81.529284    61885.991   -18578.396    1772.1438    -20350.54    292.79667 
   12350    290.33487     339.9868     61774.77   -18565.891    1800.1009   -20365.991    294.02428 
   12400    289.07121    395.07999    61992.151   -18564.153     1792.266   -20356.419    296.06326 
   12450    278.03554   -115.26683    62093.907   -18606.214     1723.844   -20330.058    297.87568 
   12500    275.18807   -217.94099    61964.662   -18653.059    1706.1894   -20359.248    298.83046 
   12550    282.72846     190.7661    62152.174   -18614.253    1752.9404   -20367.194    300.02079 
   12600    293.26095   -219.44226    62106.961   -18559.648    1818.2428   -20377.891    301.54401 
   12650    291.70102   -77.750908    62201.451   -18526.702    1808.5711   -20335.273    303.61528 
   12700    288.59884    33.188034    62138.874   -18535.897    1789.3373   -20325.234    305.69996 
   12750    295.39192   -395.85478    62284.323   -18511.861     1831.455   -20343.316     308.1285 
   12800      289.125     509.3157    62119.778   -18517.606    1792.5995   -20310.206    309.51794 
   12850    286.93249   -79.758227    62201.539   -18580.442    1779.0058   -20359.448    310.55884 
   12900    282.85468     47.79888    62109.112   -18594.299     1753.723   -20348.022    312.48245 
   12950    283.27605    222.59131    62120.043   -18645.403    1756.3355   -20401.738    313.34461 
   13000      292.973   -21.549326    62292.642   -18516.503    1816.4575   -20332.961    315.47632 
   13050    296.64161    95.546029    62264.544   -18468.996    1839.2031   -20308.199    316.55283 
   13100    288.72714    83.648395    62244.625   -18522.398    1790.1328   -20312.531    318.83968 
   13150    293.10186   -509.44518    62255.341   -18482.783    1817.2564    -20300.04    320.92444 
   13200    296.59213    52.572756    62316.527   -18419.345    1838.8964   -20258.241    323.38721 
   13250    292.10692   -285.00175    62186.152   -18461.366    1811.0877   -20272.454    324.97537 
   13300    291.37096   -281.02455    62098.266   -18490.559    1806.5247   -20297.084    325.40199 
   13350    292.34194     84.33466    62025.257   -18560.262    1812.5448   -20372.807    326.95877 
   13400    283.07051    -67.17654    61926.742   -18580.272    1755.0612   -20335.333    328.44548 
   13450     284.3716    484.36732    61995.747   -18602.902    1763.1281    -20366.03    329.90289 
   13500    293.72109   -223.45906    62141.038   -18602.973    1821.0957   -20424.069    331.20638 
   13550    283.95706   -44.845811    62085.622   -18625.115    1760.5579   -20385.673    331.81245 
   13600    277.82713    433.77211    62167.423   -18666.239    1722.5518   -20388.791    333.37682 
   13650    282.33792   -174.64799    62302.497    -18627.34    1750.5191    -20377.86    334.07586 
   13700    275.09984    152.27887     62318.91   -18587.424    1705.6423   -20293.066    334.29319 
   13750    287.09237    318.20644    62319.601   -18574.317    1779.9971   -20354.314    333.71595 
   13800    288.42814    210.81365    62421.487   -18495.499    1788.2789   -20283.778    335.04136 
   13850    283.59203    198.61286     62474.59   -18528.006    1758.2947   -20286.301    336.15974 
   13900    289.89221   -109.52679    62450.606   -18535.297    1797.3563   -20332.653    337.60562 
   13950    291.07532   -440.99793    62095.328   -18527.238    1804.6917   -20331.929    336.83133 
   14000     294.8901   -88.030141    62148.446   -18560.975    1828.3437   -20389.319    338.33654 
   14050    285.63381    115.35632    62459.503   -18542.678    1770.9539   -20313.632     339.9095 
   14100     286.5438    174.27142    62490.317   -18578.186    1776.5959   -20354.782    340.92929 
   14150    291.20922    46.013116     62537.57   -18548.776    1805.5219   -20354.298    342.16716 
   14200     296.8746   -113.32649    62342.419    -18593.27    1840.6477   -20433.918    342.83968 
   14250    282.56916    3.4703878    62078.042   -18554.801    1751.9528   -20306.753    343.24695 
   14300    282.11542    279.46013     62232.91   -18652.923    1749.1395   -20402.062    344.30303 
   14350    290.61831    80.841217    62120.538   -18628.722    1801.8582    -20430.58    345.13997 
   14400    281.90914    163.00934     62213.86   -18642.965    1747.8606   -20390.825    347.07306 
   14450    285.38733   -67.415439    62188.196   -18661.193    1769.4257   -20430.619     347.9206 
   14500     291.3793   -86.558799    62186.409   -18579.592    1806.5764   -20386.169    348.49527 
   14550    279.67206    25.210318    62223.682   -18644.419    1733.9905    -20378.41     349.8246 
   14600    276.36195   -106.67245     62309.01   -18595.717    1713.4676   -20309.184     351.6586 
   14650    282.10011   -51.058847    62293.287   -18615.689    1749.0446   -20364.733    351.77671 
   14700    275.18201   -42.200187    62215.765   -18604.342    1706.1518   -20310.494    351.68289 
   14750    278.85425    169.33247    62239.318   -18603.756      1728.92   -20332.676     351.8918 
   14800    285.31249    160.72302     62186.84    -18624.48    1768.9617   -20393.442    352.31147 
   14850    284.86523    -225.2854    62239.512   -18668.772    1766.1886   -20434.961    353.73211 
   14900    275.78173   -234.35199    62152.685   -18697.379    1709.8701   -20407.249    354.40195 
   14950     282.6359    62.550935    62144.142   -18670.428    1752.3666   -20422.794     355.3706 
   15000    272.47036    49.670043    62242.085   -18688.079    1689.3394   -20377.419    355.99666 
   15050    277.15745   -243.34867    62164.861   -18700.539    1718.3997   -20418.939    355.57597 
   15100    280.34351   -93.038764    62091.494   -18701.415    1738.1536   -20439.568    356.05411 
   15150    286.68333   -244.03406    62096.287   -18687.994     1777.461   -20465.455    356.82789 
   15200    278.48778    -52.16271    62052.159   -18652.149    1726.6479   -20378.797    357.78194 
   15250    285.45935    257.11788     62226.59   -18662.714    1769.8722   -20432.586    358.91443 
   15300    283.70979    277.59402    62362.734   -18619.365    1759.0248    -20378.39     360.6269 
   15350    285.47265    371.63803    62513.337    -18659.64    1769.9546   -20429.594     361.7638 
   15400     283.0923   -274.33166    62541.118   -18626.866    1755.1963   -20382.062    361.96436 
   15450    290.63527   -337.22357    62429.076   -18635.734    1801.9634   -20437.697    361.36539 
   15500    285.96274    174.40154    62285.922   -18661.124    1772.9933   -20434.117    361.52974 
   15550    284.98478    8.8705646    62118.965   -18596.874    1766.9298   -20363.804    362.29826 
   15600    285.30195   -125.68083    62108.975   -18578.756    1768.8963   -20347.652    363.45877 
   15650    284.88459   -170.95032    62115.081   -18618.812    1766.3086   -20385.121    365.14873 
   15700    283.74716    304.06431    62243.061    -18646.06    1759.2565   -20405.316    367.44752 
   15750     287.7225   -332.62838    62144.545   -18633.797    1783.9039   -20417.701    368.16169 
   15800     281.2245   -245.69027    61929.136   -18653.233    1743.6158   -20396.849    368.70366 
   15850     285.2155   -5.8917402    62069.813   -18630.092    1768.3603   -20398.452     371.1167 
   15900    280.33251    -206.5544    62118.647   -18643.456    1738.0854   -20381.542    372.81619 
   15950    280.23176   -9.1067299    62270.864   -18659.741    1737.4607   -20397.202     375.6069 
   16000    283.02266    79.171966    62280.165   -18577.962    1754.7645   -20332.726    377.73888 
   16050    296.04231   -25.084703     62261.18   -18565.826    1835.4875   -20401.313    380.51947 
   16100    289.09706   -203.03646    62387.225   -18539.572    1792.4263   -20331.998    380.92362 
   16150    287.28527   0.29606027    62461.856    -18579.66    1781.1931   -20360.853      381.972 
   16200    286.30875    -170.2006    62478.177   -18625.939    1775.1385   -20401.077    383.60225 
   16250    286.90285    123.19844    62410.813   -18656.835     1778.822   -20435.657    384.12402 
   16300    285.70706   -104.52066    62456.179    -18641.64     1771.408   -20413.048    386.59969 
   16350    282.10856    187.51084    62379.605   -18654.618     1749.097   -20403.715    387.00039 
   16400    289.74947    -34.13888    62573.472   -18525.753    1796.4713   -20322.225    386.69277 
   16450    290.38705   -461.71722    62747.994   -18545.544    1800.4244   -20345.968    388.54351 
   16500    290.12918   -515.04209    62746.111   -18551.653    1798.8256   -20350.478    389.60516 
   16550    287.63606   -138.06721     62596.67   -18597.739     1783.368   -20381.107    389.22045 
   16600    288.48635   -49.399118    62561.185   -18518.421    1788.6398   -20307.061     391.1286 
   16650     281.9876   -598.54872    62376.314   -18608.783    1748.3471    -20357.13    391.59955 
   16700    281.57875    76.740353    62214.232   -18576.098    1745.8122    -20321.91     392.0236 
   16750    287.06102    158.31145    62112.429   -18569.571    1779.8027   -20349.374    392.74502 
   16800    287.88408    101.81028    62116.248   -18556.088    1784.9057   -20340.994    393.96058 
   16850    285.83835    273.14983    62103.751   -18492.141    1772.2221   -20264.363    395.21688 
   16900    287.10974    210.85915     62194.65   -18518.859    1780.1048   -20298.964    396.52776 
   16950    287.36569    177.70838    62231.906   -18560.797    1781.6917   -20342.488    397.90003 
   17000    286.41527    241.16921     62256.51   -18602.415     1775.799   -20378.214    399.08384 
   17050    294.52311   -94.931234    62251.525   -18535.751    1826.0683   -20361.819    399.81258 
   17100    293.65518    109.27683    62053.565   -18528.791     1820.687   -20349.478    400.83458 
   17150     293.3265    3.6999596    62033.683   -18481.335    1818.6492   -20299.984    402.87202 
   17200    288.06591    65.119664    62425.725   -18513.503    1786.0331   -20299.536    405.56805 
   17250    288.53062   -25.990148    62614.385   -18551.364    1788.9143   -20340.278    408.58664 
   17300    281.31969   -103.48648    62573.485   -18577.508     1744.206   -20321.714    408.62844 
   17350    284.88478    218.15423    62520.795   -18534.118    1766.3098   -20300.427    409.60785 
   17400    288.14599     -27.4375    62556.121    -18563.28    1786.5296    -20349.81    409.53793 
   17450    286.52712    93.341532    62530.932   -18543.871    1776.4925   -20320.363    410.40108 
   17500    277.64274    211.94908    62611.816   -18594.283    1721.4085   -20315.691    410.93763 
   17550     286.0419    129.92352    62445.438   -18593.727     1773.484   -20367.211    410.65375 
   17600     298.5474    10.009415    62757.879    -18499.53    1851.0193   -20350.549    413.17588 
   17650    286.08768   -137.60344    62485.658   -18584.506    1773.7679   -20358.274    412.24552 
   17700    289.60511   -2.0019655    62374.263    -18596.91    1795.5763   -20392.486    413.56535 
   17750    282.27179    194.46021    62364.522   -18583.993    1750.1091   -20334.102    415.83851 
   17800    292.17791   -203.42949     62307.54   -18579.402    1811.5278    -20390.93    416.71226 
   17850    289.64628    1.5624832    62608.476   -18590.452    1795.8315   -20386.284     419.6088 
   17900    285.68798   -298.05959      62385.9   -18550.933    1771.2897   -20322.222    420.15515 
   17950    290.35281    143.14278    62144.789   -18542.113    1800.2121   -20342.325    420.49268 
   18000    293.37904     148.1715    62297.211   -18499.446     1818.975   -20318.421    423.39413 
   18050     282.2337   -14.906603    62435.213   -18592.844    1749.8729   -20342.717    425.15001 
   18100    289.33366   -54.303671    62378.147   -18609.162    1793.8932   -20403.055    427.41461 
   18150    289.30437    186.88404    62417.499   -18597.872    1793.7116   -20391.583    428.27487 
   18200    284.61688    -143.6956        62261   -18583.802    1764.6488   -20348.451    429.70042 
   18250    286.91401    273.24196    62684.106   -18489.669    1778.8912    -20268.56    432.56981 
   18300    288.44437     402.3827    62672.615   -18498.541    1788.3796   -20286.921    434.40168 
   18350    289.74182    123.46037    62751.261   -18533.247    1796.4239   -20329.671    435.67517 
   18400    294.41722   -124.48503    62651.507   -18573.896    1825.4118   -20399.308    436.74604 
   18450     288.0678   -65.198953    62378.283   -18544.912    1786.0448   -20330.957    437.62912 
   18500    283.48198    287.25774    62523.747   -18550.004    1757.6124   -20307.616    440.00595 
   18550    286.61312   -169.36533    62521.068   -18571.839    1777.0257   -20348.864    440.91726 
   18600    284.22735   -270.63003    62604.059   -18588.738    1762.2337   -20350.971    442.23117 
   18650    291.88653    -208.0048    62605.617   -18581.585    1809.7213   -20391.306    444.02428 
   18700     287.1865    185.51395    62604.048   -18573.146    1780.5807   -20353.727    446.07297 
   18750    289.03437   -128.90459    62609.609   -18551.722    1792.0376   -20343.759    448.57034 
   18800    288.22304   -289.86655    62475.308   -18539.432    1787.0073    -20326.44    449.96329 
   18850    283.14267    258.49648    62046.531   -18586.806    1755.5086   -20342.315    448.99204 
   18900    282.66286   -194.39439    62080.891   -18566.877    1752.5337   -20319.411    449.86922 
   18950    284.01713   -31.669406    62255.222   -18547.079    1760.9303    -20308.01    452.24884 
   19000    286.43358   -139.31185    62543.566   -18546.418    1775.9125   -20322.331    455.87776 
   19050    284.72548    165.54768    62602.969   -18553.215    1765.3222   -20318.538     457.4749 
   19100    285.50483      226.191    62670.381    -18594.24    1770.1542   -20364.394    458.78345 
   19150    290.21519   -15.208141    62650.774   -18613.412    1799.3588    -20412.77     460.6532 
   19200    292.26439    9.9383116     62728.15   -18561.094     1812.064   -20373.158    462.70128 
   19250    292.05266   -2.2743882    62678.381   -18527.962    1810.7513   -20338.714    464.01704 
   19300    295.35979   -226.58483    62717.849   -18513.409    1831.2558   -20344.665    465.16146 
   19350    290.85714    133.19946    62702.775   -18541.487     1803.339   -20344.826    467.38784 
   19400    288.54423   -298.23133    62681.559   -18549.778    1788.9987   -20338.776    467.99892 
   19450    294.51623    34.630249    62394.474   -18590.894    1826.0256   -20416.919    467.27504 
   19500    287.65387     120.9344    62612.182   -18568.647    1783.4784   -20352.126     468.7889 
   19550    289.30872   -169.18249    62502.094   -18598.669    1793.7387   -20392.407    469.32661 
   19600    282.32668   -228.26728    62475.427   -18628.859    1750.4494   -20379.309    471.09075 
   19650    286.03909   -33.375478    62662.834   -18600.674    1773.4667    -20374.14    473.76596 
   19700     292.8776    326.24059    62482.923   -18543.906     1815.866   -20359.772    475.03719 
   19750    280.43876   -386.96336     62325.93   -18553.917    1738.7441   -20292.661    477.52247 
   19800    282.63353    55.223381    62227.708   -18573.052    1752.3519   -20325.404    478.01057 
   19850    285.75973   -31.799942     62367.69   -18540.928    1771.7346   -20312.663    479.46096 
   19900     290.1906   -239.80612    62313.766   -18567.283    1799.2064   -20366.489    481.65725 
   19950    285.63162   -118.50566    62415.116   -18584.223    1770.9403   -20355.164    484.17186 
   20000     289.4398    443.57787    62459.433   -18579.884    1794.5513   -20374.435    485.64081 
   20050    288.99606   -160.27372    62588.997   -18526.084    1791.8001   -20317.884    486.15553 
   20100    284.00058    151.10081    62519.399    -18591.83    1760.8277   -20352.658    486.25563 
   20150    283.07377   -315.40531    62501.621    -18650.63    1755.0814   -20405.711    487.14037 
   20200     287.8795   -4.8625414    62412.663    -18618.48    1784.8773   -20403.358    487.73643 
   20250    279.23494   -104.69776    62315.674   -18658.985    1731.2803   -20390.265    488.70202 
   20300      292.359    127.98787    62357.404   -18620.221    1812.6506   -20432.871    489.90052 
   20350    275.08903    382.01567    62280.046   -18622.277    1705.5754   -20327.853    490.01264 
   20400    291.99439   -130.97618    62399.191     -18600.3      1810.39    -20410.69    492.68422 
   20450    290.84256   -200.23259     62455.52   -18580.057    1803.2486   -20383.306    495.49762 
   20500    278.97865    50.305297    62489.574    -18589.87    1729.6913   -20319.561     498.5029 
   20550    283.40847    82.584192    62558.482    -18624.56    1757.1566   -20381.716    500.44099 
   20600    280.46044   -228.13112    62646.449   -18634.558    1738.8785   -20373.437    502.05774 
   20650    288.55476    71.391649    62540.409   -18608.017     1789.064   -20397.081    503.49005 
   20700    289.68113   -438.22365    62623.667   -18551.203    1796.0476    -20347.25    505.97297 
   20750    294.21548   -308.73302    62470.083   -18559.991    1824.1609   -20384.152    507.49665 
   20800      281.384    83.011416    62361.111   -18605.962    1744.6047   -20350.567     509.0508 
   20850    279.08887   -158.62389    62273.901   -18631.705    1730.3747    -20362.08    510.38469 
   20900    295.51508   -164.88193    62268.747   -18617.231    1832.2186    -20449.45    511.73014 
   20950    285.49442    9.9005487    62238.239   -18672.704    1770.0897   -20442.793    513.74522 
   21000    269.64678    34.171055    62078.335   -18774.456    1671.8329   -20446.289    514.27552 
   21050    287.20482    319.10931    62358.106   -18694.465    1780.6943   -20475.159    517.23146 
   21100    279.77285   -65.195152    62582.871   -18729.246    1734.6154   -20463.861    520.61992 
   21150    280.26196    171.66975    62349.209   -18676.192     1737.648    -20413.84    520.88328 
   21200    282.08655   -121.28454    62336.512   -18645.219    1748.9606   -20394.179    523.15819 
   21250    291.88618    235.94846    62330.197   -18608.665    1809.7191   -20418.384    524.93078 
   21300    286.32969    170.07878    62214.251   -18615.955    1775.2684   -20391.224    524.39543 
   21350    287.96088     28.43757    62264.207   -18642.358    1785.3819    -20427.74    525.83029 
   21400     283.9833   -2.7257041     62382.87   -18604.754    1760.7206   -20365.474    527.00569 
   21450    287.69511   -83.136749    62395.033   -18612.864    1783.7341   -20396.598    528.69912 
   21500    284.01227    17.290433    62313.702   -18615.839    1760.9002    -20376.74    528.83619 
   21550    284.30089     115.6572    62369.361   -18578.074    1762.6897   -20340.764    529.14194 
   21600    291.80675   -120.86384    62422.851   -18597.374    1809.2266   -20406.601    529.63867 
   21650    286.78923   -235.95488    62401.293   -18554.597    1778.1176   -20332.715    530.68013 
   21700    294.24824    224.79823    62453.874   -18546.167    1824.3641   -20370.531    532.95944 
   21750    294.14112   -3.6219317    62506.516   -18510.472    1823.6999   -20334.171    535.41969 
   21800    288.22226   -158.94379    62362.557   -18534.714    1787.0025   -20321.716    534.64379 
   21850    290.94648    -504.4803    62270.936   -18551.898    1803.8929   -20355.791     534.9416 
   21900    286.30112   -112.36229    62232.874   -18558.763    1775.0913   -20333.854     536.2544 
   21950    287.63267    137.01187    62222.884   -18583.479     1783.347   -20366.825    537.25657 
   22000    277.28332   -133.66638    62261.819   -18642.189    1719.1801   -20361.369    538.55531 
   22050    293.50175   -65.547178    62276.418   -18614.956    1819.7357   -20434.692    539.36421 
   22100    281.83106    53.830114    62412.715   -18606.927    1747.3765   -20354.303     540.6886 
   22150    289.66694    -240.2613    62397.566   -18628.254    1795.9596   -20424.214    540.88052 
   22200    292.71785    214.82521    62358.188   -18549.157    1814.8755   -20364.032    540.89396 
   22250    286.38032   -179.73729    62326.175   -18574.595    1775.5823   -20350.178    541.55417 
   22300    286.64146   -257.94204    62169.012   -18558.761    1777.2014   -20335.963    541.22331 
   22350    282.76075     36.53763    62243.203   -18555.327    1753.1407   -20308.468    542.51908 
   22400    286.69281   -28.397965    62113.599   -18557.625    1777.5198   -20335.145    544.58786 
   22450    288.53185    226.21581    62189.119   -18559.958     1788.922    -20348.88    546.95556 
   22500    289.96371    231.42755    62229.855   -18545.128    1797.7996   -20342.927    548.51282 
   22550    284.44064   -329.21611    62408.245    -18501.83    1763.5561   -20265.386    551.13992 
   22600    293.31726   -58.307384    62514.214   -18547.595    1818.5919   -20366.187    553.48965 
   22650    288.39183    145.33518    62501.676   -18572.139    1788.0539   -20360.193    555.48837 
   22700    286.23336    -42.78096    62201.919   -18572.321    1774.6711   -20346.992    555.32278 
   22750    288.28887   -187.99397    62197.261   -18536.446    1787.4155   -20323.861    556.69223 
   22800    287.87414   -107.14939    62239.833   -18524.728    1784.8441   -20309.572    556.83241 
   22850    295.47348    -190.3945    62136.055    -18543.43    1831.9607    -20375.39    556.35646 
   22900     292.7657    304.16815    62134.102   -18549.267    1815.1722    -20364.44    555.68203 
   22950    292.93494   -103.49313    62250.476   -18567.901    1816.2215   -20384.123    556.21494 
   23000    295.99675    115.45743    62362.285   -18563.595     1835.205     -20398.8    558.89344 
   23050    288.24927    51.608221    62510.193    -18631.92      1787.17    -20419.09    560.00258 
   23100    284.74707    4.1158808     62417.55   -18637.918     1765.456   -20403.374    562.36554 
   23150    294.02269    3.3831514    62381.119   -18606.031    1822.9656   -20428.997    562.89108 
   23200    278.78773   -145.79779    62173.417   -18629.036    1728.5076   -20357.543    561.69885 
   23250    285.78958   -332.85991    62062.424   -18610.826    1771.9197   -20382.745    562.33212 
   23300    289.14454   -146.46193    62031.192   -18565.802    1792.7207   -20358.522    562.74087 
   23350    278.45312    281.45188    62086.873     -18591.5     1726.433   -20317.933    564.59345 
   23400    284.06048    60.454349    62119.349   -18519.193    1761.1991   -20280.392    566.60898 
   23450     287.2031   -109.65903    62007.183   -18564.465    1780.6836   -20345.148    566.74173 
   23500    293.21947   -214.00632    62130.896   -18562.056    1817.9856   -20380.041    568.17235 
   23550    289.76312    4.9004317    62283.443   -18541.403    1796.5559   -20337.959    570.85816 
   23600    286.99418    68.337616    62602.026   -18580.361    1779.3883   -20359.749    572.84091 
   23650    287.08559   -42.805607    62468.474   -18622.088     1779.955   -20402.043    573.05665 
   23700    289.42714   -304.80169    62267.732   -18654.884    1794.4728   -20449.357    572.38845 
   23750    274.31115    -102.8063    62170.151   -18667.365    1700.7524   -20368.117    573.28136 
   23800    289.37247    130.70731    62228.225    -18654.24    1794.1339   -20448.373    574.35488 
   23850    283.65121    198.91801    62250.375   -18638.416    1758.6616   -20397.078    575.66151 
   23900     289.2462   -166.31409    62333.722   -18646.283     1793.351   -20439.634    577.59627 
   23950    282.77683    391.83359    62384.313   -18629.342    1753.2404   -20382.583    577.68412 
   24000    290.25837   -425.22884    62318.378   -18576.681    1799.6265   -20376.308    577.89915 
   24050    287.01775   -239.88927    62460.645   -18574.301    1779.5344   -20353.836    581.27384 
   24100    290.63211   -198.09164    62379.484   -18613.683    1801.9438   -20415.627    582.66104 
   24150    277.81619    4.6394754    62366.265   -18668.574     1722.484   -20391.058    583.57606 
   24200    282.96037   -152.60306    62496.621   -18647.846    1754.3783   -20402.224    585.20363 
   24250    286.06107    264.18284     62413.62   -18652.855    1773.6029   -20426.458    586.06082 
   24300    289.85477    71.955157    62455.106   -18611.208    1797.1242   -20408.332    588.06493 
   24350    284.36917   -11.783822    62401.676   -18608.887     1763.113       -20372    589.67223 
   24400    283.58939     477.8058    62513.327   -18651.459    1758.2783   -20409.738    590.97379 
   24450    281.01958   -467.39933    62542.561   -18688.401    1742.3452   -20430.747    591.08929 
   24500    284.59097   -6.3128996    62526.395    -18608.51    1764.4882   -20372.998    592.29487 
   24550    280.39059    12.499812    62305.308   -18659.971    1738.4454   -20398.416    591.59531 
   24600    282.07885   -240.37863    62247.687   -18630.938    1748.9128   -20379.851    591.60818 
   24650     284.4317    227.85714    62279.564   -18585.352    1763.5007   -20348.852    592.36453 
   24700    293.43486    69.386383    62269.631   -18597.997    1819.3211   -20417.318    593.02213 
   24750     293.7883    -189.2208    62320.642   -18609.928    1821.5124   -20431.441    594.27388 
   24800    289.69601   -38.404274    62439.887   -18630.367    1796.1399   -20426.507      596.251 
   24850    286.22811   -4.4738866    62410.669   -18571.384    1774.6386   -20346.022    595.99538 
   24900     290.7607   -397.02451    62392.042   -18546.453     1802.741   -20349.194    596.88745 
   24950    291.41012   -216.57509    62268.892   -18540.579    1806.7675   -20347.346    598.29306 
   25000     285.9368   -107.23038    62227.197   -18509.999    1772.8324   -20282.832    599.55266 
   25050    285.66264   -68.413972    62012.734   -18518.687    1771.1326    -20289.82    600.33983 
   25100    293.71135     178.1786    61924.256   -18574.963    1821.0353   -20395.998    601.68258 
   25150    280.44964   -369.09384    61831.598   -18645.592    1738.8116   -20384.404    602.28451 
   25200    274.39746    51.727846    62015.476   -18621.862    1701.2875    -20323.15     604.4921 
   25250    282.92385     132.3573    62155.942   -18607.434    1754.1519   -20361.586    606.12049 
   25300    285.06696    28.327218    62175.953    -18583.25    1767.4394   -20350.689    606.41848 
   25350    289.64802   -160.14159    62123.794   -18575.377    1795.8423    -20371.22      607.178 
   25400    284.63648   -105.66047    62422.574   -18540.102    1764.7703   -20304.872    610.27928 
   25450    284.67612   -245.90559    62547.867   -18548.704    1765.0161    -20313.72     614.3094 
   25500    288.37417   -18.726742    62467.866   -18560.622    1787.9443   -20348.566    614.61449 
   25550    290.58269   -82.762131     62508.85   -18552.384    1801.6374   -20354.021    615.25135 
   25600    289.29086   -145.56634    62523.236   -18534.534    1793.6279   -20328.162    617.38759 
   25650    289.14758   -324.75545    62211.831   -18608.141    1792.7395   -20400.881    615.81948 
   25700    292.61722   -492.63367    62266.346   -18621.369    1814.2516    -20435.62    617.72841 
   25750    289.35337   -246.26356    62120.267   -18603.908    1794.0154   -20397.924       617.12 
   25800    294.87996    35.567105    62385.437   -18625.416    1828.2808   -20453.696    619.26734 
   25850    291.85329   -363.94028    62348.108   -18585.907    1809.5152   -20395.422    619.04785 
   25900    291.43483    135.35729    62506.246   -18556.954    1806.9207   -20363.875    620.38564 
   25950    288.03737    15.066422    62390.078   -18520.149    1785.8562   -20306.006    621.39351 
   26000    288.35594    28.390247    62504.129     -18534.7    1787.8313   -20322.531    623.36017 
   26050    286.20431    54.264222     62457.63    -18599.58     1774.491   -20374.071    624.72956 
   26100    284.36272    90.260098      62319.8   -18580.263     1763.073   -20343.336    623.94925 
   26150     287.4996    133.81679    62367.172   -18571.511    1782.5219   -20354.033    626.28137 
   26200    290.96248    437.94663    62570.061   -18559.166    1803.9921   -20363.158    627.69411 
   26250    294.06498    206.97474    62543.976   -18534.222    1823.2278    -20357.45    629.64739 
   26300      283.309   -219.04225    62304.778    -18549.33    1756.5398    -20305.87     629.9169 
   26350    293.89114    157.46661    62394.525   -18514.812      1822.15   -20336.962    630.77452 
   26400    283.55665   -7.4449635    62596.327   -18586.348    1758.0753   -20344.423    633.32986 
   26450    285.37196    46.545383    62744.543   -18590.243    1769.3304   -20359.573    635.72626 
   26500    290.54823    122.05921    62863.109   -18591.523    1801.4237   -20392.947    638.01493 
   26550    286.71115   -108.27005    62500.048   -18639.798    1777.6335   -20417.432    634.89212 
   26600    275.32736    9.7130711    62509.448   -18640.267     1707.053    -20347.32    636.46922 
   26650    285.33391   -588.04951    62261.018   -18653.971    1769.0945   -20423.065    635.99117 
   26700    285.08782    -207.5087    62076.085   -18608.696    1767.5687   -20376.264    636.03541 
   26750     285.6171    22.344607     62290.89   -18593.758    1770.8503   -20364.609    637.75687 
   26800    281.43679    207.56394    62311.526   -18570.385     1744.932   -20315.317    639.10451 
   26850    285.15793    17.999072    62432.611   -18597.461    1768.0034   -20365.464    639.24117 
   26900    280.17396     32.58508    62495.636   -18619.133    1737.1023   -20356.235    639.75192 
   26950    292.66399    200.25864    62257.832   -18666.701    1814.5416   -20481.243    639.00581 
   27000    281.84098    118.20453    62476.393   -18671.619     1747.438   -20419.057    642.27483 
   27050    287.08227   -195.68739    62467.159   -18672.618    1779.9344   -20452.552    643.29254 
   27100    287.71324   -343.78647    62371.613   -18646.959    1783.8465   -20430.805    645.11285 
   27150    283.79421    213.53262    62242.216   -18636.966    1759.5482   -20396.514    645.77382 
   27200    291.65162   -108.36358    62200.332   -18628.183    1808.2648   -20436.448    646.23932 
   27250    283.64239   -138.61542    62210.925    -18652.98    1758.6069   -20411.586    647.97811 
   27300    283.25784    83.702738    62254.589   -18679.227    1756.2226   -20435.449    649.86584 
   27350    286.23535    165.78225    62188.746   -18646.556    1774.6835   -20421.239    651.18848 
   27400    290.28483    261.86062    62337.354   -18580.783    1799.7906   -20380.573    653.90983 
   27450    286.91909     266.7727     62388.34    -18562.17    1778.9227   -20341.093    655.73053 
   27500    290.11298    265.64423     62553.37   -18545.678    1798.7251   -20344.403    656.27116 
   27550    283.88821   -148.67672    62527.455   -18587.772     1760.131   -20347.903    657.72777 
   27600    285.10215    63.149623    62493.583   -18584.009    1767.6576   -20351.666    658.91744 
   27650    285.48115    31.586292    62304.151   -18607.753    1770.0074   -20377.761    658.15697 
   27700     284.0878   -153.57938    62269.487     -18572.4    1761.3685   -20333.768     659.0441 
   27750    292.97019   -207.28672     62224.61   -18497.129      1816.44   -20313.569     661.2427 
   27800    299.36035    195.39863    62288.134   -18476.157    1856.0596   -20332.217    663.09447 
   27850    289.09903   -332.79373    62445.929   -18509.365    1792.4386   -20301.803    664.38722 
   27900    282.98907   -343.74054    62446.296   -18595.115    1754.5563   -20349.672     665.9501 
   27950    286.13417   -158.78085    62197.607    -18630.16    1774.0561   -20404.216    665.37452 
   28000    283.90521    319.38534    62273.042   -18583.934    1760.2364   -20344.171     666.8155 
   28050     292.5999    471.18063     62432.77   -18515.253    1814.1442   -20329.397    669.44253 
   28100    287.82542    12.072611    62452.303   -18533.744    1784.5421   -20318.287    670.56404 
   28150    284.74513    1.6315832    62335.444   -18541.368     1765.444   -20306.812    669.02314 
   28200    284.02053    248.67734    62222.336   -18582.511    1760.9514   -20343.462    668.78198 
   28250    292.08866   -366.06253    62311.148   -18558.357    1810.9745   -20369.331     670.8836 
   28300    285.02659   -137.57216    62339.482   -18595.952     1767.189   -20363.141    672.48385 
   28350    283.93461   -179.41078    62354.102    -18599.64    1760.4187   -20360.059    673.51405 
   28400    285.37713    65.534225    62467.825   -18659.248    1769.3624   -20428.611    673.90197 
   28450    280.01935    201.94336    62452.314   -18683.737    1736.1437   -20419.881    674.35364 
   28500    281.67955   -155.97795    62610.671   -18656.874    1746.4371   -20403.311    676.47496 
   28550    286.63516    588.05471    62519.311   -18611.957    1777.1623   -20389.119    678.37088 
   28600    291.92628    117.30422    62428.649   -18572.386    1809.9677   -20382.354     677.5729 
   28650    271.99216   -3.4400915    62509.891   -18627.409    1686.3745   -20313.783     679.8594 
   28700    293.63563   -166.92767    62718.811   -18570.993    1820.5658   -20391.559    682.67197 
   28750    290.55168   -195.19499     62622.73   -18598.882    1801.4451   -20400.327     683.8877 
   28800    288.78759    -75.52381    62675.233    -18576.91    1790.5076   -20367.417    685.22682 
   28850    291.00823    345.70179    62688.902   -18552.783    1804.2757   -20357.058     687.2699 
   28900    284.84765    50.376816    62670.783   -18540.746    1766.0796   -20306.826    687.06736 
   28950    286.01045    203.87035    62558.798   -18615.374    1773.2891   -20388.663     687.5429 
   29000    293.70167   -145.60059    62386.807   -18609.419    1820.9753   -20430.394    686.66066 
   29050    288.67372   -317.70646    62290.518   -18590.924    1789.8016   -20380.726     687.7963 
   29100    293.82861    70.733816    62414.965   -18519.049    1821.7623   -20340.811    690.08921 
   29150    293.20408     -135.456     62550.44   -18536.509    1817.8902   -20354.399    691.60716 
   29200     290.9466   -31.645199    62532.986   -18546.287    1803.8936   -20350.181    693.25231 
   29250    289.89134    -167.6921    62474.899   -18601.361    1797.3509   -20398.712    693.49482 
   29300    284.85754    -198.8384    62663.192   -18624.784     1766.141   -20390.925    695.60476 
   29350    280.49954   -139.81388    62635.184   -18640.243    1739.1209   -20379.364    696.78719 
   29400    280.61704    127.03619    62648.845   -18673.491    1739.8495    -20413.34    697.33638 
   29450    284.90801   -492.57691    62535.187   -18688.138    1766.4539   -20454.592    697.27942 
   29500    283.36973    6.2715407    62451.617   -18661.266    1756.9164   -20418.182    698.56264 
   29550    284.94349   -117.22484    62458.961   -18631.901    1766.6739   -20398.575    699.89583 
   29600    292.26718   -20.666376    62463.762   -18579.354    1812.0814   -20391.435    701.20311 
   29650    286.95521    75.695267    62449.198   -18640.325    1779.1467   -20419.471    703.30113 
   29700    286.59549   -416.68982    62316.146   -18637.559    1776.9164   -20414.475    704.79533 
   29750    288.03266    118.77221    62381.868   -18663.231     1785.827   -20449.058    705.85958 
   29800    285.76346    180.40981    62473.287   -18664.225    1771.7577   -20435.982    707.51467 
   29850    287.61218   -47.501231    62762.565   -18613.908    1783.2199   -20397.128    710.67816 
   29900    287.23823     197.3858    62663.787   -18603.431    1780.9014   -20384.333    710.11458 
   29950    291.35438   -203.89881    62812.963   -18565.364    1806.4219   -20371.786     711.2364 
   30000    282.74518     86.00832    62613.345   -18628.755    1753.0441   -20381.799    711.39421 
   30050    282.95942   -181.33755    62456.949   -18606.086    1754.3724   -20360.458    712.38209 
   30100    294.07958   -310.99251    62580.658   -18619.354    1823.3184   -20442.673    713.55575 
   30150    280.82547   -198.32573    62267.825   -18618.075    1741.1418   -20359.217    713.88119 
   30200    286.07464    342.93271    62094.146   -18636.519     1773.687   -20410.206    714.28194 
   30250     280.8208    11.289905     62227.57   -18641.614    1741.1128   -20382.727    716.81352 
   30300    291.70752    36.090287    62148.775   -18563.268    1808.6114   -20371.879    718.96822 
   30350    294.29268    210.55843    62399.364   -18545.596    1824.6396   -20370.236    721.51656 
   30400    291.08229    -372.0555    62294.714   -18548.941    1804.7349   -20353.676    721.77269 
   30450    288.97763    113.09623    62140.878   -18599.271    1791.6858   -20390.957    722.78815 
   30500    286.84315   -162.63704    61966.797    -18594.95    1778.4519   -20373.402    722.84354 
   30550    286.97349   -10.170977    62144.675   -18598.791      1779.26   -20378.051    725.83409 
   30600    288.77044     171.2328    62259.854    -18609.38    1790.4012   -20399.781    729.33345 
   30650    285.40962    90.735302    62278.459   -18590.837    1769.5639   -20360.401    731.39198 
   30700    288.49652   -268.76662    62218.494   -18640.748    1788.7029   -20429.451    732.87495 
   30750    282.40946    121.99041    62421.424   -18598.689    1750.9626   -20349.651    736.65868 
   30800    294.27256   -238.79303     62261.56   -18567.928    1824.5148   -20392.442    738.64544 
   30850    290.95238     88.65285    62329.049   -18647.691    1803.9294    -20451.62    741.43568 
   30900    289.90721    87.419766    62149.108   -18607.018    1797.4493   -20404.468    742.12985 
   30950    281.80892     236.6113     62352.27   -18658.554    1747.2392   -20405.793     747.0989 
   31000    289.06556    56.520322    62408.502   -18699.567     1792.231   -20491.798     748.7177 
   31050    276.49676    29.313706    62463.366    -18708.66    1714.3034   -20422.963    750.91226 
   31100    276.46504    199.64808    62459.487   -18695.681    1714.1067   -20409.788    753.22492 
   31150    276.26397    -13.84891    62725.567    -18682.64    1712.8601     -20395.5    757.08565 
   31200    278.64085   -110.60624    62683.667   -18689.809     1727.597   -20417.406    758.04253 
   31250    285.95086    -45.99643    62629.235   -18694.317    1772.9196   -20467.237    759.00139 
   31300    289.31317   -58.943611      62730.5   -18554.521    1793.7662   -20348.287    761.41815 
   31350    287.08545   -210.76873    62774.676   -18509.047    1779.9541   -20289.001    763.37295 
   31400    288.83692   -407.32582    62400.103   -18589.254    1790.8134   -20380.067    759.76587 
   31450    286.28055    288.65054    62356.965   -18631.416    1774.9637    -20406.38    761.32768 
   31500    295.66183    482.04132    62358.382   -18539.079    1833.1285   -20372.208    761.28227 
   31550     286.7178    133.95681    62235.932    -18583.25    1777.6747   -20360.925    761.81636 
   31600     285.8511    24.505093    62418.223   -18581.355    1772.3011   -20353.656    763.98489 
   31650    295.63488   -161.61774    62295.807   -18618.176    1832.9614   -20451.137    764.80249 
   31700    286.61173   -186.44015    62402.855     -18624.8    1777.0171   -20401.817    766.05331 
   31750    295.26219    196.47927    62222.782   -18557.117    1830.6507   -20387.768    764.71835 
   31800    290.88905   -192.47484    62275.875   -18560.953    1803.5368    -20364.49    765.16061 
   31850    287.44641    12.298983    62267.136   -18545.935    1782.1922   -20328.127    766.33766 
   31900     288.4167   -27.652885     62197.55   -18545.893     1788.208   -20334.101    767.44405 
   31950    289.83834    8.5412925    62114.005   -18541.637    1797.0223    -20338.66    768.81404 
   32000    285.70118   -129.52453    62009.872   -18569.868    1771.3716   -20341.239    769.40476 
   32050    282.93937    429.95105    61996.267   -18561.225    1754.2481   -20315.473    770.99404 
   32100    287.09039    326.83561    62171.825   -18578.776    1779.9848   -20358.761    772.42769 
   32150    280.88247    33.835691    61992.764   -18559.875    1741.4951    -20301.37    771.64222 
   32200    287.86526    437.92161    62287.759   -18555.786     1784.789   -20340.575    775.69092 
   32250    289.65395    180.16591    62341.217    -18518.21    1795.8791   -20314.089    776.08974 
   32300    290.84017    -62.43287    62319.118   -18540.934    1803.2337   -20344.168    776.69592 
   32350    290.62305   -106.45932    62303.153   -18538.709    1801.8876   -20340.596    777.54208 
   32400    277.40086   -74.906351    62223.706   -18572.229    1719.9089   -20292.138    776.10591 
   32450    284.55854    22.821628     62505.06   -18594.345    1764.2871   -20358.632    778.62089 
   32500    296.12902   -99.035555    62444.566   -18573.857    1836.0251   -20409.883    779.12244 
   32550    283.95397    312.79505    62437.939   -18539.223    1760.5387   -20299.762    779.31905 
   32600    288.84286   -84.853931    62271.103   -18578.735    1790.8502   -20369.585    779.69066 
   32650    284.76017   -39.664903    62340.832   -18582.608    1765.5372   -20348.146    781.44865 
   32700    284.76923    56.988609    62195.718   -18613.802    1765.5934   -20379.396    781.28689 
   32750    291.48119   -262.20927    62133.184   -18604.965    1807.2081   -20412.173    779.76652 
   32800    278.33974    68.251125    62183.317   -18650.138      1725.73   -20375.868    781.89574 
   32850    283.21023   -321.50579     62065.51   -18650.829    1755.9274   -20406.757      782.952 
   32900    287.36241   -142.24272    61895.254   -18667.327    1781.6714   -20448.999    783.61111 
   32950    279.78605   -101.32545    62079.447   -18694.856    1734.6973   -20429.553    785.22307 
   33000    275.36332     11.62999    62192.878   -18657.328     1707.276   -20364.604    788.38209 
   33050    282.22133   -156.67233    62264.657   -18625.543    1749.7962   -20375.339    791.25544 
   33100    293.70455   -6.7478625    62011.329    -18579.56    1820.9931   -20400.553     789.5862 
   33150    293.40634    -378.3874    62256.992   -18591.153    1819.1442   -20410.297    792.76727 
   33200    287.03635    224.50867    62221.799   -18628.858    1779.6497   -20408.507    792.93764 
   33250    286.87848    139.89553    62361.602   -18572.766    1778.6709   -20351.436     794.1635 
   33300    287.06418   -571.02291    62371.128   -18572.685    1779.8223   -20352.508    794.97531 
   33350    278.84416    352.46683    62222.739   -18675.379    1728.8575   -20404.236    794.33693 
   33400     282.4049    47.219892    62332.205   -18644.894    1750.9343   -20395.829    796.71583 
   33450    283.67803   -181.03752     62365.55   -18657.529    1758.8279   -20416.357    798.18803 
   33500    285.98224   -109.23002    62184.538   -18648.929    1773.1142   -20422.043    797.69154 
   33550     282.6134    14.837555    62371.648   -18640.907    1752.2271   -20393.134    800.59824 
   33600    287.52296   -52.919572    62420.878   -18648.524    1782.6668    -20431.19    802.31032 
   33650    284.80132   -350.13271    62281.927   -18597.709    1765.7924   -20363.501     804.0449 
   33700    283.64343    261.36479     62400.95   -18631.233    1758.6134   -20389.847    807.59284 
   33750    285.29129   -225.24635    62281.034   -18615.573    1768.8302   -20384.403    807.35844 
   33800    284.01123    441.82123    62395.347   -18576.905    1760.8937   -20337.799    810.65409 
   33850    282.87004   -150.12577    62377.383   -18605.643    1753.8183   -20359.461    811.04585 
   33900    288.08247   -17.257422    62289.799   -18591.701    1786.1358   -20377.837    811.09888 
   33950    284.72797    12.344657    62338.023   -18626.865    1765.3376   -20392.202    812.71339 
   34000    281.01302   -44.413601     62482.82   -18571.064    1742.3046   -20313.368    812.84781 
   34050    280.04843    418.06136    62269.656   -18579.753     1736.324   -20316.077    813.13848 
   34100    284.57922   -127.97795    62196.101   -18589.224    1764.4153   -20353.639     813.8689 
   34150    287.72954    39.856662    62289.809    -18570.02    1783.9476   -20353.968    816.23528 
   34200    285.58501     296.2696    62316.585   -18599.425    1770.6513   -20370.076    818.43839 
   34250    282.90155    79.596951    62663.183   -18655.308    1754.0136   -20409.322    821.66967 
   34300    286.64458    422.40296    62732.593   -18637.638    1777.2207   -20414.859    823.08324 
   34350    288.90021    170.69106    62860.153   -18576.617    1791.2058   -20367.823    823.69584 
   34400    288.04947   -185.93821    62777.462   -18591.987    1785.9312   -20377.919    823.12866 
   34450    289.79879   -27.535084    62833.105   -18617.214    1796.7771   -20413.991    825.54691 
   34500    286.33294    94.327236    62967.109   -18596.565    1775.2886   -20371.854    828.31729 
   34550    285.53605   -259.61432    62868.577   -18551.573    1770.3478    -20321.92    826.74817 
   34600     286.7162    117.69182    62618.589   -18610.399    1777.6648   -20388.064    825.29447 
   34650    274.67879     60.44988    62518.647   -18596.691    1703.0318   -20299.723    823.00974 
   34700    290.17691   -274.82555    62394.545   -18618.801    1799.1215   -20417.923    823.13959 
   34750    283.73207    244.63835     62245.11   -18628.299    1759.1629   -20387.462    822.26044 
   34800    285.95936    242.15399    62306.612   -18664.669    1772.9723   -20437.641    823.54677 
   34850    281.29901    -263.0916    62206.001   -18634.188    1744.0777   -20378.266    825.07729 
   34900      281.689    196.13869     62202.71   -18626.407    1746.4957   -20372.902    827.75448 
   34950     273.4338    64.962393     62036.64   -18684.064    1695.3128   -20379.377    827.50917 
   35000    281.32368    101.14897    62041.225   -18682.005    1744.2307   -20426.236     829.4778 
   35050    276.61356   -74.860801    62163.845   -18623.549    1715.0276   -20338.577    831.65986 
   35100    287.42136   -27.105937    62068.671   -18596.858    1782.0368   -20378.895    833.51822 
   35150    277.02788    -253.2616    62002.615   -18640.475    1717.5964   -20358.071    834.44369 
   35200    282.01146   -59.813629    62057.393   -18624.391     1748.495   -20372.886    837.78077 
   35250    284.57316    -216.2396    61926.896   -18609.181    1764.3778   -20373.558    838.07043 
   35300    284.49805    207.54595     62080.17   -18619.281    1763.9121   -20383.193    840.72431 
   35350    284.73045    66.835111    62289.211   -18573.613    1765.3529   -20338.966     844.3986 
   35400    287.17287    90.260684    62256.215   -18595.016    1780.4962   -20375.512    845.51003 
   35450    289.06133    408.48821    62397.949   -18569.881    1792.2048   -20362.085    848.19793 
   35500    285.27438    293.83355    62319.734   -18534.798    1768.7254   -20303.523    849.88046 
   35550     285.4213   -274.72256    62429.903   -18570.273    1769.6363   -20339.909    853.08954 
   35600    293.39728   -324.46261     62421.31   -18546.794     1819.088   -20365.882    854.03171 
   35650    284.72302    259.08641    62547.212   -18569.037    1765.3069   -20334.344    856.29688 
   35700     292.4747   -43.992577    62448.845   -18556.248     1813.368   -20369.616     856.8556 
   35750    293.67931    391.15968    62541.402   -18539.228    1820.8367   -20360.065    859.85987 
   35800    286.86249    -117.3224    62516.211   -18567.409    1778.5718   -20345.981    862.20748 
   35850    288.45971    184.04027    62438.444   -18599.447    1788.4747   -20387.922     862.8984 
   35900    296.37804    70.466607    62613.139   -18491.546     1837.569   -20329.115    866.26449 
   35950    290.75421   -80.218889    62714.721   -18438.265    1802.7008   -20240.965    868.55327 
   36000    299.21946    160.95769     62739.61   -18455.071    1855.1861   -20310.257    870.36279 
   36050    289.11514   -164.00935    62648.875   -18501.897    1792.5384   -20294.436    869.14848 
   36100    284.97213   -193.44425    62341.617   -18530.515    1766.8514   -20297.367    868.50894 
   36150    283.68588    377.78271    62421.155   -18572.569    1758.8765   -20331.446    871.47132 
   36200    286.66164   -145.18205    62410.765   -18553.194    1777.3265    -20330.52    871.92054 
   36250    277.16377    329.44845    62286.202   -18599.656    1718.4389   -20318.094    871.07206 
   36300    277.87024   -205.67867    62569.103   -18597.593    1722.8191   -20320.412    874.92634 
   36350    288.78527   -16.568019    62520.497   -18577.349    1790.4932   -20367.842    874.33952 
   36400    299.04868   -29.261839    62498.579   -18526.762    1854.1272   -20380.889    873.85372 
   36450    286.90795   -4.7058925    62450.337    -18501.11    1778.8536   -20279.964    874.17562 
   36500    284.27235    30.486521     62425.27   -18599.247    1762.5127   -20361.759    872.65523 
   36550    284.62687   -112.80188    62182.557   -18611.108    1764.7108   -20375.819    870.51616 
   36600    283.27209   -236.55579     62250.29   -18664.312     1756.311   -20420.623    872.40098 
   36650    292.68277   -212.80482    62285.503   -18623.343     1814.658   -20438.001    873.10338 
   36700    285.37754    83.457417    62214.251   -18594.691     1769.365   -20364.056    872.78949 
   36750    283.89908   -226.22813    62469.236   -18554.326    1760.1984   -20314.525    876.26025 
   36800    287.75325   -183.86959    62200.691   -18586.197    1784.0946   -20370.291    873.61617 
   36850    278.52624   -31.301702    62315.222   -18619.533    1726.8863    -20346.42    875.94888 
   36900    289.51629   -60.513851    62312.653   -18605.141    1795.0256   -20400.166    877.77588 
   36950    290.16731   -41.686926    62268.885   -18574.905     1799.062   -20373.967    877.82294 
   37000    289.10804    118.54203    62186.166   -18550.332    1792.4944   -20342.826    878.27868 
   37050    291.04361    242.49506    62151.109   -18545.702    1804.4951   -20350.197    878.67941 
   37100    297.89057   -96.489026    62454.511   -18534.221    1846.9468   -20381.168    882.93439 
   37150     283.6672   -199.98514    62300.551   -18631.986    1758.7607   -20390.747    882.63917 
   37200    277.61019   -30.016137     62351.77    -18630.86    1721.2067   -20352.066    885.95237 
   37250    289.25026   -312.64941    62234.593   -18628.704    1793.3762    -20422.08    885.34715 
   37300    281.13347   -101.91451    62243.119   -18648.298    1743.0514   -20391.349    886.23555 
   37350    282.68188    25.812722    62354.951   -18611.637    1752.6517   -20364.289    887.75878 
   37400    286.91316    122.98464    62235.164   -18600.802     1778.886   -20379.688    887.03287 
   37450    285.16703    140.91962    62211.811    -18653.89    1768.0598   -20421.949    887.57652 
   37500    281.65207     59.61329     62501.16   -18643.586    1746.2667   -20389.853    890.72233 
   37550    280.99036   -11.264106    62568.379   -18619.945    1742.1641   -20362.109    890.99238 
   37600    281.45626   -149.16214    62540.366   -18592.272    1745.0527   -20337.325    891.28502 
   37650    278.91896   -47.202926    62361.141   -18587.461    1729.3213   -20316.782    890.67449 
   37700    276.71877     175.2734    62405.603   -18693.248    1715.6799   -20408.928    890.92828 
   37750    277.56699   -141.15659    62415.236   -18694.273    1720.9389   -20415.212     892.9926 
   37800    286.03947   -99.898605    62391.983   -18677.772     1773.469   -20451.241    892.54337 
   37850    287.70385   -109.43679    62386.126   -18668.963    1783.7883   -20452.751    893.42715 
   37900     283.2568   -91.111571    62242.956   -18619.456    1756.2162   -20375.673    894.09179 
   37950    280.11134   -42.934334    62170.407   -18634.042    1736.7141   -20370.756    895.15246 
   38000    281.85768    239.78809    62206.396   -18616.448    1747.5416    -20363.99    895.64961 
   38050    287.95443    142.01884    62305.214   -18591.883    1785.3419   -20377.225    897.51304 
[...]
   91550    290.79366   -77.901193    62239.974   -18583.867    1802.9454   -20386.812    2183.1235 
   91600    288.20796   -214.30493    62230.307   -18571.105    1786.9138   -20358.019    2184.3515 
   91650    286.98389   -58.659042    62277.167   -18590.675    1779.3245   -20369.999    2182.2909 
   91700    283.32165    283.54171    62175.346   -18634.635    1756.6183   -20391.253    2181.7869 
   91750    288.35811   -137.46331     62409.43   -18611.405    1787.8448    -20399.25    2187.5476 
   91800    292.77305    156.46066    62373.011    -18601.64    1815.2177   -20416.858     2191.531 
   91850    289.83069   -69.528491    62398.409   -18600.223    1796.9749   -20397.198    2191.5654 
   91900    284.58527    84.735937    62401.066   -18607.853    1764.4528   -20372.306    2194.6516 
   91950     284.5583    198.62069    62509.658   -18600.493    1764.2856   -20364.779    2196.7608 
   92000      290.693   -92.283744    62522.281   -18631.395    1802.3213   -20433.716    2197.3459 
   92050    285.52588   -4.4256537    62644.095   -18614.925    1770.2847    -20385.21    2200.3543 
   92100    286.17851   -68.701571    62421.019   -18656.668    1774.3311       -20431    2193.1866 
   92150    275.48435     341.1758    62419.151   -18657.627    1708.0263   -20365.654    2193.2737 
   92200    294.27721    280.82252    62413.768   -18548.184    1824.5437   -20372.728    2193.6619 
   92250    296.92747    156.57871    62532.251   -18518.356    1840.9756   -20359.332    2195.9821 
   92300    288.08601     241.4556    62638.096   -18471.181    1786.1577   -20257.339    2200.2615 
   92350    297.38162    137.36772    62643.557   -18443.473    1843.7913   -20287.264    2199.9435 
   92400      284.799    176.12465    62455.958   -18517.077     1765.778   -20282.855    2197.5599 
   92450    287.16779   -251.53267    62302.953    -18542.53    1780.4647   -20322.994     2197.394 
   92500    284.20709    282.16602     62384.47   -18563.117    1762.1081   -20325.226    2201.8017 
   92550    290.91298     311.5487    62317.206   -18556.753    1803.6852   -20360.438     2202.785 
   92600    283.69373   -46.005214    62141.924   -18566.863    1758.9252   -20325.789    2198.4771 
   92650     283.9634   -143.79299    62396.521   -18573.976    1760.5972   -20334.574    2206.2623 
   92700    288.82646   -414.23386    62488.469   -18563.358    1790.7486   -20354.106    2208.7138 
   92750      290.832    -125.0133     62488.16   -18585.442    1803.1831   -20388.625    2212.6865 
   92800    279.77996    151.71939    62629.718   -18619.211    1734.6595   -20353.871    2216.9626 
   92850    285.87145    41.525187     62672.26   -18574.118    1772.4273   -20346.545     2218.134 
   92900    286.18818    333.07096    62598.053   -18555.266     1774.391   -20329.657    2217.3325 
   92950      289.304     644.3599    62580.016   -18566.463    1793.7093   -20360.172    2217.5015 
   93000    283.48503    -395.0427    62418.964   -18580.318    1757.6313   -20337.949    2212.5607 
   93050    285.88845    -161.7983    62294.863   -18482.517    1772.5327   -20255.049    2209.2249 
   93100    292.16291   -555.36147      62145.6    -18483.01    1811.4349   -20294.445    2211.0958 
   93150    284.65348   -355.92829     62274.27   -18552.927    1764.8757   -20317.803     2214.352 
   93200    287.43327   -28.492976    62194.093    -18563.14    1782.1107    -20345.25     2213.646 
   93250    288.56441    -92.84231    62324.294   -18554.257    1789.1238   -20343.381    2217.8033 
   93300     284.8083     92.16998    62138.934   -18558.333    1765.8357   -20324.169    2216.6915 
   93350    284.38789   -170.38158     62313.62   -18565.156    1763.2291   -20328.386    2219.7244 
   93400    281.10144   -262.78182    62054.005   -18599.443    1742.8528   -20342.296    2214.9756 
   93450    282.37307    424.69973    62108.658    -18626.22     1750.737   -20376.957    2216.5785 
   93500    277.26929    178.13437    62167.548   -18641.126    1719.0932   -20360.219    2219.6159 
   93550    277.74857    23.473594    61985.598   -18749.722    1722.0647   -20471.786    2219.1901 
   93600    282.09813   -472.98586      61976.2   -18723.925    1749.0324   -20472.958    2222.5353 
   93650    276.73905    142.64099    61833.595   -18748.537    1715.8056   -20464.343    2222.1337 
   93700    277.40099   -116.18905    61948.954   -18669.484    1719.9097   -20389.394    2227.9612 
   93750     288.3981    101.28292    62037.098   -18677.841    1788.0927   -20465.933    2230.7538 
   93800     290.0064    177.12789    62532.043   -18612.507    1798.0643   -20410.571    2245.4773 
   93850    287.15729    -302.3952    62385.877     -18584.9    1780.3996     -20365.3    2245.3912 
   93900    283.86845    157.45189    62187.863   -18654.665    1760.0085   -20414.673    2243.2732 
   93950    279.93897   -11.036473    62152.724   -18701.704    1735.6454    -20437.35     2242.039 
   94000     282.9961    32.901597    62280.372   -18657.635    1754.5998   -20412.235    2246.4469 
   94050     280.8963    290.35346    62228.893   -18653.114    1741.5809   -20394.695    2248.1072 
   94100    282.84661    6.8364809    62202.228   -18598.278     1753.673   -20351.951    2249.9161 
   94150    284.64782   -387.33984    62211.481   -18615.463    1764.8407   -20380.303    2252.4826 
   94200    285.49693   -94.470975    62176.811   -18569.198    1770.1052   -20339.303    2256.6282 
   94250    289.23167   -39.752504    62049.255   -18595.808    1793.2609   -20389.069    2254.3208 
   94300    288.07692    191.70289    62097.521   -18510.375    1786.1013   -20296.476    2254.9634 
   94350    287.18511   -80.987241    62001.107   -18484.061    1780.5721   -20264.633    2254.1653 
   94400    283.78968    337.04427    62313.628   -18486.492    1759.5201   -20246.012    2265.7406 
   94450    289.91635   -452.89667    62208.445    -18484.44     1797.506   -20281.946    2264.4715 
   94500    292.52604     202.7129    62173.776   -18451.051    1813.6863   -20264.737    2265.3822 
   94550     283.3022   -88.252095    62024.752   -18501.709    1756.4977   -20258.206    2262.2342 
   94600    290.04957    329.55059    62029.965   -18548.558     1798.332    -20346.89     2265.558 
   94650     281.5016    131.96079    62179.381   -18515.238    1745.3338   -20260.572    2270.0807 
   94700    292.10937   -216.80199     62198.12   -18583.202    1811.1029   -20394.305    2272.5332 
   94750    292.67144     -76.4956    62268.516   -18565.581    1814.5878   -20380.168    2272.6899 
   94800     289.5192    131.93803    62305.187   -18525.764    1795.0436   -20320.808    2275.1784 
   94850    290.21262    301.73643    62390.714    -18564.27    1799.3429   -20363.613    2279.4403 
   94900    281.71409    91.957374    62409.845   -18499.142    1746.6513   -20245.793    2283.4502 
   94950    290.93054   -347.59353    62362.059   -18519.267     1803.794   -20323.061    2285.3037 
   95000    291.52914    420.18845    62268.433   -18503.977    1807.5054   -20311.483    2282.6823 
   95050    294.60898    82.757004    62428.323   -18446.669    1826.6007   -20273.269    2289.8809 
   95100    287.72252    354.75774    62554.746   -18557.551    1783.9041   -20341.455     2295.077 
   95150    294.04195   -16.305195    62534.174   -18549.924     1823.085   -20373.009    2296.5735 
   95200    285.44644   -94.106369    62523.225   -18551.556    1769.7922   -20321.348    2296.7775 
   95250    291.38253     51.02035    62501.525   -18554.165    1806.5965   -20360.762    2297.2586 
   95300    295.37634   -278.02835    62434.386   -18442.505    1831.3584   -20273.863    2295.0754 
   95350     292.9978   -95.772385    62410.834    -18562.01    1816.6112   -20378.622    2299.1398 
   95400    288.02835   -27.588561    62438.488    -18533.91    1785.8002    -20319.71    2298.7174 
   95450    290.64955   -101.81286    62147.268   -18527.943    1802.0519   -20329.995    2295.7772 
   95500    284.74751    212.76127    62033.556   -18539.327    1765.4587   -20304.786    2294.9834 
   95550    291.49591   -101.93685    62390.518   -18533.448    1807.2994   -20340.748    2306.0845 
   95600    289.11761   -32.188293    62440.737   -18523.908    1792.5537   -20316.461    2310.2845 
   95650    287.47021   -124.79039    62432.369   -18549.189    1782.3397   -20331.529    2311.0876 
   95700    293.44088   -46.309583    62466.238   -18585.666    1819.3584   -20405.024    2315.7377 
   95750    274.94504     44.71096    62396.342   -18620.956    1704.6826   -20325.638    2315.9594 
   95800    280.42916    204.36031    62577.554   -18634.093    1738.6846   -20372.778    2321.7244 
   95850    289.57724    119.65496    62640.308   -18601.568    1795.4035   -20396.971    2327.1933 
   95900     293.9661   -297.83943    62849.177    -18604.72    1822.6148   -20427.335    2331.4311 
   95950    289.08268    298.18728    62798.675   -18629.394    1792.3372   -20421.731    2331.9892 
   96000    284.71191   -441.78795    62848.035   -18697.278     1765.238   -20462.516    2337.4336 
   96050    273.83365   -302.37698    62508.315   -18716.607    1697.7919   -20414.399     2329.265 
   96100    292.75634   -24.217386     62642.08   -18607.757    1815.1142   -20422.871    2334.3051 
   96150    281.23418    96.806985    62487.622    -18626.44    1743.6758   -20370.116    2330.5139 
   96200    291.92418   -3.4471609      62437.9   -18643.931    1809.9547   -20453.886    2332.9225 
   96250    290.90042    79.547802    62330.809    -18638.62    1803.6073   -20442.227    2331.6898 
   96300     287.8876   -280.26504     62416.94   -18570.797    1784.9276   -20355.725    2336.5887 
   96350    288.54217    138.91444    62534.395   -18538.964     1788.986    -20327.95    2340.1262 
   96400    289.04045    217.62685    62387.938   -18547.608    1792.0753   -20339.683    2337.3919 
   96450    284.35265    108.13435    62389.174   -18533.455    1763.0106   -20296.465    2339.0878 
   96500    284.13984   -76.539607    62451.717   -18595.397    1761.6912   -20357.089     2343.672 
   96550    284.66081   -34.432141    62280.909   -18598.226    1764.9212   -20363.147    2339.1709 
   96600    284.20084    63.798329    62259.255   -18595.962    1762.0694   -20358.031     2337.596 
   96650    286.11781    -177.8983    62030.217   -18627.203    1773.9547   -20401.158    2332.9752 
   96700    282.48761   -126.00326    62044.135   -18707.819    1751.4472   -20459.266    2332.0397 
   96750    277.17748    125.00435    62090.864   -18742.437    1718.5239   -20460.961    2334.9436 
   96800    279.78952    16.056466    62093.815   -18716.094    1734.7188   -20450.813    2334.6486 
   96850    279.68792    347.83294    62298.595   -18648.865    1734.0888   -20382.953    2342.6738 
   96900    283.55803    205.77182    62204.191    -18646.67    1758.0839   -20404.754     2343.792 
   96950    290.44459   -159.01895    62197.338   -18652.713    1800.7811   -20453.495    2344.3372 
   97000    281.17712    405.07317    62018.956   -18642.255     1743.322   -20385.577    2342.6363 
   97050    286.50305    268.10172    62193.167   -18585.799    1776.3432   -20362.142    2349.8829 
   97100    282.36543   -32.375685    62278.766   -18664.782    1750.6896   -20415.472    2354.7825 
   97150    282.29213    78.452764    62097.126   -18636.549    1750.2351   -20386.784    2351.1613 
   97200    290.86411    139.07032    62392.245   -18665.295    1803.3822   -20468.677    2359.1887 
   97250    285.45284   -316.70978    62203.018   -18670.963    1769.8318   -20440.794    2355.9658 
   97300     287.9013   -249.37594    62349.665   -18647.569    1785.0125   -20432.582    2360.4399 
   97350    286.03218   -147.50947    62353.759   -18679.292    1773.4238   -20452.716    2361.6764 
   97400    277.74897    32.183327    62350.132    -18662.48    1722.0672   -20384.547     2361.304 
   97450    282.63172    369.19528    62341.152   -18643.415    1752.3407   -20395.756    2363.0546 
   97500    287.87274    177.00779    62595.246   -18543.933    1784.8354   -20328.768    2369.9111 
   97550    285.15146   0.99973311    62480.724    -18557.76    1767.9633   -20325.724    2368.0205 
   97600    281.52044   -174.83993    62397.777   -18611.803    1745.4506   -20357.254    2369.2753 
   97650    284.72596   -330.15069    62286.987   -18653.069    1765.3251   -20418.395     2367.147 
   97700    287.14061   -46.969197    62368.686   -18522.755    1780.2962   -20303.051    2370.1986 
   97750    282.22247     102.2552    62590.305   -18545.138    1749.8033   -20294.941    2378.2231 
   97800    293.77749    -370.1225    62372.756   -18525.015    1821.4454    -20346.46    2374.7487 
   97850    295.85613     246.4311    62333.513    -18504.62    1834.3331   -20338.954    2375.3354 
   97900    287.98675    32.774762    62542.866   -18480.907    1785.5423    -20266.45     2380.234 
   97950    293.18538   -97.904615    62558.666   -18504.736    1817.7743    -20322.51    2382.3639 
   98000    290.45136   -113.44253    62297.551   -18551.221    1800.8231   -20352.044    2375.0482 
   98050     284.4627    88.566502    62397.967   -18572.888    1763.6929    -20336.58    2379.6522 
   98100    281.70705   -575.67929      62247.6   -18583.571    1746.6076   -20330.179    2375.8771 
   98150    282.68802   -38.922294    62312.487    -18608.63    1752.6897   -20361.319    2376.9708 
   98200     285.4891     -282.954     62254.88   -18588.063    1770.0567    -20358.12    2375.9425 
   98250    282.06933    306.03673    62249.062   -18544.032    1748.8538   -20292.886     2377.712 
   98300     278.6215   -97.291477    62222.285   -18634.871    1727.4769   -20362.348    2378.9043 
   98350    291.09059    131.09966    62462.625   -18583.968    1804.7864   -20388.754     2385.575 
   98400    281.06573   -207.77434    62323.762   -18626.779    1742.6314    -20369.41    2381.7387 
   98450    291.35422    49.349763    62377.768   -18632.171    1806.4209   -20438.592    2383.9262 
   98500    287.58718    174.42987    62502.522   -18608.801     1783.065   -20391.866     2387.257 
   98550    283.02095    5.2482198    62687.951   -18629.659    1754.7539   -20384.412    2392.8123 
   98600    283.76658    121.25847    62644.307     -18645.4    1759.3769   -20404.777    2395.2955 
   98650    279.66043   -419.05607     62622.42   -18648.409    1733.9184   -20382.328    2394.9115 
   98700     277.8695   -258.27768    62286.534    -18656.52    1722.8145   -20379.335    2387.3161 
   98750    287.89798   -5.3397298    62044.084   -18655.845    1784.9919   -20440.837    2383.4573 
   98800    284.70879   -49.093939    62249.658    -18635.27    1765.2187   -20400.489    2392.8697 
   98850     288.0292   -22.069317    62143.136   -18704.144    1785.8055    -20489.95    2388.8297 
   98900    287.30196   -236.92508    62122.046   -18668.384    1781.2965   -20449.681    2391.6429 
   98950    284.37805   -85.144053    62052.781   -18658.248     1763.168   -20421.416    2392.0754 
   99000    283.54784   -170.75676    62243.362   -18661.591    1758.0207   -20419.612     2397.177 
   99050    284.07929    190.32626    62230.734   -18623.626    1761.3157   -20384.942    2398.7342 
   99100    281.60102   -71.222776    62366.644   -18616.025    1745.9502   -20361.976    2401.9644 
   99150    286.33159   -271.53938    62177.077   -18551.924    1775.2802   -20327.204    2396.6963 
   99200     282.7272    120.43257     62014.43   -18590.162    1752.9327   -20343.094    2392.3691 
   99250     297.2343     213.0109     62095.14    -18567.85    1842.8779   -20410.728    2395.1386 
   99300    290.85132    20.325193    62389.552   -18561.823    1803.3029   -20365.126    2403.0445 
   99350    290.61097    101.99706    62381.604   -18550.754    1801.8127   -20352.567    2403.8744 
   99400    288.64516    154.11212    62579.376   -18536.485    1789.6245    -20326.11    2409.9523 
   99450    295.98376   -70.719641    62369.944    -18436.04    1835.1244   -20271.164    2401.6815 
   99500    291.49618   -245.17143    62359.677   -18425.817    1807.3011   -20233.118    2404.3535 
   99550    304.53288    186.38251    62382.599   -18469.271    1888.1297   -20357.401    2403.9024 
   99600    291.98471    463.32565    62605.583   -18500.569      1810.33   -20310.899    2408.7597 
   99650    295.93647    67.051548    62564.093   -18457.952    1834.8312   -20292.783    2410.2559 
   99700    290.37421   -310.68386     62492.65   -18497.794    1800.3448   -20298.139    2410.0396 
   99750    289.53377   -117.34653    62428.591    -18521.96     1795.134   -20317.094     2410.766 
   99800    299.44267    323.80989    62358.153   -18533.245      1856.57   -20389.815    2411.0811 
   99850    288.00069   -90.845235    62457.884    -18536.52    1785.6287   -20322.149    2415.3981 
   99900    291.75935    39.730475    62299.605   -18580.347    1808.9327   -20389.279    2413.9325 
   99950    283.61651   -17.665021    62251.909   -18585.159    1758.4464   -20343.606    2412.6753 
  100000    290.04759    307.21072    62330.868   -18613.944    1798.3197   -20412.264    2416.9065 
  100050    291.61433    480.42901    62438.632   -18551.628    1808.0336   -20359.661    2423.5358 
  100100    290.07977   -38.158648    62418.057   -18522.476    1798.5192   -20320.995    2422.3752 
  100150    291.97332    14.808458    62412.454   -18506.619    1810.2593   -20316.879    2424.1058 
  100200    294.68063   -219.22386    62348.306   -18543.727    1827.0449   -20370.772     2421.831 
  100250    293.30408    341.22652    62364.781   -18538.139    1818.5102    -20356.65    2423.8613 
  100300    289.89278   -278.75144     62632.22    -18511.59    1797.3599   -20308.949    2433.4181 
  100350    288.86437   -210.17803    62559.379   -18556.173    1790.9836   -20347.156    2432.7965 
  100400    287.98973    373.35631    62496.142   -18516.092    1785.5608   -20301.653    2435.7366 
  100450    288.09041   -251.47819    62376.401   -18498.961     1786.185   -20285.146    2431.7386 
  100500     292.7537   -85.578178    62211.037    -18451.03    1815.0978   -20266.128    2430.5695 
  100550    287.70566   -139.97254    62103.721     -18560.4    1783.7995   -20344.199    2427.5325 
  100600    283.82476   -110.89131    62134.785   -18564.342    1759.7376   -20324.079    2429.8344 
  100637     287.4508   -188.49751    62207.937   -18603.794    1782.2194   -20386.013    2431.9345 
Loop time of 113.138 on 4 procs for 100000 steps with 2081 atoms

Performance: 763.672 ns/day, 0.031 hours/ns, 883.880 timesteps/s
99.7% CPU use with 4 MPI tasks x no OpenMP threads

MPI task timing breakdown:
Section |  min time  |  avg time  |  max time  |%varavg| %total
---------------------------------------------------------------
Pair    | 90.056     | 90.522     | 91.265     |   5.1 | 80.01
Neigh   | 12.156     | 12.191     | 12.22      |   0.7 | 10.78
Comm    | 5.7256     | 6.3607     | 6.7129     |  15.1 |  5.62
Output  | 0.0969     | 0.10199    | 0.1166     |   2.6 |  0.09
Modify  | 3.2035     | 3.368      | 3.5768     |   8.2 |  2.98
Other   |            | 0.5931     |            |       |  0.52

Nlocal:        520.250 ave         529 max         513 min
Histogram: 1 0 0 1 1 0 0 0 0 1
Nghost:        1175.50 ave        1190 max        1160 min
Histogram: 1 1 0 0 0 0 0 0 0 2
Neighs:        0.00000 ave           0 max           0 min
Histogram: 4 0 0 0 0 0 0 0 0 0
FullNghs:      15108.5 ave       15520 max       14809 min
Histogram: 1 0 1 0 1 0 0 0 0 1

Total # of neighbors = 60434
Ave neighs/atom = 29.040846
Neighbor list builds = 12952
Dangerous builds = 0
undump 1
reset_timestep 0
#unfix 2
#unfix 3
#unfix 4

################################################
####### Insert Ice #########
################################################

log log.${NAME}.eq_all
log log.longseed_284K_1atm_ML.eq_all
