LAMMPS data file via write_data, version 29 Oct 2020, timestep = 200000

4608 atoms
1 atom types

-0.006706962210788703 50.913826962209505 xlo xhi
-0.006706962210788703 50.913826962209505 ylo yhi
-0.007545332487126188 57.27805533248734 zlo zhi

Masses

1 18.015

Atoms # atomic

5 1 1.8112851003384456 1.7096944886808338 1.5182275640499203 0 0 0
13 1 8.11681269449835 1.6901162563975223 1.9042740656031054 0 0 0
2619 1 47.46749111678102 25.22973482849172 9.208639020537586 0 0 0
132 1 2.7737072067735986 16.311154317861156 0.34428359519167356 0 0 0
21 1 14.305126180074952 1.6557864899629382 1.345325562027751 0 0 0
51 1 41.5538697745294 0.13834261131476921 3.007416099517753 0 0 0
164 1 29.04481639638149 15.77430197714919 0.2678580289867964 0 0 0
29 1 20.33195661411536 1.5143600080049082 1.0527855455497943 0 0 0
766 1 46.17923493864136 24.257614176041834 17.61384730170084 0 0 0
37 1 26.64503662695803 1.6721854262511415 1.519598381021714 0 0 0
45 1 33.611281890923195 1.5619185845446266 1.3703226943904985 0 0 0
225 1 25.770090507576395 19.103850233652274 0.08946901291287657 0 0 0
53 1 39.663497948799886 1.639597346472472 1.659244779485218 0 0 0
2835 1 15.89127515804922 25.38432387452357 16.26516399597838 0 0 0
61 1 46.06225207418697 1.7346166431765102 1.624290501581295 0 0 0
8 1 5.1463944858637305 4.863550828282457 2.0329780053785926 0 0 0
10 1 6.517099589455026 3.1222529518648456 3.4845055462588497 0 0 0
16 1 11.73387990372675 5.202842279328525 1.8535467950453834 0 0 0
83 1 16.0171417908419 6.34039752807435 3.2973933671098488 0 0 0
24 1 17.682910432900684 4.878284065807413 1.5394968464290024 0 0 0
34 1 25.082003383719186 3.179687372695604 3.1620238465392787 0 0 0
32 1 23.752929670997272 4.419567881080413 1.379864221760564 0 0 0
545 1 25.083319945209833 0.2673167980302907 12.88986977960016 0 0 0
40 1 30.221472758694787 4.66270412592295 1.7425218622402843 0 0 0
48 1 36.32318041900689 4.852722677636292 1.6462171982912275 0 0 0
315 1 47.62639590412965 0.08263197787018549 9.359364657364294 0 0 0
56 1 43.05578945552192 5.042662736673843 1.5149272719949203 0 0 0
2321 1 13.031252084131173 25.288024185173732 0.10735303017251142 0 0 0
281 1 18.98160014556653 0.0745753156814583 6.064117704957488 0 0 0
64 1 49.65749671126176 4.729699464115241 1.2385059436949617 0 0 0
283 1 22.067430592639028 0.43574769851062506 9.525876109392673 0 0 0
69 1 1.9279408855263813 8.019396439307323 1.879279189041789 0 0 0
273 1 12.414356971382933 0.2099531525177838 6.18590034379772 0 0 0
77 1 8.120893519501008 8.030177038613555 1.5015714401920923 0 0 0
172 1 35.094385763974245 16.03267826980539 0.31847341532082774 0 0 0
85 1 14.4571445386057 8.182881567726161 1.9516841556130033 0 0 0
188 1 47.572163487455825 15.860625776712638 0.23466125934076998 0 0 0
93 1 21.054525939282637 7.5781443669639685 1.2721101230177494 0 0 0
90 1 19.561296654957598 9.335702836008823 3.015872671117316 0 0 0
91 1 22.22079136887878 5.957118745920062 2.939303544741224 0 0 0
2865 1 38.52856275886097 25.30807389241198 12.44711413733123 0 0 0
101 1 26.943467979184767 7.903512133444731 1.4557814370739648 0 0 0
109 1 33.20453724854778 7.8976188289697955 1.4761249099432407 0 0 0
265 1 6.48434968521145 0.3747046603197575 6.264793626695417 0 0 0
209 1 12.94703413692702 19.21274062613798 0.21989338096064098 0 0 0
117 1 39.7359427727704 7.955797458254398 1.3731642005682332 0 0 0
125 1 46.47719852692808 7.764874296810994 1.87287003132186 0 0 0
2315 1 9.502078761734241 25.14229979058349 3.3302586819251245 0 0 0
66 1 0.2471302253967665 9.541838209029535 3.3820182922185986 0 0 0
561 1 38.170707195502516 0.11144733192068657 12.56786801703777 0 0 0
72 1 4.6876404278267625 11.093666180568697 1.6898880360569417 0 0 0
539 1 22.363225008388877 0.30095268529175945 16.22736292455439 0 0 0
80 1 11.377475550274026 11.35923593104164 1.9277915639444776 0 0 0
82 1 12.939805147212127 9.790947784320162 3.587316737034908 0 0 0
19 1 15.95900775858697 0.002645490079624283 2.640520516517732 0 0 0
88 1 17.599412076822066 10.958961340300164 1.667675564314456 0 0 0
249 1 44.44978518244524 19.071189890210725 0.022732853218811966 0 0 0
96 1 23.840083363475646 10.898433819919457 1.3994225450494084 0 0 0
104 1 30.321185456335673 11.343005052804093 1.6810668524417773 0 0 0
2817 1 50.80381337815341 25.282905034681878 12.505102398850697 -1 0 0
112 1 36.37389400962728 11.207958853837956 1.4502430687643086 0 0 0
2323 1 15.824138293136427 24.879043187369422 3.295581184539024 0 0 0
120 1 43.20620968720503 11.289652713101269 1.9216408725210614 0 0 0
128 1 49.53989412208733 11.129502862966795 1.869595201097581 0 0 0
133 1 1.3490918027880596 14.458293719048212 1.8457209806921935 0 0 0
141 1 8.278549424060417 14.473708004700999 1.7066925013373064 0 0 0
73 1 6.390505062574754 6.364408476192566 0.12703369150906715 0 0 0
121 1 44.67217592671814 6.3397067316894695 0.047560458594495696 0 0 0
149 1 14.648310407897853 14.646750899507222 1.7980337931629033 0 0 0
147 1 16.06420145933373 12.536927605943864 3.2012769624302644 0 0 0
157 1 20.836167390492733 14.143926170486612 1.3584987599385117 0 0 0
12 1 9.872730373167922 3.3109772578359897 0.42970564280278967 0 0 0
148 1 16.276792752835195 16.10880040560117 0.18474530403286293 0 0 0
165 1 26.9899057430947 14.243147299973515 1.6733684680512524 0 0 0
2611 1 41.68186089086332 25.345616418956148 9.570488031214632 0 0 0
244 1 41.502153208741134 22.131848035781044 0.24273442308915966 0 0 0
173 1 33.58067842858404 14.287797880043497 1.7151046744685272 0 0 0
2603 1 35.03748690259785 25.193584778583006 9.763785396688908 0 0 0
181 1 40.136849356143045 14.112450673622279 1.384429932335095 0 0 0
186 1 44.33190959029707 16.032166624813872 3.2762178926631202 0 0 0
189 1 45.93241783404018 14.31071588381582 1.9366445750544157 0 0 0
130 1 50.86434005477026 16.15640358924893 3.4509778742492854 -1 0 0
136 1 4.754172623297784 17.72365145529305 1.5268937621549747 0 0 0
129 1 50.59165730399866 12.766099193233305 0.012073627274947978 -1 0 0
236 1 34.907356444065655 22.30460659185757 0.28970071926787394 0 0 0
144 1 11.35574605173598 17.564271488884785 1.9132567824399958 0 0 0
152 1 17.745915515437186 17.725424731864532 1.5479901518969832 0 0 0
52 1 41.52792485577639 2.9580751682750424 0.24610072555730073 0 0 0
160 1 24.019227912976493 17.56259352649233 1.8764231830654483 0 0 0
162 1 25.62185974216249 15.629745005024782 3.515501603446768 0 0 0
168 1 30.356917729495585 17.671375429324037 1.7499621574490114 0 0 0
170 1 31.74502807217825 16.088329092250092 3.448379220469438 0 0 0
176 1 36.75673894959009 17.35225350759634 1.859010317932638 0 0 0
178 1 38.34882045159155 15.465460870913917 3.2931660762076813 0 0 0
184 1 42.971673727511686 17.476219228383084 1.7454931550387462 0 0 0
192 1 49.374408342087364 17.67514557057337 1.8721527507123708 0 0 0
251 1 47.813666428919646 18.984876845383983 3.4213347484549765 0 0 0
197 1 1.4107838748420962 21.088963602849244 1.7838782527193868 0 0 0
569 1 44.71619998466562 0.18442982264089852 12.891892083467061 0 0 0
140 1 9.845655594486141 16.15457214217116 0.1971426804972017 0 0 0
205 1 8.056152421349434 20.38232924501934 1.5851532939238133 0 0 0
145 1 12.776148848396135 13.09782009490397 0.37563912216972734 0 0 0
884 1 41.26128758544709 9.530683934488964 18.995008906227685 0 0 0
213 1 14.431526106416795 20.772294168820554 1.8247727969091077 0 0 0
221 1 20.85172017433535 20.8567324719651 1.5803110576982393 0 0 0
219 1 22.150574916894914 19.35135932286058 3.2779078518567157 0 0 0
229 1 26.881400533204886 20.98754166411701 1.9806921246320046 0 0 0
226 1 25.578106587618002 22.65544503462009 3.5274276471177433 0 0 0
227 1 28.694271801826314 19.377877880391875 3.1355844143592737 0 0 0
237 1 33.3730288351135 20.534887842905757 1.8451350815874463 0 0 0
235 1 35.043756444777046 19.06823467692319 3.3531328636686832 0 0 0
245 1 39.90786141982704 20.710307656860255 1.6390115021025882 0 0 0
243 1 41.50002220530769 19.15296541668559 3.304284106211844 0 0 0
253 1 46.25052556816095 20.451608661817517 1.6624649214410911 0 0 0
758 1 39.69875188570005 23.951075051550696 17.25650581153263 0 0 0
200 1 4.892821759526117 24.040512179770886 1.2426711941405135 0 0 0
208 1 11.019335935125367 23.590212149861507 1.777813812507404 0 0 0
2595 1 28.44540894518824 25.320332218936464 9.868655568045305 0 0 0
216 1 17.81581758285958 23.59313268992208 1.9910933611773889 0 0 0
218 1 19.355157163957486 22.23875054687555 3.278272137411362 0 0 0
224 1 24.268084583184518 24.01677908374244 1.6727922789109382 0 0 0
232 1 30.4774896977564 24.065464749774527 1.8498139460819794 0 0 0
234 1 31.859566453464325 22.348074191882215 3.2428845389326204 0 0 0
240 1 36.61838042642434 23.976118043470017 1.669497220803872 0 0 0
833 1 50.88729374983478 6.102802819082506 18.919080342835763 -1 0 0
248 1 42.89827257969483 24.14555487424007 1.492625085831715 0 0 0
256 1 49.33589368785894 23.926024378723127 1.4266082602712042 0 0 0
65 1 0.14873839765892805 6.58226478327992 0.083367828900326 0 0 0
241 1 38.051970412646654 18.90994669925777 0.07524590220560595 0 0 0
7 1 4.688939759753155 1.7303196771173281 4.7945904622484266 0 0 0
15 1 11.336354329552046 1.8016714667906855 4.202895483788649 0 0 0
23 1 17.42637375998924 1.674314380221097 4.278758288537965 0 0 0
31 1 23.783689976774415 1.2126324825098138 4.566798270463031 0 0 0
233 1 31.912754125546897 19.09018623654204 0.18810315585512535 0 0 0
39 1 30.45266965744034 1.5977064298285995 4.797518853692489 0 0 0
292 1 28.71962192395898 2.9556734376711917 6.424963001912722 0 0 0
945 1 38.445412880504364 12.668331790074188 18.935014174514784 0 0 0
42 1 32.32596006408059 3.1329611447059262 3.283983298457366 0 0 0
47 1 36.60507061744198 1.1146032911239854 4.719145618632414 0 0 0
1009 1 38.38693753292148 19.104030870209975 18.572968737359215 0 0 0
55 1 43.10074443071292 1.7355503846290434 4.531535344295592 0 0 0
2577 1 12.611630622046283 25.31283516123726 6.427620928660585 0 0 0
63 1 49.60626431272449 1.7277590266337137 4.447153129059322 0 0 0
116 1 41.64116401419578 9.914084241243014 0.15836972980166725 0 0 0
2 1 0.5425720302483543 3.419507517091911 3.173516645970399 0 0 0
6 1 1.8777008369187018 4.866113868127558 5.122475199804892 0 0 0
260 1 3.3103174540073828 3.369949223742575 6.640437770026285 0 0 0
14 1 8.003697374396188 5.078187184228509 4.9529432372461955 0 0 0
75 1 9.532478351759723 6.474706559106922 3.2726229004276313 0 0 0
18 1 13.374987254319459 3.4534476234879916 3.066308391332192 0 0 0
22 1 14.567703865536593 4.896288729088932 4.997311911729718 0 0 0
276 1 15.78327825499515 2.874128615300257 6.196101790007045 0 0 0
26 1 19.254158810196298 3.1841164900499646 2.8225760525094707 0 0 0
30 1 20.631777161811065 4.604337216089858 4.614525772364141 0 0 0
38 1 27.11356944266217 4.376456572680123 4.802953939109397 0 0 0
46 1 33.66154553546832 4.73528027247579 4.9262443368358175 0 0 0
50 1 37.96042424600856 3.0384663270375167 3.3101330850506985 0 0 0
54 1 39.572203634059676 4.676103554491417 4.703016070299786 0 0 0
58 1 44.721675287845954 3.2298517220920253 3.1685904612078466 0 0 0
62 1 46.27207069082699 4.696811334707699 5.01382286413428 0 0 0
321 1 0.10493731119463234 6.381863648502964 6.39822072912653 0 0 0
67 1 3.446255294134227 6.404167268652499 3.4518881909543935 0 0 0
71 1 4.866048281670835 7.992053820560471 5.059655830079274 0 0 0
74 1 6.554713422465681 9.605091867871266 3.2624778803294703 0 0 0
79 1 11.178280160142513 7.874113230528353 4.670351049598293 0 0 0
337 1 13.141492345404137 6.854504612411886 6.404127277096611 0 0 0
87 1 17.908267915738115 7.778620883417743 4.44108107601203 0 0 0
95 1 23.855739646982705 7.708721556125172 4.638702008314575 0 0 0
98 1 25.274917615047077 9.399144806037617 3.0328354369989534 0 0 0
99 1 28.471792248522963 6.245476131556381 3.107869009917287 0 0 0
103 1 30.061706818136006 7.681214349951108 4.8292214182762585 0 0 0
107 1 34.67126504435424 6.291719602523355 3.008740559013102 0 0 0
111 1 36.53556093123649 7.87842855683353 4.2373583847795775 0 0 0
115 1 41.24726466725119 6.35910264597086 3.0828247572549925 0 0 0
119 1 42.63208616379508 7.889512738518451 4.755469116942313 0 0 0
123 1 48.00974814506171 6.040337382763552 3.3088290643746534 0 0 0
127 1 49.45990547553788 7.899898018772338 4.933732907723688 0 0 0
70 1 1.702302136329056 11.211864430264718 4.80359190111494 0 0 0
131 1 3.249868652597591 13.059481088338506 3.23661054246817 0 0 0
324 1 3.385619950368568 9.830676876950806 6.413996579513584 0 0 0
78 1 7.874191771477385 11.048471510654265 4.8729207385192534 0 0 0
86 1 14.804358598227923 11.157745247023348 5.226703224479086 0 0 0
340 1 16.543999051856893 9.477728534129836 6.569435043113836 0 0 0
94 1 20.856028974926968 10.846823049754104 4.621113541249052 0 0 0
155 1 22.272699912349957 12.360667968856042 3.007031362649009 0 0 0
417 1 25.39074871726425 12.702023952394798 6.57358079910524 0 0 0
102 1 26.804828233047957 11.30544222105126 4.747808302804892 0 0 0
106 1 31.688347036563655 9.385296390947621 3.330407191783242 0 0 0
110 1 33.39955396918613 11.288001692405695 4.92535945939721 0 0 0
364 1 35.189264407131844 9.533061929865374 6.150860167183394 0 0 0
114 1 38.29549574168077 9.53022350342557 2.785500319947246 0 0 0
118 1 39.5454884689791 11.178730968684095 4.749311264258578 0 0 0
122 1 44.805417639922126 9.189854652054994 3.423643895397633 0 0 0
126 1 46.18425899501764 11.222256597782334 4.786012846795806 0 0 0
187 1 47.9903272330461 12.833982005299267 3.4043188152852224 0 0 0
135 1 4.945908290478286 14.79113471727654 5.079159059762629 0 0 0
138 1 6.595415407496855 16.018090568370074 3.1191818518076713 0 0 0
139 1 9.579164909635137 12.618057354832116 3.504161229771178 0 0 0
143 1 11.275224325132918 14.183772923914473 4.960613573325747 0 0 0
151 1 17.63399087698026 14.260991576863518 4.776001291158697 0 0 0
159 1 23.6302245508047 14.02906670941177 4.79710460951847 0 0 0
163 1 28.61878110369795 13.01681165450033 3.311276116535204 0 0 0
167 1 30.407184572864868 14.315443449386393 5.064010874417538 0 0 0
171 1 35.21063498678062 12.916038566829556 3.603815344935039 0 0 0
175 1 36.84678619379258 14.553305982302875 5.29895998781056 0 0 0
433 1 38.096765938412375 12.554096611508557 6.651578234565021 0 0 0
179 1 41.43584089568233 12.88582184070301 3.4808576350159144 0 0 0
183 1 42.888493048207835 14.33970394325658 4.850250868585155 0 0 0
444 1 47.413402613887854 15.973371772276426 6.49287790168319 0 0 0
191 1 49.2717468101128 14.56114749590831 4.895870241892604 0 0 0
134 1 1.8870002476051333 17.889254468156615 4.859320925788117 0 0 0
142 1 7.931895258986946 17.802587683963775 4.749962054590937 0 0 0
146 1 12.772715024187443 15.828962638001277 3.3908843749244086 0 0 0
150 1 14.3554797021887 17.483174145565286 4.876155277337789 0 0 0
211 1 15.863712023125517 19.033425401239942 3.143025032127958 0 0 0
473 1 18.9917119344948 19.109505269417486 6.131418286762308 0 0 0
154 1 19.20408358148154 15.79094134664637 3.023237629642642 0 0 0
158 1 20.602668001086837 17.531654751877998 4.651179510516486 0 0 0
412 1 22.259891577335825 16.00372604270679 5.918831862801453 0 0 0
166 1 27.585489123449047 17.545747068915365 4.821113531021969 0 0 0
174 1 33.325652489855045 17.66397784695827 5.069815315610829 0 0 0
428 1 34.82859732030295 16.021778136906757 6.73560236339441 0 0 0
182 1 39.36952242345508 17.53757070513669 4.501827835329015 0 0 0
436 1 40.91909494775419 15.859498361835355 6.15765818805187 0 0 0
190 1 45.94275692767438 17.55604425990542 4.83912419921812 0 0 0
449 1 0.05677442892392946 18.99478724845308 6.856692356151184 0 0 0
194 1 50.595564750878296 22.259120863950947 3.4406227665735716 -1 0 0
195 1 3.165520038255296 19.286920451100254 2.8782217890339954 0 0 0
199 1 4.96843899941972 20.673018379550083 4.402316733691607 0 0 0
203 1 9.710477932907452 19.266097962346162 3.3333933312871387 0 0 0
202 1 6.535086667090587 22.32602846203503 2.6841597748735238 0 0 0
207 1 11.159588434309043 20.656486308126123 5.010572896295926 0 0 0
215 1 17.625668944553215 20.608020535044368 4.481982158370319 0 0 0
223 1 23.72475431028954 20.89481778446538 5.126936854956376 0 0 0
481 1 25.34721399298994 18.888998508499 6.3072063988692975 0 0 0
231 1 30.017513072746695 20.926713566896616 4.716305179124312 0 0 0
489 1 31.44921918982618 19.25753971326872 6.360303374400578 0 0 0
492 1 35.24881923217099 22.295715050565743 6.562948495132065 0 0 0
239 1 36.566965133221416 20.687813329223946 4.709104570853541 0 0 0
497 1 38.14421134923559 19.197056522810794 6.40861354741856 0 0 0
247 1 43.114531854241775 20.781267434479975 4.729805327658439 0 0 0
250 1 44.48274024235559 22.20254356073756 3.0106754419019492 0 0 0
255 1 49.47748136373313 20.405809428247434 4.993509598187825 0 0 0
198 1 1.7082749531964767 23.7120347874297 4.620507393162199 0 0 0
206 1 7.798876394570004 23.558870065108373 4.828748560123822 0 0 0
210 1 12.200314329632688 22.13181645458161 3.415469191201085 0 0 0
214 1 14.043230421970582 23.229705204312783 5.051991175026564 0 0 0
2819 1 2.871287524006373 25.42945755035248 15.511172776901075 0 0 0
222 1 20.951817931714427 23.899926718055873 4.692690787708377 0 0 0
476 1 22.066792497399536 22.289453904517774 6.760114222052139 0 0 0
230 1 27.15374113231128 24.402842789171174 4.996001821416888 0 0 0
484 1 28.82038615932916 22.62120166318972 6.662969105527945 0 0 0
238 1 33.591725581488646 23.72899004323584 4.761733594720141 0 0 0
313 1 44.6002905044391 0.024268019422749275 5.862868592446126 0 0 0
242 1 38.23141112474404 22.388662190401007 3.294803695959522 0 0 0
246 1 39.78900981523209 23.812380790478183 4.767050120670933 0 0 0
36 1 28.530919126779935 3.189544911167224 0.06454335494672321 0 0 0
254 1 46.22326616509315 23.82761675050898 4.664167937752406 0 0 0
537 1 18.979945552412573 0.22392817678289353 12.7614270398425 0 0 0
261 1 1.5709866917838855 1.7975654329792559 7.958393960384791 0 0 0
137 1 6.2379731883025515 12.709952952229845 0.19223678839381142 0 0 0
269 1 8.292491228135987 1.8823951489056021 7.729456668687683 0 0 0
277 1 13.907019603109056 1.551612797626107 7.990063931745641 0 0 0
275 1 15.922985407313755 0.1321577536055901 9.11796440206708 0 0 0
285 1 20.322192516861303 1.9991313499247463 7.628910684876374 0 0 0
284 1 22.320741654685424 3.0185748068418503 6.062319302368187 0 0 0
293 1 27.069826840937946 1.1929705273421063 8.121615392376558 0 0 0
301 1 33.400777403849446 2.01697830428611 7.864036318545393 0 0 0
300 1 35.63965253112448 3.3938031462762437 6.305341526758073 0 0 0
948 1 41.49900183277006 15.850770882435947 18.951278341618462 0 0 0
309 1 39.95498762205878 1.8400382856090085 7.68984044878602 0 0 0
317 1 46.20285464030766 1.746499208173424 7.4714123224729985 0 0 0
316 1 48.0632272295903 2.989201720714107 6.206441758813905 0 0 0
264 1 4.9846255016542 5.142906808634268 7.94923522898428 0 0 0
329 1 6.571309785036793 6.868396126578495 6.55829054363566 0 0 0
268 1 9.920754741072686 3.549006005416191 6.190935997176379 0 0 0
272 1 11.398121886007054 5.11320204037981 7.83059942180691 0 0 0
280 1 17.55132429355927 4.9535790160395745 8.059656691532275 0 0 0
288 1 23.840012961569375 4.5743182531767665 8.01907507476723 0 0 0
296 1 30.22374648687471 5.058458786733037 7.702801553694244 0 0 0
355 1 28.723882784669154 6.511430618090469 9.443299827571542 0 0 0
304 1 37.08899628443754 5.150383695501038 8.054322703761862 0 0 0
308 1 41.439663020875 3.4340190392154075 5.934372139542636 0 0 0
312 1 42.965243166298976 4.865267674112161 7.748300461104204 0 0 0
314 1 44.629423090041456 3.2546498350918567 9.426131931034812 0 0 0
320 1 49.246334937346646 4.835456548794634 7.901699808116511 0 0 0
325 1 1.7310643567881245 7.982532558665356 7.921590047163907 0 0 0
333 1 8.115246891395296 8.358578275691222 8.096402639760356 0 0 0
341 1 14.496271169995907 8.25558096483784 8.313968048584718 0 0 0
345 1 19.161281261429338 6.444967700877629 6.484797333048238 0 0 0
349 1 20.86059256748959 7.791429295777726 8.143528158469133 0 0 0
353 1 25.811491077409705 5.970687504706221 6.302998476988659 0 0 0
357 1 26.944663204443973 8.170266241789939 7.997024572811105 0 0 0
361 1 32.16849702566222 6.372381794337046 6.267421987360192 0 0 0
356 1 28.527057939061358 9.688638522940682 6.305508850222584 0 0 0
365 1 33.55998509149315 8.055115476377837 7.8441085881879795 0 0 0
369 1 38.19013495439418 6.567735429142979 6.023359380264329 0 0 0
373 1 39.6729740343835 8.203841428395988 7.623004111443178 0 0 0
377 1 44.41552467321486 6.190316816282788 6.136585669015411 0 0 0
381 1 45.82770893385825 7.925417331360536 8.081656562178884 0 0 0
379 1 47.74559198598364 6.654751540698983 9.42945705084348 0 0 0
385 1 50.783451027186715 12.536163857696756 6.113234276718742 -1 0 0
387 1 3.078000879198002 12.666266471862441 9.56509105215349 0 0 0
328 1 4.941166001244671 11.23602166339328 8.275951721517655 0 0 0
393 1 6.489532987984237 13.028043659660469 6.591742041332367 0 0 0
332 1 9.74056063636257 9.53454217535893 6.451131851478645 0 0 0
336 1 11.401272358634907 10.870626441171144 8.129519352640054 0 0 0
401 1 12.80510007272866 12.750325727506706 6.567307582225748 0 0 0
344 1 17.8088202208013 11.373309347924154 8.435452196210937 0 0 0
348 1 22.332464870942612 9.322693050392804 6.457049159681501 0 0 0
352 1 23.806899020508734 11.043624989788842 8.170930249789244 0 0 0
360 1 30.13416988167484 11.18362247509951 8.091096939370008 0 0 0
368 1 36.43575010562894 11.248652696854453 8.035166610457026 0 0 0
372 1 41.221088122025435 9.710096601446043 6.137929115251544 0 0 0
370 1 38.177634115067136 9.717241978606728 9.280175407400382 0 0 0
376 1 42.90788575993621 11.182123905782737 7.840927402341803 0 0 0
441 1 44.64950180180422 12.804861917814696 6.434358002377574 0 0 0
380 1 47.575429367139506 9.409106931859752 6.358102088539446 0 0 0
384 1 49.179732059982285 11.038427241577214 7.904928973886238 0 0 0
389 1 1.663382513072941 14.096028951809227 7.744230684821711 0 0 0
397 1 8.048284624577015 14.34329065422836 8.107147190481708 0 0 0
405 1 14.124032799179753 14.475566706187374 8.016130651069748 0 0 0
409 1 19.264358624578378 12.382732117579724 6.358814048076036 0 0 0
413 1 20.969729705365364 14.18317481892733 7.638099585890606 0 0 0
421 1 27.09992696784824 14.347754593344744 8.209695975620143 0 0 0
425 1 31.86142840513823 12.62670470208054 6.630911417449341 0 0 0
429 1 33.18384135408242 14.34227241006259 8.17488967483961 0 0 0
427 1 34.78387767895728 12.877621896196613 9.670239152430604 0 0 0
437 1 39.79338743588917 14.278686445343462 8.099088814651715 0 0 0
445 1 45.658957600151126 14.397620699659557 8.288747365155583 0 0 0
386 1 0.027968996566418575 15.136028660233853 9.501532864031441 0 0 0
451 1 3.2977363334030554 18.841064295415613 9.686461168386467 0 0 0
388 1 3.0761939446254107 15.923436747943303 6.519723134114273 0 0 0
392 1 4.929344003600407 17.337981467230488 7.816179336444661 0 0 0
396 1 9.447969239467357 16.09128875786795 6.318282473749138 0 0 0
400 1 11.374539115886511 17.490561868351122 7.927257491383128 0 0 0
404 1 15.794208528801189 15.664306705090832 6.29158864814823 0 0 0
408 1 17.112870372787345 17.388829893027363 7.907165193436381 0 0 0
416 1 23.824680702755035 17.24482984939161 7.784168313621741 0 0 0
420 1 28.850464295494184 15.820970679158291 6.651890985620393 0 0 0
424 1 30.368544923964105 17.781216312854983 8.267687413937704 0 0 0
426 1 31.632633142977365 15.849635091062439 9.84258275386819 0 0 0
432 1 36.415829661654456 17.791008864201633 7.975601220880428 0 0 0
434 1 38.27838436713628 16.156431658199022 9.454066831447715 0 0 0
440 1 42.72031412980921 17.67939432363288 7.406412058692353 0 0 0
442 1 44.47092600951325 16.357958524608904 9.59760048487157 0 0 0
505 1 44.60000433395717 19.134090046123124 6.32638849266771 0 0 0
448 1 49.420412331095946 17.197736962932225 8.185604510349544 0 0 0
453 1 1.9479206582793733 20.629638506271554 8.148667744278518 0 0 0
452 1 3.4455996350698492 22.244463573053157 6.282567439183279 0 0 0
450 1 50.791636822576386 22.347415744753494 9.668040355741647 -1 0 0
457 1 6.3524875697014265 19.212099741136463 6.364341864537536 0 0 0
461 1 7.936641034459663 20.695959553100607 7.9997255164223215 0 0 0
465 1 12.804912166717221 19.100982632756107 6.337168728248083 0 0 0
469 1 14.373613252354797 20.747680671728414 7.987603823313006 0 0 0
477 1 20.3561708176519 20.49285105301073 7.964072678432198 0 0 0
475 1 22.051293849716213 18.85355707442164 9.648949052223829 0 0 0
485 1 27.2261610654089 20.46715607035239 7.861231400984661 0 0 0
493 1 33.42067845714682 20.8064773851634 8.097140678960686 0 0 0
499 1 41.83593897809389 18.936306418961966 9.64559609750911 0 0 0
501 1 40.0450621263043 20.224568331646605 7.995488111247504 0 0 0
500 1 41.34264661808301 21.989782453725322 6.3653284938972385 0 0 0
509 1 46.07161694757055 20.4671830308571 8.051562132836796 0 0 0
456 1 4.596675185988959 24.100785210441483 7.9861909929345245 0 0 0
257 1 50.82188814136808 0.29045113051723337 6.348815775992699 -1 0 0
460 1 9.365145692275757 22.154210944714627 6.40088792310581 0 0 0
464 1 10.795697316747416 23.803741215305305 8.118145692709566 0 0 0
466 1 12.853947623432415 22.555581552434955 9.418127475317926 0 0 0
468 1 16.03350218063021 22.08863250570791 6.470481982778206 0 0 0
472 1 17.423944322245166 24.047833114809524 8.069834288191068 0 0 0
474 1 18.812993631974134 22.480776955848107 9.79172931159558 0 0 0
480 1 23.41825491741269 24.01054754358197 8.242953060043828 0 0 0
750 1 33.74518451724636 24.47754188880802 17.667408487315637 0 0 0
488 1 30.54607434617682 24.17948359006165 8.10866548518207 0 0 0
490 1 31.927202345253363 22.44377152375485 9.586187495051059 0 0 0
496 1 36.498554382451545 23.717024363545114 8.158319083856563 0 0 0
498 1 38.44935486060314 22.047411161484305 9.369064736566983 0 0 0
193 1 0.045835969465102266 19.385170332172628 0.15423367947187477 0 0 0
228 1 28.466584979378126 22.643499943460345 0.4036535663519878 0 0 0
504 1 43.190359579577674 23.76758763541346 7.937338839319947 0 0 0
508 1 47.68807207719523 22.11040799535852 6.259307821748756 0 0 0
512 1 49.47963812064809 23.795585044460523 7.844133246548604 0 0 0
263 1 4.68332477679105 1.7141334470851526 10.994390344452844 0 0 0
271 1 11.288079895414034 1.667772779850298 11.319628888210623 0 0 0
742 1 26.703447024908186 23.712392896510256 17.826694306961638 0 0 0
279 1 17.533676431708184 1.5768864903119935 10.940632896448848 0 0 0
734 1 20.76958432623831 23.58947780177643 17.887359656736724 0 0 0
287 1 23.778566566521288 1.8611400744395314 11.176339295547395 0 0 0
290 1 25.65111017862757 3.160159942079737 9.53350888182377 0 0 0
295 1 30.265958822987795 1.7104874585318204 11.171557357585007 0 0 0
303 1 36.5822105037105 1.7622706784033322 10.931363635574213 0 0 0
2849 1 25.275531798916862 25.450845078149957 13.328396073951907 0 0 0
1012 1 41.220932287574485 22.47188287489344 18.998017035500013 0 0 0
311 1 43.17900883376748 1.9211434772030214 11.492242677474744 0 0 0
319 1 49.10508807374454 1.7408424539005327 11.03398801237387 0 0 0
262 1 1.584508047658275 4.8020947072459705 11.122466520978133 0 0 0
266 1 6.554236083870862 3.228540295371931 9.510328896969723 0 0 0
270 1 7.981553863497333 4.948223779402459 11.172017423680305 0 0 0
274 1 12.490042990008623 3.382037358099641 9.711270362460679 0 0 0
278 1 14.343325332936768 5.017701307574272 11.045699926432594 0 0 0
282 1 19.22426514305007 3.32277061813703 9.597637767232703 0 0 0
286 1 20.705006606619293 5.015352723244815 11.644066873335396 0 0 0
347 1 22.233088017471612 6.070555660150731 9.666122054106012 0 0 0
609 1 25.65266776555758 6.143685385154366 12.851137053194043 0 0 0
294 1 27.16757231234262 4.746994313136591 11.079772570893383 0 0 0
298 1 31.570558728593014 3.325199119159932 9.357076082107502 0 0 0
302 1 33.05102189840939 4.771575278336664 11.126254956183518 0 0 0
556 1 34.64254120217561 2.9692105328608553 12.512991061614192 0 0 0
306 1 38.469229744730114 3.0081984334618412 9.338362546898503 0 0 0
310 1 39.754205922534695 4.924232034990991 11.034082741365605 0 0 0
564 1 41.3917713272553 3.5204622384813553 12.662511248022101 0 0 0
572 1 47.81790792225661 3.3936353209660357 12.980810509946235 0 0 0
318 1 46.36280920334909 5.00671020998215 10.953387220183291 0 0 0
258 1 0.03400720906751076 3.4128515781344446 9.60646534131236 0 0 0
323 1 3.276762284447011 6.392884437142741 9.368763809438027 0 0 0
322 1 0.0009249346067150555 9.408809791509645 9.353804799463497 0 0 0
327 1 4.775679505712723 7.798481155668281 10.970082675948653 0 0 0
330 1 6.329008231372566 9.649059256375821 9.733181856615525 0 0 0
331 1 9.815496753370388 6.562940181512559 9.73017583152482 0 0 0
335 1 11.367121790843006 7.935061026135942 11.488675961081315 0 0 0
339 1 16.013174710301747 6.380603255966971 9.509180905325463 0 0 0
343 1 17.50245155128886 7.943390045905168 11.229801318568637 0 0 0
346 1 19.39244244071322 9.63566767474808 9.94232289652957 0 0 0
354 1 25.128588758629313 9.559386537282101 9.901278256835887 0 0 0
351 1 24.026674388367766 7.612582702133171 11.310915196978328 0 0 0
359 1 30.675580161234464 8.320983058930418 11.13619125615137 0 0 0
363 1 34.94586408142062 6.2120619927626395 9.656777208270345 0 0 0
367 1 36.470474102329916 7.818523193528085 11.062325543975632 0 0 0
625 1 38.01630841163001 6.167444451611479 12.691012968878951 0 0 0
371 1 41.260676639481545 6.4488420859807984 9.184282176274268 0 0 0
375 1 42.46545258124638 7.748146283501047 11.10961352900099 0 0 0
378 1 44.15474205811368 9.295072893093431 9.920166160931549 0 0 0
633 1 44.313352304611584 6.518833451957846 12.53429092050963 0 0 0
383 1 49.37429864481301 7.863941337871283 11.059269136813942 0 0 0
326 1 1.6893995794396879 10.989792915175494 11.014877199458404 0 0 0
334 1 8.396646650743726 10.90004065190793 11.118929896641616 0 0 0
649 1 6.647780671193353 12.796481937756665 12.70561823243418 0 0 0
338 1 13.03630372833438 9.563750524979564 10.046445666633602 0 0 0
342 1 14.40101247581067 11.17785677876745 11.608161881604449 0 0 0
657 1 12.787581940248154 12.833893652149866 13.075173248065749 0 0 0
350 1 20.87655578697908 11.061098277820278 11.556771458994257 0 0 0
358 1 27.087779409452157 10.906240157017697 11.483603479497845 0 0 0