
# Set production fixes - Nose/Hoover
#
fix                 2 all nph iso ${PRES} ${PRES} ${PCOUPL}
fix                 2 all nph iso 1 ${PRES} ${PCOUPL}
fix                 2 all nph iso 1 1 ${PCOUPL}
fix                 2 all nph iso 1 1 10000.0
fix                 3 all temp/csvr ${TEMP} ${TEMP} ${TCOUPL} 837492
fix                 3 all temp/csvr 289 ${TEMP} ${TCOUPL} 837492
fix                 3 all temp/csvr 289 289 ${TCOUPL} 837492
fix                 3 all temp/csvr 289 289 5000.0 837492

# Define Order parameter
#
compute             2 all orientorder/atom nnn NULL cutoff 3.5
thermo              200
thermo_style        custom step temp press vol etotal ke pe c_1[4]

# Run 1ns simulation
dump		    1 all custom 400 prod.${NAME}.dump id type x y z vx vy vz c_2[*]
dump		    1 all custom 400 prod.ice_289K_1atm_ML.dump id type x y z vx vy vz c_2[*]
run                 200000
Neighbor list info ...
  update every 1 steps, delay 0 steps, check yes
  max neighbors/atom: 2000, page size: 100000
  master list distance cutoff = 6.0032907
  ghost atom cutoff = 6.0032907
  binsize = 3.0016454, bins = 17 17 20
  2 neighbor lists, perpetual/occasional/extra = 1 1 0
  (1) pair sw, perpetual
      attributes: full, newton on
      pair build: full/bin/atomonly
      stencil: full/bin/3d
      bin: standard
  (2) compute orientorder/atom, occasional, copy from (1)
      attributes: full, newton on
      pair build: copy
      stencil: none
      bin: none
Per MPI rank memory allocation (min/avg/max) = 5.846 | 5.846 | 5.846 Mbytes
Step Temp Press Volume TotEng KinEng PotEng c_1[4] 
       0    289.24101    20.424714    148516.82   -47636.429    3972.0288   -51608.458   0.14942914 
     200    286.79906   -8.5400382    148529.44   -47626.752    3938.4945   -51565.246   0.15083716 
     400    287.69751   -36.179831    148536.79   -47621.132    3950.8325   -51571.964   0.15107365 
     600    291.14487    8.2281277    148514.99   -47659.216    3998.1737    -51657.39   0.14516924 
     800    283.75012    30.746715    148492.65   -47673.453    3896.6246   -51570.077   0.15376516 
    1000    285.49172    32.043818    148503.34   -47686.709    3920.5413    -51607.25   0.14840356 
    1200    286.44248    21.872726    148521.12   -47711.829    3933.5976   -51645.426   0.14025816 
    1400    285.90071    11.572295    148490.98   -47702.737    3926.1578   -51628.895   0.14647186 
    1600    290.51577    2.5640212    148482.99   -47707.153    3989.5346   -51696.688   0.15134153 
    1800    283.24076    5.2603325    148514.85    -47712.11    3889.6298    -51601.74   0.14893039 
    2000     288.4197   -21.414922    148530.23   -47667.256    3960.7501   -51628.006   0.15001962 
    2200     291.0987     3.082967    148481.75   -47635.996    3997.5396   -51633.536   0.14825824 
    2400    283.38499    52.974143    148456.97   -47652.189    3891.6105   -51543.799   0.14824841 
    2600    283.77787    17.704899    148507.87   -47695.974    3897.0056   -51592.979   0.14573262 
    2800    289.34749   -10.679043    148530.17   -47713.542     3973.491   -51687.033   0.14564346 
    3000    281.57782     18.55319    148501.46   -47723.728    3866.7933   -51590.521   0.15071741 
    3200    289.23709    25.734605    148489.07   -47671.467    3971.9749   -51643.442    0.1483161 
    3400    287.00071    -20.11377    148549.34   -47710.582    3941.2637   -51651.845   0.14401371 
    3600    284.79153   -31.450274    148515.89   -47739.442    3910.9259   -51650.368   0.14967974 
    3800    289.64906    76.574985    148408.27   -47665.428    3977.6323   -51643.061   0.14973792 
    4000    290.79874    -18.85918     148490.3   -47659.582    3993.4204   -51653.002     0.153294 
    4200     288.1495   -51.060101    148587.94   -47675.908    3957.0395   -51632.948   0.14517917 
    4400    288.93128   -8.2413365    148471.15   -47663.208    3967.7753   -51630.984   0.14973523 
    4600    285.76132    61.750973    148404.77   -47642.527    3924.2436   -51566.771    0.1509486 
    4800    285.08582   -47.261256     148587.4   -47632.874    3914.9672   -51547.841   0.14572165 
    5000     289.6342    -98.25064    148641.35   -47613.024    3977.4282   -51590.452   0.14633899 
    5200    291.05021    65.962248    148450.06   -47616.418    3996.8737   -51613.291   0.15185824 
    5400    284.87229     65.65968    148430.35   -47576.296    3912.0349   -51488.331   0.15417324 
    5600    290.49267   -77.738078    148635.94   -47561.275    3989.2173   -51550.493    0.1512667 
    5800     291.8256   -108.45987    148660.69   -47551.467    4007.5218   -51558.988   0.15511843 
    6000     292.6636    80.344061    148456.72   -47537.396    4019.0298   -51556.426   0.15111482 
    6200    290.67651    92.201503    148472.69   -47530.787    3991.7418   -51522.529   0.15142376 
    6400    292.35987   -48.890574    148678.15   -47499.048    4014.8587   -51513.906   0.14870448 
    6600    291.77224   -76.620588    148669.15   -47539.019    4006.7891   -51545.808    0.1531597 
    6800    291.16028    83.762365    148460.33   -47578.774    3998.3854   -51577.159   0.15066237 
    7000    294.41623    47.539442    148465.39   -47582.961    4043.0979   -51626.059   0.14784562 
    7200    294.76132   -83.511544    148673.72   -47529.948     4047.837   -51577.785   0.14920562 
    7400    292.90027   -13.188219    148637.38   -47514.244    4022.2799   -51536.524   0.15289437 
    7600    288.34944    95.148518    148483.93   -47548.651    3959.7852   -51508.436   0.14857534 
    7800     294.1839    47.110734    148575.51    -47578.09    4039.9075   -51617.997   0.14382843 
    8000    297.96645   -81.123443    148750.18   -47544.829    4091.8517   -51636.681   0.14512468 
    8200    292.21291    41.613004    148600.23   -47580.625    4012.8406   -51593.466   0.14675693 
    8400    297.33062    136.15446    148437.54   -47607.909    4083.1201   -51691.029   0.14103831 
    8600    288.57639    1.4333189    148645.67   -47566.451    3962.9018   -51529.352   0.14441445 
    8800    293.62657   -127.94139    148794.49   -47497.087    4032.2538   -51529.341   0.14896342 
    9000      287.046    49.699334    148557.06   -47475.934    3941.8855   -51417.819   0.15090807 
    9200    290.40117    148.19831    148441.77   -47461.337    3987.9607   -51449.297   0.14642774 
    9400    291.97007   -94.527974    148758.85   -47512.018    4009.5057   -51521.524   0.15069225 
    9600    293.14347   -160.23185    148811.41   -47501.598    4025.6196   -51527.218   0.15448473 
    9800    293.35924    136.60321    148431.48   -47519.575    4028.5828   -51548.158   0.15343289 
   10000    299.17299    160.32746    148443.92   -47517.103    4108.4206   -51625.524   0.14376702 
   10200    292.53238   -178.41129    148867.61   -47507.526    4017.2278   -51524.754   0.14905433 
   10400    293.97928   -77.886581    148746.62   -47494.374    4037.0975   -51531.472   0.15545905 
   10600    292.90457    264.03394    148330.52   -47476.232    4022.3389   -51498.571   0.15129855 
   10800    292.36656    89.683585    148528.88   -47509.903    4014.9506   -51524.854   0.15088093 
   11000     290.7945   -242.09744    148957.25   -47551.412    3993.3622   -51544.774   0.15010418 
   11200    294.58567   -54.306572    148681.04   -47568.955    4045.4247    -51614.38   0.14680845 
   11400    289.12002    284.58093    148253.42   -47594.865    3970.3672   -51565.233   0.14849058 
   11600    290.77122   -15.636459    148588.82   -47567.805    3993.0425   -51560.847   0.15326539 
   11800    288.16257   -298.88148    148945.52   -47639.873     3957.219   -51597.092   0.15762946 
   12000    292.94811    129.06071     148460.4   -47640.247    4022.9369   -51663.184   0.14809174 
   12200    287.08994    264.25377    148168.28   -47617.995     3942.489   -51560.484   0.15402374 
   12400    285.50463   -172.49844    148739.79   -47586.434    3920.7185   -51507.152   0.15323264 
   12600     295.4576   -229.22561    148913.58   -47596.524    4057.3987   -51653.923   0.14909176 
   12800    287.75895    186.46052       148270    -47605.81    3951.6762   -51557.486   0.14949777 
   13000     289.0721     284.8051    148209.76   -47587.638    3969.7092   -51557.347   0.14872317 
   13200    286.58231   -276.53735    148918.76   -47560.131    3935.5179   -51495.649    0.1560075 
   13400    294.03856   -203.43831    148858.33   -47579.255    4037.9115   -51617.167    0.1483451 
   13600    293.97834    315.92384    148159.59   -47568.986    4037.0846   -51606.071   0.15189893 
   13800    295.47363    170.66054    148334.97   -47564.933    4057.6188   -51622.552   0.15629101 
   14000    286.04497   -316.26174    148975.91     -47583.8    3928.1388   -51511.939   0.16309321 
   14200    287.87538   -103.38569    148719.37   -47610.754    3953.2751   -51564.029   0.15341779 
   14400    286.88289    326.93198    148168.71   -47634.778    3939.6457   -51574.423    0.1464745 
   14600     287.2904    116.01004    148492.52   -47631.954    3945.2418   -51577.196   0.14702331 
   14800    288.60239   -264.94267    148936.56   -47613.963    3963.2588   -51577.222   0.15165512 
   15000    285.10229   -10.548346    148560.71   -47665.845    3915.1933   -51581.038   0.15178632 
   15200    288.27842    253.72864    148212.73   -47719.864    3958.8098   -51678.674   0.14790036 
   15400    283.72988   -69.686831    148584.26   -47736.578    3896.3466   -51632.925   0.15148756 
   15600    279.26047   -198.24817    148769.02   -47770.719    3834.9701   -51605.689   0.15096822 
   15800    287.01163    131.10459    148385.27   -47723.449    3941.4136   -51664.863     0.147774 
   16000    288.80654    127.91049    148340.46   -47710.151    3966.0624   -51676.213   0.15324489 
   16200    287.69133   -125.02357    148680.95   -47658.038    3950.7477   -51608.785    0.1571029 
   16400    288.10172   -91.513078    148682.76   -47654.263    3956.3833   -51610.646   0.15083273 
   16600    287.37374    101.51412     148412.4   -47671.423    3946.3863   -51617.809   0.14611033 
   16800    290.18953    109.86727    148431.35   -47625.036    3985.0543   -51610.091   0.14454134 
   17000    288.39638   -91.370607    148643.42   -47648.924    3960.4297   -51609.353   0.15192234 
   17200    288.88825   -41.705651     148581.8   -47631.442    3967.1845   -51598.626   0.15257386 
   17400    286.68898    42.286067    148428.96   -47676.906    3936.9828   -51613.889   0.15159158 
   17600    286.81263    4.2582626    148515.42   -47715.387    3938.6808   -51654.068    0.1499217 
   17800    281.53218   -93.408142    148621.71   -47732.157    3866.1665   -51598.323   0.14807873 
   18000    283.32018   -1.8785271    148494.72   -47765.156    3890.7203   -51655.877   0.14807973 
   18200    286.44012    82.076502    148413.07   -47790.653    3933.5653   -51724.218   0.14626001 
   18400    281.48747   -26.055931    148556.76   -47811.732    3865.5525   -51677.285   0.14898376 
   18600    291.82757   -37.757012    148623.99   -47770.008    4007.5489   -51777.557   0.14387511 
   18800    283.36482      30.0117    148514.26   -47703.872    3891.3334   -51595.205   0.14433912 
   19000     285.0166     37.85845    148490.48   -47732.418    3914.0167   -51646.435   0.14687725 
   19200    284.04791   -19.126761    148567.67   -47705.626    3900.7141    -51606.34   0.14671446 
   19400    285.42956    5.0367164    148587.73   -47695.718    3919.6877   -51615.405   0.14947502 
   19600    286.46342    10.366697    148523.53   -47724.933    3933.8852   -51658.818   0.14955959 
   19800    287.06879   -20.769107    148485.08   -47722.892    3942.1985    -51665.09   0.15173753 
   20000    289.15474    22.175961    148535.63   -47711.445     3970.844   -51682.289    0.1421103 
   20200    286.54261   -9.9443541    148590.14    -47737.56    3934.9727   -51672.532   0.14028428 
   20400    286.04095    8.3121908    148520.69   -47716.654    3928.0837   -51644.738   0.14835464 
   20600    284.38901    36.903055    148496.81   -47713.297    3905.3982   -51618.695   0.15188006 
   20800    285.36129   -53.547434    148610.56   -47715.302    3918.7501   -51634.052   0.14782403 
   21000    281.99224   -62.407549    148603.58   -47709.129    3872.4843   -51581.613   0.14420722 
   21200    290.16384    104.83625    148460.22     -47700.2    3984.7016   -51684.902   0.14175761 
   21400     287.1732     36.69106    148462.36   -47694.825    3943.6324   -51638.457   0.14804904 
   21600    289.24028    -82.79258    148608.13   -47652.031    3972.0188    -51624.05   0.15157163 
   21800    289.04103    -50.68304    148610.58   -47601.572    3969.2825   -51570.855   0.14938378 
   22000    291.09421    85.366422    148455.25   -47608.492    3997.4779    -51605.97   0.14725549 
   22200    292.20398    51.564748    148488.73   -47567.256     4012.718   -51579.974   0.14847464 
   22400    295.43417   -84.727527    148684.67   -47544.555    4057.0769   -51601.632   0.14573824 
   22600    290.59965   -50.116506     148609.5   -47550.569    3990.6864   -51541.256   0.15274322 
   22800    289.20514    111.08352    148423.02   -47587.774    3971.5362    -51559.31   0.15674034 
   23000    289.27277   -2.6651199    148544.67   -47605.414    3972.4649   -51577.879   0.15273666 
   23200    290.60622    -120.0112    148706.99   -47598.259    3990.7766   -51589.036   0.14331357 
   23400    295.43763    30.230734    148561.07   -47607.467    4057.1244   -51664.591   0.14184801 
   23600    292.97692    148.74646    148392.73   -47623.118    4023.3325    -51646.45   0.14751129 
   23800     292.3511   -23.595692    148558.01   -47562.646    4014.7384   -51577.385   0.15227914 
   24000    289.17695   -114.89484     148719.6   -47598.839     3971.149   -51569.989   0.14876027 
   24200    297.70615    58.273011    148507.64   -47582.729    4088.2771   -51671.006   0.14974137 
   24400     286.7089    133.08499    148352.15   -47587.006    3937.2564   -51524.263   0.15189195 
   24600    293.95618   -34.490285     148606.1    -47587.21    4036.7802    -51623.99   0.14562261 
   24800    289.31629   -105.48546     148746.3   -47510.877    3973.0625   -51483.939   0.15347639 
   25000    296.95495       47.603    148507.28   -47511.713    4077.9612   -51589.674   0.15183028 
   25200    288.63026    103.80899    148439.92   -47534.243    3963.6416   -51497.885   0.15124783 
   25400    290.48929    -100.4589    148683.88   -47597.777    3989.1709   -51586.948   0.14509927 
   25600    288.13087    -108.8237     148684.5   -47619.269    3956.7837   -51576.053   0.14473388 
   25800    287.50178    135.38381     148407.3   -47596.509    3948.1447   -51544.654   0.14683178 
   26000    291.95343    88.128438    148480.83   -47576.514    4009.2773   -51585.792   0.14750248 
   26200    294.85822   -169.70353    148764.54   -47623.807    4049.1676   -51672.975   0.15236818 
   26400    287.76376   -54.201534    148575.26   -47645.693    3951.7422   -51597.436   0.15258404 
   26600     284.3494    180.95671    148271.95   -47654.026    3904.8543    -51558.88    0.1489568 
   26800    287.21154   -20.465876    148538.44   -47660.081    3944.1589    -51604.24    0.1486692 
   27000    285.92298   -238.53673    148805.53   -47658.815    3926.4635   -51585.278   0.14930761 
   27200    286.79153    66.826358    148454.34   -47652.469     3938.391    -51590.86    0.1496215 
   27400    286.17294    194.21796    148257.69   -47618.452    3929.8962   -51548.349   0.15020039 
   27600    287.43937    -96.30047     148697.6   -47623.415    3947.2876   -51570.703   0.14365535 
   27800    285.44531   -217.36624    148843.47   -47617.957    3919.9039   -51537.861   0.14154347 
   28000    285.99735    163.01426    148370.12   -47607.211    3927.4849   -51534.696   0.14554969 
   28200     290.0991    182.18736     148337.4    -47627.14    3983.8125   -51610.952   0.15022546 
   28400    289.38705   -200.12824    148813.29    -47622.45    3974.0343   -51596.485    0.1473882 
   28600    288.84593   -144.26826    148740.11   -47642.773    3966.6033   -51609.376   0.14830042 
   28800      286.424    252.05984    148274.21   -47653.343    3933.3439   -51586.687   0.14684133 
   29000    288.58254    104.61486    148434.03   -47690.622    3962.9863   -51653.608   0.14312633 
   29200    284.84287   -245.23988    148821.75   -47725.604    3911.6309   -51637.235   0.14519885 
   29400    287.12944   -48.347228    148522.92    -47726.27    3943.0314   -51669.301   0.14502025 
   29600    288.34765    273.37069    148171.99   -47686.713    3959.7606   -51646.474   0.14582036 
   29800    290.54859     5.420119    148597.03    -47610.04    3989.9851   -51600.026   0.13792633 
   30000    291.29057   -299.60015    148939.79   -47598.905    4000.1745    -51599.08   0.14593539 
   30200    288.42185    82.885856    148439.94   -47608.357    3960.7795   -51569.136   0.15006577 
   30400    286.18785    261.10795    148184.51   -47661.212     3930.101   -51591.313   0.15160425 
   30600    285.32844   -134.57375    148741.25   -47608.707    3918.2991   -51527.006   0.14998939 
   30800    288.46351   -252.32755    148915.71   -47575.738    3961.3516    -51537.09   0.15030855 
   31000    293.32958    183.49939    148359.71   -47563.866    4028.1754   -51592.041   0.14757828 
   31200    290.53348    226.89341    148304.44   -47566.891    3989.7777   -51556.669   0.14465742 
   31400    291.54926   -181.53155    148870.02   -47565.082     4003.727   -51568.809   0.14221264 
   31600    286.93199   -215.75393    148820.76   -47626.762    3940.3199   -51567.081   0.14603661 
   31800    294.94946    246.77966    148238.06   -47599.409    4050.4205   -51649.829   0.14344317 
   32000     290.5724    153.04879     148405.4   -47570.346    3990.3122   -51560.658   0.14194301 
   32200     287.6458   -306.54553    148951.11   -47603.391    3950.1224   -51553.513   0.14598783 
   32400    288.06732   -94.214579    148658.45   -47597.077    3955.9109   -51552.988   0.14703164 
   32600    288.35601     284.0754    148180.58   -47583.596    3959.8754   -51543.471   0.15017785 
   32800    292.42175    17.325803    148576.32   -47581.984    4015.7086   -51597.693   0.14468158 
   33000    289.27886   -302.69272    148975.85   -47570.004    3972.5485   -51542.552   0.14901319 
   33200    294.41052    56.079573    148523.81   -47565.238    4043.0195   -51608.258    0.1426963 
   33400    294.20684    263.57547    148241.37   -47525.908    4040.2225    -51566.13   0.14531852 
   33600    293.69571   -87.642063    148727.83   -47460.454    4033.2033   -51493.658   0.14778509 
   33800    293.07084   -261.62355    148904.13   -47494.415    4024.6223   -51519.038   0.14901308 
   34000    293.97961    98.383399    148401.53   -47516.959     4037.102   -51554.061   0.15192817 
   34200    291.68699    226.12204    148325.77   -47547.431    4005.6184    -51553.05   0.14245687 
   34400    288.26829   -162.58165     148783.2   -47612.957    3958.6708   -51571.627   0.14429047 
   34600    291.86699   -139.35817    148739.38    -47586.56    4008.0903    -51594.65   0.15042742 
   34800    289.69271    203.48777    148335.43   -47627.317    3978.2317   -51605.549   0.14886151 
   35000    287.74043    62.958216     148430.6   -47652.691    3951.4219   -51604.113   0.14760608 
   35200    290.54391    -143.8802    148754.25   -47639.694    3989.9209   -51629.615   0.14236528 
   35400    293.86869   -46.151559    148620.15   -47602.403    4035.5788   -51637.982   0.14382489 
   35600    290.78419    132.08625    148356.95   -47595.265    3993.2207   -51588.485   0.14093468 
   35800    289.61169    45.329357    148490.42   -47595.245    3977.1191   -51572.364   0.14312688 
   36000    290.86455   -94.578606     148683.8     -47596.5    3994.3241   -51590.825   0.14363738 
   36200    290.97701    28.986314    148562.73   -47611.899    3995.8685   -51607.767   0.14239275 
   36400    288.63854    39.587886    148460.24   -47639.368    3963.7553   -51603.124   0.14420783 
   36600    287.92775   -75.125633    148630.53   -47614.696    3953.9942    -51568.69   0.14461312 
   36800    289.72252   -85.234733    148707.38   -47657.999    3978.6411    -51636.64    0.1460085 
   37000    287.90058    52.757378    148533.27   -47647.984    3953.6212   -51601.605   0.14199867 
   37200    291.85043    39.540557    148504.72   -47610.826    4007.8629   -51618.689   0.14071785 
   37400    290.83533   -34.613911    148640.19   -47603.062    3993.9229   -51596.985   0.14115255 
   37600    291.29393   -35.619013    148632.73   -47629.198    4000.2207   -51629.419    0.1373754 
   37800    290.61446     101.2768    148480.17   -47594.215    3990.8898   -51585.104   0.13908796 
   38000    288.01955    21.975362    148513.69   -47649.101     3955.255   -51604.356   0.14288742 
   38200    290.29492   -34.216458    148662.95   -47642.461    3986.5017   -51628.963   0.13869634 
   38400    284.81194   -14.349281    148624.22   -47607.699    3911.2061   -51518.906   0.14766745 
   38600    292.30414    36.792165    148524.77    -47606.05    4014.0935   -51620.144   0.14236227 
   38800    287.75738   -63.907562    148598.33    -47657.92    3951.6547   -51609.575    0.1434427 
   39000    285.69508   -59.161434    148646.11   -47684.512     3923.334   -51607.846   0.14301145 
   39200    285.84771    2.4971123     148543.2   -47705.145      3925.43   -51630.575   0.14635996 
   39400    283.71782    23.023319    148518.61   -47696.398     3896.181   -51592.579   0.14531883 
   39600    286.77899   -61.069889    148619.69   -47766.034    3938.2188   -51704.253   0.13472288 
   39800     283.9815    -10.79841     148566.8   -47754.022     3899.802   -51653.824   0.13356357 
   40000    286.13166    107.55332    148428.58   -47765.842    3929.3294   -51695.172   0.13464909 
   40200    282.49686    3.2972946     148531.1   -47740.536    3879.4141    -51619.95   0.13993314 
   40400    285.47551   -101.83865    148660.66   -47734.952    3920.3187   -51655.271   0.14336915 
   40600    286.68563    31.235222    148511.84   -47763.122    3936.9368   -51700.058   0.13861874 
   40800    286.27999    145.94045    148386.18   -47780.726    3931.3663   -51712.093   0.13535854 
   41000    284.29501   -56.885398    148598.92   -47736.974    3904.1074   -51641.081   0.13947771 
   41200    285.43046   -118.53456    148720.15   -47769.222       3919.7   -51688.922   0.13841611 
   41400    286.92577    85.995047    148423.64   -47734.726    3940.2345    -51674.96   0.14041481 
   41600     284.9035    145.56837    148378.06   -47729.836    3912.4635   -51642.299   0.13715659 
   41800    285.04781   -163.11143    148756.16   -47728.281    3914.4453   -51642.727    0.1356659 
   42000    286.24569   -124.53583    148710.64    -47700.85    3930.8952   -51631.745   0.13729284 
   42200    285.47426    203.17039    148274.84   -47726.371    3920.3016   -51646.672    0.1396597 
   42400    283.67744    98.543081    148407.21   -47777.532    3895.6265   -51673.158   0.13771563 
   42600    285.76493   -223.11647    148828.27   -47803.451    3924.2932   -51727.744   0.13757325 
   42800    279.79171   -37.369869    148564.42   -47803.766    3842.2653   -51646.031    0.1417745 
   43000    287.83709    272.74126    148169.39   -47758.352    3952.7492   -51711.101   0.13722759 
   43200    283.29396    -22.77542    148503.97   -47762.325    3890.3604   -51652.686   0.13991794 
   43400    284.34897   -249.91542    148846.84   -47751.611    3904.8484   -51656.459   0.14164978 
   43600    284.41575    42.415969    148452.03   -47748.018    3905.7655   -51653.783   0.14335705 
   43800     282.9852    222.52373    148199.31   -47721.006    3886.1203   -51607.126   0.14499017 
   44000    287.80331   -133.27021    148690.07   -47740.983    3952.2854   -51693.269   0.13881408 
   44200    277.27563   -238.61808    148842.96   -47781.128    3807.7131   -51588.841   0.13864198 
   44400    286.91222    186.88833    148286.97    -47755.19    3940.0484   -51695.238   0.13707434 
   44600    285.84841    232.77341     148243.3   -47692.506    3925.4395   -51617.946   0.13902149 
   44800    289.73627   -191.63967    148853.55   -47656.816    3978.8299   -51635.646   0.14221922 
   45000    289.50342   -194.06115    148809.51   -47693.165    3975.6323   -51668.797   0.14351135 
   45200    286.27759    249.18784    148191.81    -47713.06    3931.3334   -51644.393   0.13948661 
   45400      287.996    145.20602    148333.65   -47764.683    3954.9316   -51719.614   0.13377432 
   45600    289.59935   -285.35046    148904.06   -47752.128    3976.9497   -51729.078   0.13593967 
   45800    287.63571   -97.248361    148622.07   -47725.818    3949.9838   -51675.802   0.14273541 
   46000    285.05104    300.74647    148102.06   -47721.595    3914.4896   -51636.085    0.1462423 
   46200    285.06038    10.924315     148482.9   -47755.975    3914.6179   -51670.593   0.13718405 
   46400    284.08635   -317.50188     148913.4   -47737.147    3901.2419   -51638.389   0.14076094 
   46600    282.93592    65.239185    148463.68   -47734.546    3885.4435   -51619.989   0.13844984 
   46800     284.1102    306.25453    148185.55   -47698.555    3901.5694   -51600.125   0.13810779 
   47000    284.25678   -134.35192    148680.72   -47679.453    3903.5824   -51583.035   0.14892255 
   47200    288.54074   -248.40288    148887.96   -47649.234    3962.4122   -51611.647   0.14431884 
   47400    286.58785    129.28999    148392.44   -47580.404     3935.594   -51515.998   0.14540986 
   47600    289.04797    242.16685    148333.76   -47556.051    3969.3777   -51525.429   0.13948912 
   47800    288.86059    -158.1651    148862.25   -47526.227    3966.8046   -51493.032   0.14460101 
   48000     290.1474   -132.47518    148867.86   -47529.383    3984.4758   -51513.859   0.14663269 
   48200    295.84734    184.58698    148410.11   -47530.843    4062.7508   -51593.593   0.14403584 
   48400    297.61513    129.07184    148455.42   -47512.252    4087.0271   -51599.279   0.14213086 
   48600    288.49464   -151.99067    148776.55   -47576.578    3961.7792   -51538.357   0.14400055 
   48800    296.57899    -65.33151    148660.28   -47519.128    4072.7983   -51591.927   0.14235309 
   49000    291.20994    163.89327    148438.19   -47495.696    3999.0673   -51494.763   0.14545955 
   49200    292.01946    15.177963    148595.23    -47531.17    4010.1841   -51541.354   0.14767693 
   49400    288.24671   -103.04947    148768.21   -47541.346    3958.3744   -51499.721   0.14584596 
   49600    292.76924    8.2386118    148630.88   -47559.341    4020.4805   -51579.821   0.14293268 
   49800    291.54958    44.008858    148531.38    -47540.02    4003.7314   -51543.751   0.13912861 
   50000    291.15415   -46.855222    148641.38   -47541.001    3998.3012   -51539.302   0.14094854 
   50200    289.20784   -78.426499    148700.43   -47577.973    3971.5733   -51549.547   0.14288756 
   50400    291.27824    -22.73061    148572.24   -47582.824    4000.0052   -51582.829    0.1483256 
   50600    288.07192     17.23232    148518.25   -47602.894    3955.9741   -51558.868    0.1457175 
   50800    292.33436   -23.244632    148622.69   -47614.276    4014.5085   -51628.785   0.13566298 
   51000    293.50749   -19.010533    148656.63   -47549.455    4030.6186   -51580.074   0.13790076 
   51200    287.14768     4.510721     148573.8   -47579.847    3943.2819   -51523.129   0.14047565 
   51400    292.67956    56.357029    148561.95   -47543.371    4019.2489   -51562.619   0.14610535 
   51600    292.90767   -51.345909     148673.7   -47544.558    4022.3815   -51566.939   0.14675859 
   51800    293.93808   -59.297264    148661.23   -47541.326    4036.5317   -51577.858   0.14201823 
   52000    293.45556     27.32355    148553.59   -47503.059    4029.9054   -51532.964   0.13871903 
   52200    295.75869   -1.9909455    148604.82   -47475.978    4061.5334   -51537.511    0.1433967 
   52400    298.13687    -46.02636    148700.45   -47457.028     4094.192    -51551.22   0.14708041 
   52600    292.09333    8.4744264    148595.37   -47493.705    4011.1985   -51504.903    0.1465984 
   52800    296.20593    58.946273    148505.44   -47512.897    4067.6751   -51580.572   0.14483529 
   53000    289.94903   -4.1083601    148591.78   -47516.737    3981.7517   -51498.489   0.14415629 
   53200    293.08021   -34.823645    148645.02   -47525.517    4024.7509   -51550.268    0.1405457 
   53400    294.17601    37.354865    148495.55   -47555.191    4039.7991    -51594.99   0.14369145 
   53600    290.31473    106.77132    148460.71   -47580.419    3986.7738   -51567.192   0.14560373 
   53800     287.7863   -49.582655    148631.27   -47556.628    3952.0518    -51508.68   0.14749151 
   54000    292.74013   -33.705143    148615.24   -47547.278    4020.0808   -51567.359   0.14137184 
   54200    292.34233    49.799906    148439.51   -47555.125    4014.6179   -51569.743   0.14040839 
   54400    292.30636    76.689494    148507.92   -47581.633     4014.124   -51595.757   0.13621924 
   54600    289.15036   -95.988552    148700.56   -47576.404    3970.7839   -51547.188   0.14593996 
   54800    294.19663   -14.919998    148597.56   -47520.612    4040.0822   -51560.694   0.14551912 
   55000     289.0124    96.440035    148432.34    -47523.17    3968.8894   -51492.059   0.14691563 
   55200    292.35824    28.485657    148596.78   -47553.031    4014.8364   -51567.868   0.13755307 
   55400    291.55753    -96.02542    148756.41    -47576.21    4003.8405    -51580.05    0.1381026 
   55600    292.82794    4.6497559    148579.75   -47612.977    4021.2866   -51634.263   0.14104423 
   55800    290.34804     119.8687    148440.75   -47584.073    3987.2312   -51571.304   0.14414907 
   56000    291.42173   -67.957454    148643.14   -47569.514    4001.9757    -51571.49   0.14937039 
   56200    288.35356   -181.37264     148717.6   -47601.792    3959.8418   -51561.633   0.14576356 
   56400    288.30072     82.40915    148426.42   -47602.655    3959.1161   -51561.771    0.1407791 
   56600    290.43506    147.44124    148409.98   -47605.829    3988.4261   -51594.255   0.13828866 
   56800    282.93111   -174.53561    148754.21   -47556.629    3885.3774   -51442.006   0.14893364 
   57000    291.06422   -91.876126    148726.78   -47563.956    3997.0662   -51561.022    0.1443064 
   57200    289.08301    193.13159    148360.67   -47593.417     3969.859   -51563.276   0.14209374 
   57400    288.47944    78.370577    148431.72   -47613.691    3961.5704   -51575.262   0.14378719 
   57600    286.25714   -188.28397    148787.64   -47602.957    3931.0525    -51534.01   0.14409219 
   57800    288.09226   -29.470516    148636.99   -47615.564    3956.2534   -51571.818   0.14205244 
   58000    288.79082     207.9636    148291.08   -47628.643    3965.8465   -51594.489   0.14460245 
   58200    291.79073     51.66697    148515.75   -47670.046     4007.043   -51677.089    0.1420284 
   58400    290.77552   -177.04899    148825.43    -47660.96    3993.1016   -51654.061   0.13582082 
   58600    290.75784    11.236171    148536.01    -47640.87    3992.8588   -51633.729   0.13914135 
   58800    290.16668    199.08705    148285.38   -47673.561    3984.7406   -51658.302   0.14333457 
   59000    287.59352   -61.135454    148624.69   -47698.189    3949.4045   -51647.593    0.1423237 
   59200    282.24778   -220.87676    148833.18   -47696.338    3875.9936   -51572.332   0.14344224 
   59400     285.8751    115.51026    148417.04   -47639.669    3925.8061   -51565.476   0.14186592 
   59600    289.38731    179.69433       148284   -47637.568    3974.0379   -51611.606   0.14326404 
   59800    290.79401   -155.33964    148739.75   -47622.432    3993.3554   -51615.788   0.14258764 
   60000    291.43963   -205.50852    148760.37   -47609.518    4002.2215    -51611.74   0.14815183 
   60200    290.84859    200.65281    148273.45   -47581.464    3994.1051   -51575.569    0.1474747 
   60400    289.69636    143.32516    148356.76   -47550.572    3978.2818   -51528.854   0.14656265 
   60600    290.46842   -263.19546    148867.01    -47590.38    3988.8843   -51579.264   0.14226824 
   60800    289.71169   -67.399999    148681.63   -47528.242    3978.4924   -51506.734   0.14180619 
   61000    292.13382    276.03749    148194.84   -47569.593    4011.7546   -51581.348   0.14173747 
   61200    293.98003    60.863937    148490.82   -47574.798    4037.1078   -51611.906   0.14120513 
   61400    288.71867   -325.09053    148966.84   -47570.894    3964.8556    -51535.75   0.14921129 
   61600    289.13913    17.609681    148571.49   -47563.198    3970.6297   -51533.828   0.14401775 
   61800    292.30125    300.67286    148167.71   -47564.056    4014.0538    -51578.11   0.14276459 
   62000    289.75976   -84.181067    148680.54   -47589.826    3979.1525   -51568.978   0.14430021 
   62200    289.96945   -338.62115    149020.92   -47599.511    3982.0321   -51581.543   0.14435902 
   62400    292.98854    190.93726    148382.62   -47560.604    4023.4921   -51584.096   0.14253075 
   62600    296.50772    319.04295    148137.33   -47582.826    4071.8195   -51654.646   0.14363288 
   62800    291.51019   -195.69807    148876.42   -47559.326    4003.1905   -51562.517   0.14194563 
   63000    289.87212   -331.48361    149057.25   -47525.492    3980.6955   -51506.188   0.14192301 
   63200    293.07472    327.95979    148210.63   -47530.132    4024.6755   -51554.808   0.14353061 
   63400    293.84474    314.02379    148172.91   -47487.507    4035.2499   -51522.757   0.15205661 
   63600     294.2749   -413.20635    149187.18   -47466.662    4041.1571   -51507.819    0.1501194 
   63800    293.95841    -294.6659    149019.16    -47493.96    4036.8109   -51530.771   0.14278524 
   64000    294.06443    549.14536    147887.42   -47486.549    4038.2668   -51524.816   0.14490966 
   64200    292.38791    208.71114    148296.82   -47491.988    4015.2438   -51507.231   0.15065715 
   64400    292.39195   -622.90837    149391.63   -47476.285    4015.2993   -51491.584   0.15080356 
   64600    291.68897   -148.66058    148730.57    -47533.24    4005.6456   -51538.886   0.14938916 
   64800    295.93522    627.82886     147780.5   -47541.984    4063.9577   -51605.942   0.14324625 
   65000    287.86724   -24.077649    148572.48   -47536.677    3953.1634    -51489.84   0.14248019 
   65200    287.56968   -482.27359    149236.52   -47559.392     3949.077    -51508.47   0.14596548 
   65400    287.46505    48.028956    148479.64   -47586.882    3947.6402   -51534.522   0.14536272 
   65600    288.18503    346.45334    148069.97   -47610.576    3957.5274   -51568.103   0.14825708 
   65800    291.12517   -89.258437    148672.59   -47586.501    3997.9032   -51584.404    0.1419982 
   66000    296.88881   -261.61245    148896.93   -47585.283    4077.0529   -51662.336   0.14127469 
   66200    287.89028    84.939294    148389.03   -47610.328    3953.4797   -51563.808   0.14182804 
   66400    290.63295    186.99327    148291.63   -47606.025    3991.1437   -51597.169   0.14166378 
   66600    287.60153   -164.43389    148745.24   -47618.536    3949.5144    -51568.05   0.14503282 
   66800     291.4428   -156.05795    148730.95   -47600.772    4002.2651   -51603.038   0.14676442 
   67000    287.38447    166.99944    148340.72   -47630.065    3946.5337   -51576.598   0.14252441 
   67200    287.84517    90.548919    148437.68   -47651.427    3952.8603   -51604.287    0.1397074 
   67400    286.13887   -143.23221    148778.89   -47684.744    3929.4283   -51614.173   0.13965002 
   67600    283.02244   -63.357034    148632.62   -47639.229    3886.6317    -51525.86   0.14809704 
   67800    292.35493    187.93898    148340.51   -47587.342     4014.791   -51602.133   0.14694836 
   68000    295.60789   -16.341674    148554.93    -47585.09    4059.4625   -51644.552   0.14488334 
   68200    287.74162   -150.47746    148775.69   -47656.986    3951.4382   -51608.424   0.13965373 
   68400     286.8676    54.912662    148518.82   -47599.975    3939.4356    -51539.41   0.13945102 
   68600    289.91947    152.08031    148375.79   -47586.448    3981.3457   -51567.794   0.14494723 
   68800    295.19572   -58.057674    148680.49   -47554.886    4053.8023   -51608.688   0.14635758 
   69000    290.01626   -178.87701    148779.95   -47598.784     3982.675   -51581.459   0.14775336 
   69200    294.16643    141.62109    148452.76    -47604.33    4039.6675   -51643.997   0.13999632 
   69400    290.26018    137.86149    148384.23   -47643.139    3986.0245   -51629.163   0.13776338 
   69600    289.15994   -128.04118    148689.06   -47655.685    3970.9155   -51626.601   0.14373263 
   69800    288.03894   -76.453554    148673.82   -47621.776    3955.5213   -51577.297   0.14124256 
   70000    293.69835    133.05353    148388.08   -47583.034    4033.2396   -51616.273   0.14398041 
   70200    288.60864    68.968992    148499.46   -47565.991    3963.3447   -51529.336   0.14382953 
   70400    291.05018   -152.90693    148797.92   -47579.871    3996.8734   -51576.744   0.13991439 
   70600    293.80136   -21.876783    148640.89   -47552.707    4034.6542   -51587.361   0.14007658 
   70800    291.61836    147.15987    148405.98   -47577.811    4004.6759   -51582.487   0.13801693 
   71000    282.15409   -18.853948    148607.76   -47622.193    3874.7069   -51496.899   0.14869863 
   71200    286.83366   -170.09941    148762.02   -47630.897    3938.9697   -51569.867    0.1470861 
   71400    287.50184    104.82592    148495.23   -47597.921    3948.1455   -51546.067   0.14100667 
   71600    295.09988    169.04456    148405.17   -47577.641    4052.4862   -51630.127   0.13725692 
   71800    287.78684   -107.19196    148713.95   -47596.753    3952.0592   -51548.812    0.1430188 
   72000    289.48147   -127.30041    148718.15   -47621.227    3975.3309   -51596.558   0.14867959 
   72200    284.32644      141.075    148329.53   -47655.486     3904.539   -51560.025   0.14855024 
   72400    288.30248    120.09227    148406.29    -47638.24    3959.1403    -51597.38   0.14577444 
   72600    289.63728   -194.32924    148845.52   -47604.587    3977.4705   -51582.057   0.14426127 
   72800    287.05509   -98.076147    148699.82   -47680.173    3942.0104   -51622.183   0.13989671 
   73000    282.34511    199.60491    148214.92   -47676.904    3877.3302   -51554.234   0.14685777 
   73200    283.69417    41.224207    148450.56   -47691.188    3895.8563   -51587.044   0.14805017 
   73400    286.37794   -286.74164    148931.08    -47684.37    3932.7113   -51617.082   0.14422141 
   73600    292.25655    12.530818    148526.55    -47668.22    4013.4399    -51681.66   0.13863295 
   73800    285.75263    340.65081    148058.43    -47661.02    3924.1243   -51585.145   0.14155813 
   74000    286.31409   -75.202586    148597.22   -47710.423    3931.8345   -51642.258   0.14055805 
   74200    284.12675    -380.9333    148984.24    -47703.48    3901.7968   -51605.277   0.14664518 
   74400    286.48462    153.64572    148286.31   -47666.372    3934.1763   -51600.549   0.14847357 
   74600    288.37076    383.95663    148020.99   -47688.961    3960.0779   -51649.039   0.14499972 
   74800    284.44012   -250.64992    148818.72   -47698.479    3906.1001   -51604.579   0.14262009 
   75000    286.42675   -278.03341    148904.52   -47660.805    3933.3817   -51594.186   0.14097828 
   75200     289.4963     323.1709    148106.13   -47648.296    3975.5345    -51623.83   0.14320811 
   75400    288.19024    271.06006    148237.18   -47637.896     3957.599   -51595.495   0.14499489 
   75600    291.08134   -352.59592    149041.83   -47616.555    3997.3012   -51613.856   0.14933031 
   75800    296.10486   -140.04525    148799.68   -47594.525    4066.2872   -51660.812   0.13994674 
   76000    289.09172    337.49053    148072.99   -47578.437    3969.9787   -51548.416   0.15047186 
   76200    289.78033    76.694052    148395.03    -47607.87     3979.435   -51587.305   0.14761244 
   76400     284.1647    -338.7821    148999.06   -47574.517    3902.3179   -51476.835   0.15444889 
   76600    288.30074   -49.091478    148598.72   -47562.197    3959.1165   -51521.313   0.15473408 
   76800    289.36803     304.6525    148154.56   -47561.199    3973.7731   -51534.972   0.15094022 
   77000    294.16105    13.940516    148613.68   -47565.211    4039.5937   -51604.804   0.14087874 
   77200    289.80005   -263.48205    148944.28   -47610.382    3979.7058   -51590.088   0.14311065 
   77400    290.01539    71.245439     148473.7   -47600.225     3982.663   -51582.888   0.14313787 
   77600    287.21823    194.63875    148246.89   -47616.607    3944.2507   -51560.858   0.15188139 
   77800    288.02865   -107.41548    148682.21   -47629.636    3955.3799   -51585.016    0.1474754 
   78000    289.24758   -176.58136    148795.74   -47628.717     3972.119   -51600.836   0.14304137 
   78200    290.50937    123.70753    148364.53   -47622.519    3989.4466   -51611.966   0.14625047 
   78400    288.62092     158.7837    148321.91   -47642.816    3963.5133   -51606.329    0.1424858 
   78600    286.87945   -144.18794    148742.65   -47661.746    3939.5984   -51601.345   0.14787826 
   78800    287.06054   -94.476815    148712.69   -47647.043    3942.0853   -51589.129   0.14778913 
   79000    289.54723    158.54355    148306.49   -47630.238     3976.234   -51606.472   0.14756203 
   79200    292.74331      89.8154    148399.49   -47640.974    4020.1244   -51661.099   0.14599723 
   79400    291.02054     -149.862    148776.45   -47592.709    3996.4663   -51589.175   0.13889756 
   79600     292.2622   -86.567608    148628.95   -47583.036    4013.5175   -51596.553   0.14870165 
   79800    288.31065    168.92959    148338.38   -47609.155    3959.2525   -51568.408   0.14920132 
   80000    289.05395    3.8958889    148563.07    -47582.48    3969.4599    -51551.94   0.15023667 
   80200    289.69643   -191.60337    148833.93   -47546.977    3978.2829    -51525.26   0.14848248 
   80400    292.88521    23.560555    148575.81   -47517.529     4022.073   -51539.602   0.14097666 
   80600    295.29956    204.02198    148379.58   -47539.036    4055.2283   -51594.264   0.14135968 
   80800    291.89656   -82.833884    148737.11   -47483.866    4008.4964   -51492.362   0.14835072 
   81000     291.4937   -236.86421    148909.82    -47536.17     4002.964   -51539.134   0.14957643 
   81200    296.56768    60.959165    148489.76   -47517.189     4072.643   -51589.832    0.1509971 
   81400    289.97901    241.92008    148352.77   -47492.653    3982.1634   -51474.817   0.14433139 
   81600     291.4746   -179.65075    148809.11   -47514.458    4002.7018   -51517.159    0.1454501 
   81800    288.75095   -218.89458    148834.92   -47518.414     3965.299   -51483.713   0.15076542 
   82000    290.93105    186.56787    148337.26   -47484.472    3995.2374   -51479.709   0.14841344 
   82200    295.52526    204.41899    148393.64   -47530.071    4058.3278   -51588.399   0.14043496 
   82400    287.65018   -241.54119    148879.77   -47531.013    3950.1825   -51481.196    0.1442015 
   82600    294.06591   -115.18901    148724.23   -47574.703    4038.2871    -51612.99   0.14186896 
   82800    290.74741    264.88423    148239.65   -47614.098    3992.7155   -51606.814   0.14199342 
   83000    294.96115     112.5733    148481.51   -47599.342    4050.5811   -51649.923   0.14075081 
   83200    284.23187   -298.54918    148935.65   -47617.862    3903.2402   -51521.102   0.15452169 
   83400    288.68875    4.9221102    148571.28   -47638.306    3964.4448   -51602.751   0.14364463 
   83600    290.40358    303.01042    148161.78   -47653.997    3987.9938   -51641.991   0.14236903 
   83800    292.03108   -29.501328    148570.21   -47604.778    4010.3437   -51615.122   0.14074458 
   84000    287.79808   -318.69454    148890.34   -47632.512    3952.2135   -51584.725   0.14769884 
   84200    287.27308    87.696267    148405.75   -47620.207     3945.004   -51565.211   0.14926714 
   84400    290.06468    226.11122    148223.85   -47624.408    3983.3399   -51607.748   0.14213854 
   84600    286.94267   -157.54813    148756.88    -47621.63    3940.4666   -51562.097   0.14513397 
   84800    283.82925   -187.17708    148825.59   -47630.319    3897.7112   -51528.031   0.14100115 
   85000    287.33188     238.5407    148276.44   -47594.197    3945.8114   -51540.008   0.14601075 
   85200     289.2675     164.2205    148339.48   -47564.516    3972.3925   -51536.908   0.14960275 
   85400    291.72774   -254.47667    148886.18   -47551.731    4006.1779   -51557.909   0.14674277 
   85600    295.61834   -97.172925    148727.47   -47549.532     4059.606   -51609.138   0.14518529 
   85800    285.73033    253.33009    148214.09   -47562.078     3923.818   -51485.896   0.14372048 
   86000    294.28139    68.183172    148480.85   -47517.876    4041.2463   -51559.122   0.13975008 
   86200    295.52576   -244.30404     148944.9   -47526.938    4058.3346   -51585.273   0.14281334 
   86400     292.9505    2.5023868    148607.54   -47520.851    4022.9697   -51543.821   0.14738323 
   86600    297.53663    260.97731    148258.69   -47520.146    4085.9492   -51606.095    0.1412351 
   86800     292.9909   0.64295592    148620.71   -47550.458    4023.5245   -51573.983   0.13844242 
   87000    292.73093   -190.24401    148856.59    -47571.09    4019.9544   -51591.045   0.13834461 
   87200    294.17329     71.14193    148491.43   -47542.347    4039.7618   -51582.109   0.14550262 
   87400    289.59676     180.6992    148364.42   -47504.747    3976.9142   -51481.661   0.14797409 
   87600    288.62569   -89.123359    148697.46   -47571.366    3963.5788   -51534.945   0.14894225 
   87800    292.16957   -99.023247    148715.91   -47578.226    4012.2455   -51590.471   0.14234092 
   88000     295.1402    92.827065    148405.58   -47530.191    4053.0399   -51583.231   0.14160392 
   88200    290.99658    63.498759    148438.35   -47541.098    3996.1372   -51537.235   0.14712726 
   88400    288.36397   -115.76028    148696.19   -47525.999    3959.9847   -51485.983   0.15012914 
   88600    287.74016   -78.629878    148631.44   -47540.175    3951.4182   -51491.594   0.15396417 
   88800    289.63284    86.234325    148398.74   -47530.828    3977.4096   -51508.237   0.14979686 
   89000    292.69165    20.662196    148522.88   -47552.959     4019.415   -51572.374   0.14731611 
   89200    292.81696   -127.79699    148720.55   -47526.618    4021.1359   -51547.754   0.14722622 
   89400    291.43729    -19.51201    148576.84   -47499.038    4002.1894   -51501.228   0.15140664 
   89600    290.26581     117.6035    148398.45    -47521.28     3986.102   -51507.381   0.15165741 
   89800    290.87835    16.519959     148542.8   -47556.702    3994.5137   -51551.215   0.14798048 
   90000    289.99234   -120.93882    148675.32    -47573.12    3982.3464   -51555.466    0.1472419 
   90200    289.56171    35.719175    148514.37   -47618.717    3976.4328   -51595.149     0.136624 
   90400    285.01209    82.698158    148383.64   -47637.839    3913.9547   -51551.793   0.14422571 
   90600     289.0943   0.57006389    148526.88    -47630.71     3970.014   -51600.724   0.14806636 
   90800    289.69379   -60.202009    148619.23   -47654.221    3978.2466   -51632.467    0.1467964 
   91000    287.25987    43.478964    148466.66    -47654.29    3944.8225   -51599.113   0.14558835 
   91200    287.43568    105.30249     148381.7    -47667.49    3947.2369   -51614.727    0.1417072 
   91400     287.2447   -16.663033     148545.5   -47657.808    3944.6142   -51602.422   0.14218774 
   91600    289.74126   -102.88136    148637.79    -47662.44    3978.8984   -51641.339    0.1434677 
   91800    292.97814     36.79051    148467.31   -47639.515    4023.3493   -51662.864   0.14703217 
   92000    289.26653    110.04009    148420.18   -47654.207    3972.3793   -51626.586   0.14401664 
   92200    288.64496    -86.55551    148606.63   -47677.612    3963.8434   -51641.456   0.14126854 
   92400    286.11731   -61.087422    148606.88   -47655.523    3929.1323   -51584.655   0.14015016 
   92600    285.46819    117.14508    148397.57   -47712.589    3920.2181   -51632.807     0.142542 
   92800    286.30621    70.187933    148434.76   -47681.879    3931.7263   -51613.605   0.15031842 
   93000     290.6309   -95.732768    148697.33   -47609.921    3991.1156   -51601.037   0.14922057 
   93200    286.66434   -83.748978    148641.87   -47608.951    3936.6444   -51545.595   0.14502169 
   93400    289.23507    167.97862    148355.68   -47612.781    3971.9472   -51584.729   0.14115867 
   93600    287.54297    66.622274    148450.91   -47596.618    3948.7103   -51545.328   0.14354132 
   93800    291.75358   -136.67409    148789.26   -47587.454    4006.5328   -51593.987   0.14303528 
   94000     290.0248   -85.603488    148640.06    -47588.36    3982.7922   -51571.153    0.1499619 
   94200    289.02204    223.08725    148238.66   -47669.716    3969.0217   -51638.738   0.14301031 
   94400    286.58212    65.188898    148475.75   -47655.388    3935.5152   -51590.904   0.14241983 
   94600    289.22433   -289.56789    148930.99   -47651.021    3971.7997   -51622.821   0.13979247 
   94800    284.37887    11.041109    148528.68    -47702.92    3905.2589   -51608.179   0.14311842 
   95000    284.44024    333.63095    148075.04   -47708.701    3906.1017   -51614.803   0.14838331 
   95200    282.11442   -82.584528     148619.8   -47715.599    3874.1621   -51589.761   0.14535561 
   95400    283.27396   -343.44684    149020.63   -47725.249    3890.0857   -51615.335   0.14045328 
   95600    289.50562    207.60533    148335.74    -47689.55    3975.6625   -51665.212   0.13258079 
   95800    285.01534    349.22411    148084.67   -47652.835    3913.9993   -51566.835   0.14128401 
   96000    288.41385   -236.91449    148852.52   -47644.568    3960.6697   -51605.238    0.1409101 
   96200    283.00766   -298.74864    148928.16   -47684.645    3886.4287   -51571.073   0.14908399 
   96400    285.33835    327.36116    148120.26   -47677.604    3918.4351   -51596.039    0.1448702 
   96600    285.61639    252.20218    148218.26    -47692.17    3922.2533   -51614.423   0.14193166 
   96800    287.79027   -346.80964    149014.29    -47743.41    3952.1064   -51695.516   0.13920778 
   97000    282.65556   -142.75737    148717.66   -47726.559    3881.5934   -51608.152   0.14066592 
   97200    287.14688    431.37316    148008.67   -47713.592    3943.2709   -51656.863   0.14243837 
   97400     286.9347    49.805593    148455.53   -47670.515    3940.3572   -51610.872   0.14748985 
   97600    284.56906   -368.79012    149034.34   -47641.709    3907.8708    -51549.58   0.14484952 
   97800     290.0302    18.891847    148535.16   -47636.704    3982.8664    -51619.57   0.13906858 
   98000    289.54233    318.07019    148120.12   -47607.267    3976.1667   -51583.434   0.14701122 
   98200    288.30619   -115.28056    148636.77   -47619.835    3959.1912   -51579.026   0.14702558 
   98400    289.70951   -297.64963     148901.3   -47547.769    3978.4625   -51526.232   0.15345542 
   98600    288.54451    140.14838     148387.1   -47594.462    3962.4639   -51556.926   0.14716682 
   98800    289.67179    279.60197    148262.08   -47556.027    3977.9444   -51533.971   0.13918821 
   99000    293.32664   -116.52929    148759.67   -47560.452    4028.1351   -51588.587   0.13838686 
   99200    290.40644   -161.74652    148804.99   -47624.093    3988.0332   -51612.126   0.13609549 
   99400    287.92314    104.61518    148374.09   -47717.258     3953.931   -51671.189   0.14641455 
   99600    286.01982    125.28181    148358.93   -47741.315    3927.7935   -51669.108   0.14113346 
   99800     287.0791   -125.28097    148708.07   -47713.647    3942.3401   -51655.987   0.13859673 
  100000    284.07833   -77.423014    148637.84   -47712.521    3901.1318   -51613.653   0.13626514 
  100200    294.23369    197.09245    148325.33   -47671.172    4040.5912   -51711.763    0.1375246 
  100400    291.33093    21.519707    148474.33   -47669.753    4000.7287   -51670.481   0.14619299 
  100600    291.69412   -130.86246    148757.35   -47617.662    4005.7163   -51623.378   0.14542054 
  100800    290.98544   -28.826652    148578.28   -47647.233    3995.9843   -51643.218   0.14441228 
  101000    293.94516    189.15699    148320.95   -47629.627    4036.6289   -51666.256    0.1376869 
  101200    290.92428   -5.0580423    148560.72   -47609.833    3995.1444   -51604.978   0.13824738 
  101400    290.71128   -182.30767    148773.81   -47615.917    3992.2194   -51608.136   0.14354954 
  101600    287.05079    2.9841666    148504.26   -47631.598    3941.9513   -51573.549   0.14822764 
  101800    287.26768    157.25163    148337.72   -47597.945    3944.9298   -51542.875   0.14704735 
  102000    287.03288   -55.799145    148660.88   -47599.761    3941.7055   -51541.466   0.14119964 
  102200     293.6899   -146.96402    148771.94   -47592.495    4033.1235   -51625.619   0.13926204 
  102400    291.95515    106.73396    148448.74   -47534.885     4009.301   -51544.186   0.14253946 
  102600    291.80548    132.10904    148397.49   -47547.615    4007.2456   -51554.861   0.14622876 
  102800    288.39577   -88.506647     148721.1   -47557.518    3960.4214   -51517.939   0.14677269 
  103000    291.66764   -119.52301    148705.92   -47552.983    4005.3527   -51558.336   0.14888782 
  103200    294.44586    192.90064    148336.87   -47533.565    4043.5049    -51577.07   0.14094028 
  103400    290.27198    97.070412    148458.91    -47562.57    3986.1867   -51548.757   0.14043103 
  103600     293.5512   -161.80712    148815.93   -47565.495    4031.2188   -51596.714   0.14140369 
  103800    287.44287    -43.40411    148627.67   -47569.702    3947.3356   -51517.037   0.15110713 
  104000    288.44862    199.91858     148322.7   -47578.375    3961.1472   -51539.522    0.1496418 
  104200    287.61273   -44.649953    148552.12   -47593.231    3949.6683     -51542.9   0.14723481 
  104400    289.89259   -175.31408    148766.32   -47609.881    3980.9766   -51590.858   0.13917393 
  104600    290.80939    75.794154     148480.4   -47605.739    3993.5667   -51599.305   0.13671551 
  104800    288.03508    185.32979    148336.44   -47595.878    3955.4682   -51551.346   0.14863185 
  105000     290.4279   -144.51442     148680.9   -47625.856    3988.3278   -51614.183   0.14912519 
  105200     288.9294   -170.95399    148747.01   -47626.188    3967.7495   -51593.938   0.14472319 
  105400    283.43363     129.5464    148389.51    -47617.01    3892.2783   -51509.288   0.14292707 
  105600    288.49121    116.09604    148403.45    -47616.56    3961.7321   -51578.292   0.14037774 
  105800     286.7309   -177.18251    148791.89   -47632.441    3937.5584   -51569.999     0.143095 
  106000    290.76172   -86.079924    148689.44   -47613.475    3992.9121   -51606.387   0.14511869 
  106200    293.20005    223.25196    148300.88   -47590.377    4026.3966   -51616.774   0.14284186 
  106400    287.14872    51.171792    148475.75   -47601.705    3943.2962   -51545.002   0.14045274 
  106600    286.39207   -194.99839    148823.01   -47602.021    3932.9054   -51534.926    0.1378613 
  106800    289.83418   -16.018171    148570.01   -47595.562    3980.1746   -51575.737   0.14164893 
  107000    292.46205    238.67816    148266.25   -47553.212    4016.2619   -51569.474   0.14583562 
  107200     292.3466    6.0414343    148594.01   -47541.795    4014.6765   -51556.471   0.14389883 
  107400    291.31953   -234.40943     148857.8   -47547.656    4000.5723   -51548.228     0.146041 
  107600    293.13017    73.974765    148483.57   -47525.399    4025.4371   -51550.836   0.14316512 
  107800    290.55205    204.44201    148320.73   -47547.191    3990.0327   -51537.224   0.13949132 
  108000    295.61985   -160.89113    148758.17    -47524.48    4059.6268   -51584.107   0.14446858 
  108200    293.39113    -232.7002    148840.74   -47557.182    4029.0207   -51586.203   0.14893149 
  108400    293.42652    185.06215    148324.43   -47553.324    4029.5066   -51582.831    0.1439802 
  108600    291.36424    151.26693    148347.76   -47526.134    4001.1862    -51527.32    0.1465414 
  108800    291.75084   -231.60076    148882.07    -47548.21    4006.4952   -51554.705    0.1445488 
  109000    288.81828   -136.52512     148736.4   -47586.179    3966.2235   -51552.402   0.14648903 
  109200    290.22162    285.78705    148196.74   -47587.017     3985.495   -51572.512   0.14720094 
  109400    293.07526    93.973822    148438.23   -47573.947    4024.6829    -51598.63   0.14959432 
  109600    287.37881    -280.4937    148912.46   -47532.945    3946.4559   -51479.401   0.15075241 
  109800    292.69522   -16.945427    148558.74   -47585.733     4019.464   -51605.197   0.14247592 
  110000    291.30366    295.42858    148151.57   -47522.925    4000.3542   -51523.279   0.14953268 
  110200    292.74527   -48.531333    148600.45   -47512.016    4020.1514   -51532.167   0.14943362 
  110400      292.359   -289.69466    148915.09   -47561.412    4014.8468   -51576.259   0.14942547 
  110600    287.86453    105.26753    148415.45   -47632.619    3953.1261   -51585.745   0.14764982 
  110800    290.30133     261.8636    148200.63   -47629.338    3986.5896   -51615.928   0.14518414 
  111000    289.46859   -129.97423    148744.33    -47632.34     3975.154   -51607.494   0.14482121 
  111200    284.58022   -246.41069    148842.74   -47618.441     3908.024   -51526.465   0.14938246 
  111400    285.75966    202.43858    148273.55    -47671.77    3924.2208   -51595.991   0.14752891 
  111600    288.34856    186.79247    148257.31   -47725.867     3959.773    -51685.64    0.1455823 
  111800     283.8865   -200.87479    148768.14   -47757.096    3898.4974   -51655.593   0.14242399 
  112000    286.69687   -129.44141    148675.37   -47749.226    3937.0911   -51686.317    0.1430412 
  112200    287.10653     232.6813    148209.49   -47707.451    3942.7168   -51650.168     0.141843 
  112400    289.26647    100.84867    148413.86   -47677.272    3972.3784   -51649.651   0.14161757 
  112600    289.03633   -242.04853    148883.02   -47652.188     3969.218   -51621.406   0.14397858 
  112800    287.50762   -62.679973     148611.9   -47668.336    3948.2248   -51616.561   0.15060182 
  113000    288.58628    260.34566    148236.76   -47646.928    3963.0376   -51609.965   0.14385748 
  113200    287.50626   -19.865265     148581.9   -47683.723    3948.2061   -51631.929   0.14184503 
  113400    286.07917    -226.6508    148856.81   -47661.943    3928.6084   -51590.552   0.14298219 
  113600    291.00577    91.867131    148453.46   -47667.551    3996.2634   -51663.814    0.1432165 
  113800    293.42489    230.14303    148246.24    -47650.36    4029.4843   -51679.845   0.14317034 
  114000    290.51491   -73.978883    148668.53   -47636.561    3989.5228   -51626.084   0.14125367 
  114200     281.4264   -198.01829    148778.42   -47646.685     3864.714   -51511.399   0.14566632 
  114400     289.0465    146.38033    148344.72   -47589.406    3969.3576   -51558.764   0.15213044 
  114600    292.35807     133.6404    148350.85   -47564.056    4014.8341    -51578.89   0.14795051 
  114800    297.77163   -154.04864    148806.99   -47549.957    4089.1763   -51639.134   0.14716096 
  115000    287.95497    -108.2401    148720.51   -47577.318    3954.3681   -51531.686   0.14810749 
  115200    293.89192    176.36178    148283.75   -47592.723    4035.8978   -51628.621   0.14430066 
  115400    288.70816    111.64539    148436.13   -47605.716    3964.7114   -51570.428   0.14670671 
  115600    291.17181   -230.56012    148835.68   -47587.762    3998.5437   -51586.306   0.14450531 
  115800    290.51543   -39.843669     148566.2   -47602.626    3989.5298   -51592.155   0.14944162 
  116000    291.17593    259.80516    148166.94   -47587.838    3998.6002   -51586.438   0.14721059 
  116200    293.47701   -3.7459391    148521.97   -47606.762       4030.2   -51636.962   0.14430097 
  116400    287.48345   -286.56364    148833.33   -47646.125    3947.8929   -51594.018   0.15293095 
  116600    288.43236    97.701062    148403.11   -47657.826    3960.9239    -51618.75   0.14531307 
  116800    285.22905    265.78214    148195.56   -47612.996    3916.9341    -51529.93   0.14782484 
  117000    283.26362    -116.5862    148708.32   -47621.067    3889.9437   -51511.011   0.14918275 
  117200    288.26859   -197.70767    148837.12    -47611.01    3958.6749   -51569.685   0.14767781 
  117400    286.47534    146.27094    148321.74   -47637.089     3934.049   -51571.138   0.14695197 
  117600    289.61542    208.84943    148258.85   -47617.776    3977.1704   -51594.947   0.14270084 
  117800    291.16795   -160.92889    148760.64   -47578.857    3998.4906   -51577.347    0.1454269 
  118000     288.7783   -170.46131    148757.81   -47570.378    3965.6745   -51536.052   0.14804902 
  118200    289.42372    165.78396    148286.41   -47604.367    3974.5378   -51578.905   0.15082605 
  118400    284.82862    66.182295    148380.49   -47654.853    3911.4352   -51566.288     0.148981 
  118600    288.43002   -221.18506    148774.08   -47681.172    3960.8918   -51642.063   0.14682499 
  118800    283.40891   -26.318199    148567.45   -47730.073    3891.9389   -51622.012   0.14384695 
  119000    287.69653    199.56125    148230.41   -47729.983    3950.8191   -51680.802   0.14117038 
  119200    290.18051    19.459063     148500.2   -47731.999    3984.9305   -51716.929   0.14017792 
  119400    283.52551   -191.68457     148769.5   -47755.968    3893.5402   -51649.508   0.14106294 
  119600      288.998    26.826124    148468.64     -47696.9    3968.6916   -51665.591   0.14087964 
  119800    284.81732    171.25565     148295.9   -47692.511    3911.2801   -51603.791   0.13995912 
  120000    288.21698   -23.426307    148577.02   -47711.503    3957.9662    -51669.47   0.13829239 
  120200    285.37379   -120.99027     148666.5   -47684.015    3918.9217   -51602.937   0.14669166 
  120400    287.21498    96.565178    148434.57   -47730.181    3944.2062   -51674.387   0.14229493 
  120600    283.42613    75.745792    148421.15   -47724.516    3892.1754   -51616.692   0.14050653 
  120800    284.24717   -110.70503    148667.31   -47716.443    3903.4504   -51619.893   0.14248754 
  121000    284.88095   -67.924866    148668.17   -47700.879    3912.1538   -51613.033   0.14001655 
  121200    286.17566    69.966188     148444.8   -47699.703    3929.9336   -51629.637   0.14447905 
  121400    284.39252    34.630174    148504.61   -47698.068    3905.4465   -51603.514   0.14221355 
  121600    290.07632   -104.34542    148691.88   -47690.004    3983.4997   -51673.504   0.13986281 
  121800    283.79312    -41.95747    148606.35   -47687.347    3897.2152   -51584.563   0.14235449 
  122000    286.24713    64.447144     148445.8   -47666.003    3930.9151   -51596.918   0.14138462 
  122200     283.0439   -27.692958    148550.27    -47634.09    3886.9263   -51521.016   0.14680688 
  122400    290.44648   -93.668708    148726.22   -47588.958    3988.5829    -51577.54   0.14552873 
  122600    289.68159   -24.009122    148649.22   -47510.061    3978.0791    -51488.14   0.14573143 
  122800    295.55125    80.544907    148515.25   -47511.151    4058.6847   -51569.836    0.1410968 
  123000    291.71186   -22.242327    148576.22   -47557.822    4005.9599   -51563.781   0.14606306 
  123200    288.51136   -49.460705    148622.44   -47580.152    3962.0088   -51542.161   0.14332258 
  123400    291.86949    11.627449     148530.3   -47663.828    4008.1246   -51671.953   0.13659728 
  123600    292.09542    56.019299    148462.48    -47611.29    4011.2271   -51622.517    0.1433095 
  123800    286.99249   -25.153103    148540.91   -47631.977    3941.1507   -51573.127   0.14655271 
  124000    288.62443   -38.259326    148588.18   -47614.484    3963.5615   -51578.046   0.14488377 
  124200    287.70246    20.314553     148496.3   -47598.623    3950.9005   -51549.523   0.14290061 
  124400    289.63956    38.591452    148507.11       -47612    3977.5018   -51589.502   0.14138776 
  124600    286.84027   -51.247635     148622.4   -47630.263    3939.0603   -51569.323   0.14435131 
  124800    284.73742   -18.338753    148566.37   -47633.804    3910.1829   -51543.986   0.14187622 
  125000    286.96711    80.731639    148461.44   -47643.782    3940.8022   -51584.585   0.14192723 
  125200    284.26388   -11.328121    148540.54   -47634.603    3903.6798   -51538.282   0.14499115 
  125400    285.52205   -104.67068     148644.1   -47702.154    3920.9578   -51623.112   0.14246651 
  125600    285.72073    21.953158    148529.85   -47695.969    3923.6862   -51619.656   0.14065962 
  125800    291.80913    102.02937     148451.8   -47688.179    4007.2957   -51695.475    0.1377189 
  126000    289.05825    2.0141543    148606.87   -47655.653     3969.519   -51625.172   0.14690044 
  126200    293.55589   -73.050659    148669.98   -47635.847    4031.2832    -51667.13   0.14149642 
  126400    286.43538    98.617594    148445.11   -47663.511    3933.5001   -51597.011   0.14067737 
  126600     288.2974    96.429132    148390.37   -47689.859    3959.0706    -51648.93   0.13936383 
  126800    290.11386   -101.90303    148655.87   -47661.819    3984.0152   -51645.834    0.1428004 
  127000    283.83165   -91.896859    148693.33   -47677.719    3897.7442   -51575.463   0.14428719 
  127200    284.93293     90.63936    148390.69   -47711.859    3912.8676   -51624.727   0.14494335 
  127400    285.70422    74.730739    148433.36   -47712.056    3923.4594   -51635.515   0.14446959 
  127600    288.74378   -149.97288    148771.34   -47705.798    3965.2005   -51670.999   0.14148813 
  127800     286.2609   -30.818527     148605.2   -47693.768    3931.1041   -51624.872   0.13960021 
  128000    280.96265     224.2526    148234.16   -47690.826    3858.3454   -51549.171   0.14655892 
  128200    287.62828    70.490093    148509.09   -47657.933    3949.8818   -51607.815   0.14364466 
  128400     286.3387   -272.92427    148902.17   -47684.208    3932.1725    -51616.38   0.14128101 
  128600    286.91672    8.2198034    148527.73   -47715.966    3940.1102   -51656.076   0.13649845 
  128800    286.40947    255.92548    148158.79   -47751.626    3933.1444    -51684.77   0.14002307 
  129000    284.76823   -69.284644    148606.84   -47786.408    3910.6059   -51697.014    0.1415977 
  129200    285.30224   -252.61366    148903.09   -47741.738    3917.9393   -51659.677   0.13990041 
  129400    288.83976      126.264    148411.72     -47742.9    3966.5185   -51709.418   0.14060127 
  129600    288.53912    248.30758    148215.17   -47742.947      3962.39   -51705.337   0.14152894 
  129800    284.39737   -165.50356    148758.49   -47754.311     3905.513   -51659.824   0.14163481 
  130000    285.07117   -220.00362    148830.35   -47763.142     3914.766   -51677.908   0.14144255 
  130200    286.59187    242.17711    148255.06   -47781.503    3935.6492   -51717.152   0.13549437 
  130400    283.43466    160.58676    148288.33   -47766.803    3892.2925   -51659.095   0.14397385 
  130600    285.42578   -228.26268    148854.11   -47722.463    3919.6357   -51642.099   0.14076286 
  130800    285.38672   -144.10321    148692.44   -47742.582    3919.0993   -51661.682   0.14039195 
  131000    283.56648    263.15133    148124.46    -47760.23    3894.1028   -51654.333   0.14282107 
  131200    286.84712    110.74011    148369.24   -47734.208    3939.1544   -51673.362    0.1417825 
  131400    284.12522   -291.16412    148875.59   -47734.176    3901.7757   -51635.952   0.14516283 
  131600    283.66535    -30.71057    148497.62   -47726.839    3895.4604     -51622.3    0.1442352 
  131800    288.37765    298.36681    148088.24   -47698.556    3960.1726   -51658.728    0.1479213 
  132000    290.76321   -49.327541    148551.29   -47645.667    3992.9325   -51638.599   0.14783448 
  132200    285.73581   -273.37899    148886.83   -47650.085    3923.8933   -51573.978   0.14528446 
  132400    284.34855    53.215773    148390.68   -47653.631    3904.8425   -51558.473    0.1471373 
  132600    286.54166    286.02395    148144.51   -47629.658    3934.9597   -51564.618   0.15014355 
  132800    288.27424   -122.68637    148688.04       -47601    3958.7525   -51559.753   0.14886871 
  133000    293.20058    -240.9728    148843.94   -47595.758    4026.4039   -51622.162   0.14456819 
  133200    291.80526    175.97642    148340.53    -47542.58    4007.2426   -51549.823   0.14743475 
  133400    289.96801    198.72845    148335.21   -47529.288    3982.0123   -51511.301   0.14979266 
  133600    287.56767   -199.02428    148826.46   -47542.312    3949.0495   -51491.362   0.14803034 
  133800    288.10506   -136.56587    148770.63   -47563.391    3956.4292    -51519.82   0.14796323 
  134000    293.78604    201.01996    148361.78   -47513.889    4034.4437   -51548.333    0.1455535 
  134200    295.38011    59.639149     148474.1   -47529.127    4056.3345   -51585.461    0.1480632 
  134400    289.96817   -124.96885    148785.53   -47527.494    3982.0146   -51509.509   0.14558143 
  134600    293.96935   -64.216143    148641.23   -47544.106    4036.9612   -51581.067   0.14386274 
  134800    290.08626    133.93673    148364.96   -47586.164    3983.6363     -51569.8   0.14839079 
  135000    287.44316    4.1181398    148495.49   -47642.017    3947.3396   -51589.357   0.14472112 
  135200    289.07189     -111.749    148657.19   -47651.187    3969.7062   -51620.893    0.1413126 
  135400    289.95478   -7.1161015    148517.04   -47672.544    3981.8307   -51654.375   0.14378461 
  135600    287.93957    124.02143    148379.78   -47635.129    3954.1567   -51589.286   0.14519011 
  135800    285.72422   -14.331903    148515.55   -47705.829    3923.7342   -51629.564   0.14577325 
  136000    286.76719   -84.775014    148578.94   -47737.767    3938.0567   -51675.823   0.14536414 
  136200    287.90106       33.691    148418.41   -47748.196    3953.6278   -51701.824   0.14707248 
  136400    288.67981    74.873352    148415.41   -47702.495     3964.322   -51666.817   0.14327241 
  136600    282.41277   -104.32383    148616.31   -47645.894    3878.2593   -51524.153   0.14698137 
  136800    282.97621   -124.76573    148599.76   -47655.563    3885.9967    -51541.56    0.1542876 
  137000     288.6442    110.98688    148394.27   -47660.055     3963.833   -51623.888    0.1476327 
  137200    284.75795    29.904505    148466.97   -47691.822    3910.4647   -51602.286   0.14540558 
  137400     289.5841   -71.225949    148611.92   -47649.741    3976.7402   -51626.481   0.14446745 
  137600    285.15423    11.559623    148506.52   -47641.145    3915.9066   -51557.052   0.14853238 
  137800    291.33845    60.633936    148419.89   -47615.842     4000.832   -51616.674   0.15157246 
  138000    290.38444   -2.3779147    148550.17   -47613.582     3987.731   -51601.313   0.15052932 
  138200    288.75775    -51.87079    148608.62   -47662.566    3965.3923   -51627.959    0.1505741 
  138400     289.5514    68.632048    148468.22   -47648.659    3976.2912   -51624.951    0.1449094 
  138600    282.80503    61.311113     148426.6   -47661.767    3883.6461   -51545.413    0.1471589 
  138800    287.46353   -14.622273    148563.13   -47612.198    3947.6194   -51559.818   0.14789819 
  139000    293.01661   -53.965788    148620.09   -47600.678    4023.8775   -51624.556   0.14928434 
  139200    289.01456    85.496399    148479.23   -47601.393     3968.919   -51570.312   0.14821119 
  139400    292.35835     65.54312    148485.82   -47628.876    4014.8379   -51643.714   0.14260396 
  139600    290.06267   -114.10249    148635.74   -47610.566    3983.3123   -51593.878   0.14661329 
  139800    290.65922   -34.386491    148581.14   -47571.591    3991.5044   -51563.095   0.14741858 
  140000    293.57566    90.754713    148450.84   -47540.143    4031.5548   -51571.698   0.14946358 
  140200    287.60735    12.523509    148560.95    -47581.45    3949.5944   -51531.044   0.14836328 
  140400    291.48427   -84.136037    148668.26    -47607.45    4002.8346   -51610.285   0.15034382 
  140600    289.47132    28.561322    148533.76   -47607.044    3975.1915   -51582.236   0.14568758 
  140800    287.62595    81.224304    148455.04   -47600.234    3949.8498   -51550.084   0.14288172 
  141000    290.27093   -82.562945    148629.39   -47637.672    3986.1722   -51623.844   0.14495975 
  141200    288.99219   -63.728798    148631.96   -47589.313    3968.6118   -51557.924    0.1481372 
  141400    290.43242    94.615493    148430.03   -47594.542      3988.39   -51582.932   0.14947365 
  141600    294.50613    71.192641    148452.25   -47578.713    4044.3326   -51623.045   0.14966361 
  141800    288.69915   -117.82037    148638.43   -47630.462    3964.5876    -51595.05   0.15306119 
  142000    285.43166   -52.012785     148560.9   -47646.009    3919.7165   -51565.726   0.15394281 
  142200    287.50313    145.81807    148396.96   -47642.246    3948.1631   -51590.409   0.14607045 
  142400    283.56915   -50.862975    148562.53   -47646.852    3894.1394   -51540.991   0.15468916 
  142600    285.76063   -122.40223    148715.33   -47637.668    3924.2341   -51561.903   0.15116096 
  142800    290.42466    32.552226    148530.94   -47642.574    3988.2834   -51630.857    0.1439144 
  143000    291.93475    122.89171    148399.22   -47704.675    4009.0207   -51713.696   0.13902868 
  143200    285.49322   -19.270315    148570.76   -47672.402    3920.5619   -51592.964    0.1440917 
  143400    286.67765    -95.74259    148674.24   -47636.856    3936.8272   -51573.683   0.14755393 
  143600    285.07891    57.515404     148492.6   -47626.156    3914.8723   -51541.029   0.15026657 
  143800    289.47301    56.430698    148434.81   -47638.724    3975.2146   -51613.938   0.14859874 
  144000    287.46961   -40.266295    148622.98   -47624.944    3947.7029   -51572.647   0.14948193 
  144200    290.53808   -89.056979    148653.87   -47599.434    3989.8409   -51589.275   0.14819712 
  144400    291.42452    79.302688    148471.59   -47602.153     4002.014   -51604.167    0.1475478 
  144600    293.92718    45.075818    148479.05   -47576.505     4036.382   -51612.887   0.14816042 
  144800    292.46279   -87.071267    148688.21   -47546.522    4016.2721   -51562.794    0.1480718 
  145000    288.23373    -47.95006    148633.19   -47589.866    3958.1962   -51548.063   0.14547871 
  145200    286.19815    112.53594    148405.89   -47619.712    3930.2424   -51549.954   0.14153844 
  145400    287.84606     55.89142    148491.54   -47624.588    3952.8725    -51577.46   0.14293168 
  145600    287.43496   -150.74491    148730.11   -47642.912     3947.227   -51590.139     0.147817 
  145800     288.7814   -53.594053    148585.05   -47659.577    3965.7171   -51625.294    0.1515899 
  146000    289.61487    176.23071    148316.99   -47645.439    3977.1628   -51622.602   0.14566697 
  146200    283.35467   -18.425173    148516.58    -47677.62    3891.1941   -51568.814   0.15017749 
  146400    285.75468     -161.677    148754.78    -47629.25    3924.1525   -51553.403    0.1517123 
  146600    289.77802    67.298313    148495.31   -47593.096    3979.4033   -51572.499   0.14777168 
  146800    297.42021    202.87882    148328.77   -47551.442    4084.3504   -51635.792   0.14451098 
  147000    286.87746   -85.811466    148705.46   -47564.687    3939.5711   -51504.258   0.14626902 
  147200    295.65781   -156.19781    148837.75   -47532.249    4060.1481   -51592.397   0.14608835 
  147400    291.56921    159.67301    148395.84   -47598.426    4004.0009   -51602.427   0.14439621 
  147600     292.7876    200.92857    148285.32   -47611.976    4020.7327   -51632.709   0.14816453 
  147800    288.67862   -179.37038    148759.37   -47653.556    3964.3057   -51617.861   0.15078264 
  148000    291.63812   -140.59836    148777.37   -47617.354    4004.9473   -51622.302   0.14774792 
  148200    287.22719    232.83091    148264.73   -47659.299    3944.3737   -51603.673   0.14737744 
  148400    286.06351    114.22343    148342.38   -47708.524    3928.3934   -51636.917   0.14992434 
  148600    284.54018   -256.71225    148815.27   -47677.015    3907.4742   -51584.489   0.15187584 
  148800    284.69831   -103.48311       148623    -47680.03    3909.6457   -51589.676   0.14635702 
  149000     285.4283    239.12247    148172.01    -47686.95    3919.6704    -51606.62   0.15076649 
  149200    288.93032     76.85285    148487.58   -47694.464    3967.7622   -51662.226   0.14248107 
  149400    286.21285   -298.83484    148911.58   -47715.046    3930.4442    -51645.49   0.14512463 
  149600    289.02788    66.199908    148476.95   -47715.764    3969.1019   -51684.866   0.13950974 
  149800    288.18929    283.34967    148133.52    -47701.57    3957.5859   -51659.156   0.14972953 
  150000    289.07904   -65.633692     148624.3   -47661.525    3969.8045   -51631.329   0.15427654 
  150200    288.89453    -284.0216    148902.49   -47605.295    3967.2707   -51572.566   0.15256532 
  150400    287.63547    134.02335    148376.66   -47575.954    3949.9805   -51525.934   0.15178964 
  150600    292.25039     240.1764    148215.45    -47628.09    4013.3553   -51641.445   0.14756917 
  150800    288.95769   -138.51673    148745.86    -47590.85     3968.138   -51558.988    0.1489758 
  151000    287.07873    -238.9359    148818.86   -47630.056     3942.335   -51572.391   0.15082491 
  151200    291.80465    248.85654    148261.54   -47616.842    4007.2342   -51624.076   0.14571905 
  151400    293.93457    214.83444    148323.99   -47531.863    4036.4835   -51568.347   0.14968801 
  151600    290.37655   -307.63554    148925.06   -47517.975    3987.6227   -51505.597   0.15537288 
  151800    296.45842   -110.20369    148752.67   -47530.389    4071.1425   -51601.532   0.14976841 
  152000    288.76804    284.25907    148203.13   -47531.434    3965.5337   -51496.968   0.15527675 
  152200    290.11808      54.2682    148472.44   -47552.706    3984.0732   -51536.779   0.15667629 
  152400    293.41548   -271.74557    148922.44   -47599.712    4029.3551   -51629.067   0.14884785 
  152600    290.99243    23.110046    148518.23   -47568.753    3996.0803   -51564.834   0.14843269 
  152800    294.09925    327.81888    148164.53   -47501.865     4038.745    -51540.61   0.14886341 
  153000    293.15035   -82.838533    148680.82   -47571.838    4025.7141   -51597.552   0.14895346 
  153200    289.53687   -252.62052    148912.34   -47510.778    3976.0916   -51486.869   0.15114148 
  153400    296.01114    161.89767    148388.47   -47566.439    4065.0002   -51631.439    0.1456824 
  153600    292.07429    227.13348    148266.99   -47594.034     4010.937   -51604.971   0.14852215 
  153800    287.43338   -196.26883    148799.71   -47622.674    3947.2053   -51569.879   0.14987194 
  154000    286.42347   -235.93373    148814.52    -47636.48    3933.3366   -51569.817   0.14902111 
  154200    288.33594    249.57927    148266.65   -47582.804    3959.5998   -51542.403   0.14877331 
  154400    291.41897    156.79563    148395.12   -47578.577    4001.9378   -51580.515   0.14845439 
  154600     293.7747   -267.55374     148910.1   -47599.651     4034.288   -51633.939   0.14721298 
  154800    293.81895   -71.196636    148648.77   -47615.045    4034.8957   -51649.941   0.14302516 
  155000    294.88824    316.26096    148188.36   -47602.666    4049.5799   -51652.245   0.13999428 
[...]
  163200    293.51165    351.74018    148162.35   -47671.071    4030.6757   -51701.747   0.14525658 
  163400    283.60934    234.39875    148193.17   -47706.458    3894.6914    -51601.15   0.14342621 
  163600     287.0931   -311.79875    148994.39   -47654.356    3942.5324   -51596.888    0.1411755 
  163800    285.16169   -205.28213    148814.16   -47713.566    3916.0091   -51629.575   0.13973201 
  164000    286.31121    351.87668    148062.66   -47729.299    3931.7949   -51661.094   0.14518131 
  164200    289.30057    136.21052    148378.22   -47729.404    3972.8467   -51702.251   0.13950483 
  164400    287.35194   -349.56515    149025.48   -47670.096    3946.0869   -51616.183    0.1462031 
  164600    290.10208   -46.415832    148624.12   -47648.979    3983.8535   -51632.833   0.14937054 
  164800     283.6169    323.06863     148123.5   -47686.311    3894.7951   -51581.107    0.1488871 
  165000    284.88723   -33.614555    148577.68   -47664.421    3912.2401   -51576.661   0.15040146 
  165200     283.1945   -298.45765    148940.06   -47659.473    3888.9944   -51548.467   0.15175674 
  165400    288.09742    37.200064     148492.8   -47688.543    3956.3243   -51644.867   0.14558171 
  165600    290.31285    241.79017    148257.35   -47627.829    3986.7479   -51614.577   0.14469108 
  165800    290.94266   -70.688458    148681.01   -47652.575    3995.3968   -51647.972   0.13847093 
  166000    290.00879   -221.36289    148824.21    -47610.45    3982.5723   -51593.023   0.14567632 
  166200    286.38997    94.733911    148416.22   -47640.891    3932.8766   -51573.768   0.15136246 
  166400    288.20917    178.87159    148341.03   -47637.682     3957.859   -51595.541   0.14671887 
  166600    289.68874   -71.340291    148730.85    -47632.04    3978.1772   -51610.217    0.1435126 
  166800    288.64446    -108.1039     148711.4   -47692.205    3963.8365   -51656.042   0.14815818 
  167000    291.04742    174.86864    148318.06   -47693.428    3996.8355   -51690.263    0.1469053 
  167200    289.42641    86.017762    148435.52   -47643.201    3974.5748   -51617.776   0.14740597 
  167400    287.45726   -200.27455    148843.96   -47689.623    3947.5332   -51637.156   0.14550299 
  167600    285.85425   -108.16831     148646.4   -47670.678    3925.5198   -51596.198    0.1546063 
  167800    284.71632    207.41051    148217.39   -47738.675    3909.8931   -51648.568   0.14299154 
  168000    288.00407    81.884373    148432.13   -47726.922    3955.0424   -51681.965   0.14260237 
  168200    285.48369   -207.42293    148779.54   -47722.642    3920.4311   -51643.073    0.1494549 
  168400    288.90003    34.640799    148502.88   -47679.544    3967.3462    -51646.89   0.14593116 
  168600    287.27328    197.98532     148280.2   -47690.483    3945.0067    -51635.49   0.14886351 
  168800    285.42399   -18.287758    148593.69   -47730.129    3919.6111    -51649.74   0.14896571 
  169000    286.69384     -158.145    148731.88   -47715.477    3937.0496   -51652.527   0.15087367 
  169200    288.96258    86.059163    148437.35   -47684.937    3968.2051   -51653.143   0.14701083 
  169400    288.28053     150.0058    148360.73   -47710.941    3958.8389    -51669.78    0.1456023 
  169600     285.5023   -70.036851    148618.31   -47721.338    3920.6865   -51642.025   0.14960805 
  169800    281.71528   -103.78112    148632.37   -47727.239     3868.681    -51595.92   0.15074177 
  170000    282.73643    100.77192    148392.77   -47765.136     3882.704    -51647.84   0.14233324 
  170200    282.76661     73.87733    148401.64   -47774.876    3883.1184   -51657.995    0.1451427 
  170400    286.62263   -80.014315     148635.8   -47745.229    3936.0716     -51681.3   0.14414466 
  170600    283.79076   -97.949537    148620.97   -47726.056    3897.1827   -51623.239   0.14976213 
  170800    286.39408    87.528594    148391.62   -47750.666    3932.9331   -51683.599   0.14949884 
  171000    284.76362    105.19711    148410.56   -47748.948    3910.5426    -51659.49   0.14528596 
  171200    282.96291   -134.03888    148605.29    -47775.21    3885.8142   -51661.024   0.15437159 
  171400    286.32321   -24.331972    148526.06   -47770.302    3931.9598   -51702.261   0.14916113 
  171600    285.57392    118.01272     148329.2   -47733.877    3921.6701   -51655.547   0.14887761 
  171800    290.10978   -2.7513545    148459.22   -47713.329    3983.9592   -51697.288    0.1530881 
  172000    288.03977   -127.90492    148648.31   -47718.142    3955.5326   -51673.675   0.15008379 
  172200    284.42428     15.46356    148455.67   -47722.895    3905.8825   -51628.777   0.14862499 
  172400    288.37405    208.44365    148302.61   -47691.722    3960.1232   -51651.845   0.14062969 
  172600     286.6157   -73.141526    148605.02   -47676.186    3935.9764   -51612.162   0.14789821 
  172800    290.06021   -175.93173     148759.5   -47684.398    3983.2785   -51667.676   0.15061789 
  173000    284.81132    137.63048    148343.94   -47702.426    3911.1976   -51613.623   0.15087636 
  173200    285.42912     223.8029    148199.55   -47740.143    3919.6816   -51659.824   0.14940272 
  173400    286.36549    -237.0385    148766.71   -47726.077    3932.5404   -51658.617   0.15462461 
  173600    289.35633   -208.46824    148815.37   -47676.235    3973.6125   -51649.848   0.15017462 
  173800    288.91302    312.88568    148095.98   -47677.355    3967.5245    -51644.88   0.14892918 
  174000    284.66806      237.896    148232.19   -47641.213    3909.2303   -51550.443   0.15004988 
  174200    289.05228   -438.26939    149070.69   -47634.374     3969.437   -51603.811   0.15048344 
  174400    285.44707   -143.17206     148735.8   -47616.095    3919.9281   -51536.023   0.14548406 
  174600    290.98528    499.59209    147880.69   -47627.579    3995.9821   -51623.561   0.14218855 
  174800    285.66221    91.729447    148398.37   -47594.012    3922.8825   -51516.894   0.15530937 
  175000    285.84835   -488.61547    149166.91   -47639.259    3925.4388   -51564.697   0.15802251 
  175200    289.50807   -18.859449    148488.51   -47638.094    3975.6962    -51613.79   0.15389991 
  175400    289.39325    493.07625    147861.24    -47644.77    3974.1194   -51618.889   0.15359525 
  175600    286.55934   -120.75037    148603.53   -47659.416    3935.2024   -51594.619   0.15851039 
  175800    286.31164   -401.25408    149040.93    -47640.21    3931.8009   -51572.011   0.15282492 
  176000    286.44649    161.39921    148330.69   -47628.378    3933.6528   -51562.031   0.14410401 
  176200     292.1029    330.46959    148100.89   -47578.128    4011.3299   -51589.458   0.14972645 
  176400    291.92656   -196.46183    148774.37   -47618.868    4008.9083   -51627.776   0.14567154 
  176600    289.02608   -245.34182    148830.51   -47597.319    3969.0772   -51566.397   0.14900458 
  176800    289.43704    196.99889    148245.19   -47604.064    3974.7207   -51578.785   0.15248621 
  177000    290.01197    157.02601    148303.69   -47621.096     3982.616   -51603.712   0.15573125 
  177200    286.95869    -219.3568    148792.28   -47633.943    3940.6865    -51574.63   0.15957338 
  177400    284.31449   -108.12377    148619.88   -47723.502    3904.3749   -51627.877   0.14862411 
  177600    287.30686    238.86231    148199.44   -47687.219    3945.4678   -51632.687   0.14903258 
  177800    286.43615    74.399033    148439.19   -47667.769    3933.5107    -51601.28   0.14867863 
  178000    285.85675   -202.60292    148785.09   -47625.584    3925.5541   -51551.138   0.14815563 
  178200    289.43869   -5.9104277    148515.73   -47662.029    3974.7434   -51636.773   0.14546775 
  178400    289.74498    214.70257    148266.21   -47637.696    3978.9496   -51616.646   0.14567544 
  178600    288.72836   -37.028564    148594.73    -47654.24    3964.9887   -51619.228   0.14718608 
  178800    288.97956   -216.79901    148765.63    -47623.77    3968.4384   -51592.208   0.15038909 
  179000    292.04962      59.8839    148397.19   -47598.522    4010.5983    -51609.12   0.15384531 
  179200     293.5899    114.94096    148310.84   -47621.863    4031.7502   -51653.614    0.1594071 
  179400    286.32165   -107.11176    148652.75   -47595.105    3931.9384   -51527.043   0.15662099 
  179600    290.80567   -139.87937    148706.92   -47601.464    3993.5156    -51594.98   0.14913644 
  179800    294.55654    135.83532    148387.75   -47630.308    4045.0247   -51675.332   0.14423402 
  180000    291.47136    122.48708     148391.1   -47597.457    4002.6572   -51600.114   0.14770966 
  180200    289.79186    -120.0606    148711.78     -47558.6    3979.5933   -51538.194   0.14951054 
  180400    290.65278    -60.88327    148671.36   -47515.018    3991.4159   -51506.434   0.14842188 
  180600    292.28474    130.91504    148408.69   -47603.729     4013.827   -51617.556   0.14853548 
  180800    286.31398    11.911489    148482.58   -47568.069    3931.8331   -51499.902   0.15818056 
  181000    291.09388   -93.421826    148699.55   -47609.636    3997.4735   -51607.109   0.14531001 
  181200    287.22276   -52.549278    148608.15   -47593.039     3944.313   -51537.352   0.15661862 
  181400    288.69536    117.80119    148445.56   -47632.992    3964.5356   -51597.528   0.15291004 
  181600    284.09688   -29.079632    148553.35    -47653.82    3901.3866   -51555.207   0.15357551 
  181800    287.86612   -98.301927    148653.91    -47625.92     3953.148   -51579.068   0.14642298 
  182000    287.25533    38.147076    148532.13    -47633.25    3944.7602   -51578.011   0.14420492 
  182200    289.29507    63.022695     148448.9   -47649.948    3972.7712   -51622.719    0.1470213 
  182400     286.9101   -1.0441599    148544.12    -47650.82    3940.0193   -51590.839   0.14542499 
  182600    290.43125   -30.589544    148618.19   -47613.693    3988.3739   -51602.067   0.14283951 
  182800    289.04983    8.9422428    148541.55   -47578.134    3969.4034   -51547.537   0.15233415 
  183000    290.16748    42.006087    148505.15   -47580.713    3984.7516   -51565.464   0.15337474 
  183200    288.22268   -43.931941     148619.1    -47562.41    3958.0444   -51520.454   0.14973966 
  183400    290.57996   -51.530834    148648.25   -47570.427     3990.416   -51560.843   0.14698145 
  183600    296.14379    59.584015    148486.46   -47600.358    4066.8217    -51667.18   0.15144015 
  183800    289.07123    74.594279     148424.8    -47632.33    3969.6972   -51602.028   0.15110706 
  184000    288.99941   -61.754702    148611.34    -47645.31    3968.7109    -51614.02   0.14529235 
  184200    288.76899    -107.2638    148652.29   -47687.057    3965.5468   -51652.604   0.14360015 
  184400    283.71042    131.89727    148353.46   -47695.423    3896.0794   -51591.503   0.15063375 
  184600    291.87022    141.36433    148367.09   -47704.998    4008.1346   -51713.132    0.1414632 
  184800    292.58157   -169.84567    148766.65   -47693.194    4017.9033   -51711.097    0.1431906 
  185000    287.93587    -142.3835    148645.82   -47682.219    3954.1058   -51636.325   0.15232732 
  185200    284.69256    261.90518    148171.44   -47739.049    3909.5667   -51648.616   0.15343332 
  185400    282.91743      51.1046    148417.73   -47718.689    3885.1896   -51603.878   0.15289558 
  185600    286.74906   -320.02888    148914.85   -47721.129    3937.8078   -51658.937   0.15082243 
  185800    285.19261   -8.2864365    148543.76   -47666.537    3916.4337    -51582.97   0.15867646 
  186000     286.1662    322.02142    148097.54   -47652.996    3929.8036     -51582.8   0.15343738 
  186200    284.35767   -64.465815    148574.89   -47645.453    3904.9678   -51550.421   0.14854531 
  186400    290.98989   -300.05031    148975.59    -47593.13    3996.0454   -51589.175   0.14552388 
  186600    289.13065    134.08719     148417.3   -47627.859    3970.5132   -51598.372   0.14893406 
  186800    286.79877    340.95079    148113.92   -47653.449    3938.4905    -51591.94   0.14624265 
  187000    288.53079   -178.59754    148738.93   -47626.708    3962.2757   -51588.984   0.14703674 
  187200    288.29979   -317.76216    148953.24   -47644.036    3959.1034   -51603.139   0.14970686 
  187400    289.46977    169.48557    148291.81   -47630.648    3975.1702   -51605.819   0.15113061 
  187600    288.62754    279.00648    148177.05   -47671.432    3963.6043   -51635.036   0.14488268 
  187800    289.47826   -202.34241    148801.86   -47660.444    3975.2869    -51635.73   0.14733798 
  188000    291.20637   -207.52413     148800.1   -47634.022    3999.0182   -51633.041   0.15333295 
  188200    290.79462    280.91735    148233.16   -47624.621    3993.3639   -51617.985   0.14550522 
  188400    286.95026    148.21014    148375.67   -47612.635    3940.5709   -51553.206   0.14505712 
  188600     290.3179   -271.57852    148885.37    -47617.83    3986.8172   -51604.647    0.1466048 
  188800    290.58125   -83.548207    148644.48   -47631.047    3990.4338   -51621.481   0.15120513 
  189000    285.72929     217.8088    148206.45   -47623.131    3923.8037   -51546.935   0.15568381 
  189200    290.91765    39.388026    148509.03   -47628.345    3995.0534   -51623.398   0.14831087 
  189400    289.84485   -219.41547    148885.65     -47590.3     3980.321   -51570.621   0.15370318 
  189600    287.90895   -13.259997    148547.82   -47604.066    3953.7361   -51557.802   0.15535086 
  189800    292.32266    222.17449    148233.57   -47643.721    4014.3478   -51658.069   0.15166842 
  190000    290.12883    -78.03173    148572.97   -47675.398    3984.2208   -51659.619   0.15177376 
  190200    289.22879   -210.67607    148795.65   -47649.037    3971.8609   -51620.898   0.15391206 
  190400    287.82658    32.588865    148489.86   -47646.935    3952.6049    -51599.54   0.14984111 
  190600    290.51659    178.71957    148332.67   -47591.512    3989.5458   -51581.058    0.1421091 
  190800    287.28739   -69.789247    148643.37   -47623.537    3945.2005   -51568.738   0.14717318 
  191000    283.89631   -129.37976    148719.96   -47636.277    3898.6322    -51534.91   0.15267616 
  191200    285.10121    112.24488    148423.86   -47629.974    3915.1785   -51545.153   0.14821434 
  191400    291.17827    119.79206    148381.96   -47655.023    3998.6324   -51653.655   0.14250393 
  191600    287.87348   -65.658307    148643.72   -47609.893     3953.249   -51563.142   0.15072414 
  191800    290.16221   -105.91822    148662.31   -47643.936    3984.6793   -51628.615   0.15017958 
  192000    288.02824    114.02592    148436.68   -47644.093    3955.3743   -51599.467   0.14328486 
  192200      284.087      42.4338    148464.27   -47613.796    3901.2508   -51515.047   0.14683593 
  192400    288.40322   -105.67029    148652.12   -47622.105    3960.5237   -51582.629   0.15068622 
  192600    286.52155   -23.938943    148574.95   -47651.809    3934.6835   -51586.492   0.14945944 
  192800    287.59934    115.97039    148403.85   -47627.673    3949.4843   -51577.157   0.14345521 
  193000    289.36278    42.615973     148518.5   -47618.255     3973.701   -51591.956   0.14489154 
  193200    292.59909   -74.727279    148662.41   -47573.074    4018.1439   -51591.218   0.15411495 
  193400    290.54497   -14.452482    148565.33   -47575.058    3989.9355   -51564.994   0.15636644 
  193600    289.07675    70.829652    148485.75   -47587.145     3969.773   -51556.918   0.15290235 
  193800    286.82823    17.693494    148562.88   -47636.173     3938.895   -51575.068   0.15161606 
  194000    283.30106   -36.794066    148615.75   -47660.231    3890.4579   -51550.689   0.15111797 
  194200    287.26854    19.479804    148541.53   -47646.109    3944.9416    -51591.05   0.14493206 
  194400    288.61898    43.862689     148524.3   -47628.034    3963.4867    -51591.52   0.14836038 
  194600     290.9711   -59.282385    148617.23   -47653.527    3995.7874   -51649.314    0.1503921 
  194800    288.00244   -31.508857    148578.92   -47638.787    3955.0199   -51593.807   0.14553128 
  195000    291.22125    59.365734    148483.26    -47620.47    3999.2226   -51619.692   0.13859734 
  195200     289.5129    34.089915    148541.12    -47605.57    3975.7625   -51581.333   0.14711925 
  195400     292.4418   -59.915964    148640.27   -47609.603    4015.9839   -51625.587   0.15615975 
  195600    285.50574   -21.904294    148551.14   -47612.472    3920.7338   -51533.206   0.15345004 
  195800    285.17896     50.92869    148437.55   -47657.648    3916.2462   -51573.894   0.14811662 
  196000    286.41028   -6.3565567    148513.67   -47628.199    3933.1555   -51561.354     0.151104 
  196200     286.3416   -28.964473    148562.53   -47614.731    3932.2123   -51546.944   0.15122881 
  196400    288.92039   -11.433569    148514.28   -47615.118    3967.6258   -51582.744   0.14567657 
  196600    286.28794    19.927795    148509.15   -47680.146    3931.4755   -51611.622   0.14829063 
  196800    288.83509   -37.480701    148548.99   -47671.565    3966.4544   -51638.019   0.15511152 
  197000    282.08405    -20.88376    148554.24   -47680.974    3873.7452   -51554.719   0.14517967 
  197200    286.20609   -32.909653    148522.47   -47736.802    3930.3515   -51667.154   0.14301177 
  197400    284.88605    16.388351    148479.95   -47693.946    3912.2239    -51606.17   0.15032877 
  197600    288.75398    11.158433    148507.79   -47608.221    3965.3406   -51573.561   0.15846676 
  197800    285.86592   -83.777529     148600.3   -47595.191    3925.6801   -51520.871    0.1563951 
  198000    289.90123   -32.703788    148574.45   -47625.635    3981.0953   -51606.731   0.14693193 
  198200    287.55727    46.699119    148505.72   -47650.778    3948.9066   -51599.684    0.1460852 
  198400    289.76328    24.935947    148535.99    -47578.27    3979.2009   -51557.471   0.15229844 
  198600    287.32618    6.1989103    148593.33   -47567.996    3945.7332    -51513.73   0.15158447 
  198800    289.18346    -8.837714    148568.21   -47600.917    3971.2385   -51572.155   0.14961626 
  199000    290.03874    17.511907     148517.6   -47607.225    3982.9837   -51590.209   0.14983185 
  199200    289.89427    24.935981     148538.8   -47601.822    3980.9997   -51582.822    0.1469642 
  199400    291.18795   -9.8780603    148579.34   -47612.799    3998.7653   -51611.564   0.14288062 
  199600    291.82876   -7.1692427       148533    -47635.37    4007.5653   -51642.936    0.1440489 
  199800    290.62718    36.941469    148461.77   -47614.697    3991.0645   -51605.762   0.15209847 
  200000    289.47036    -7.864519    148535.88   -47633.842    3975.1784    -51609.02    0.1481968 
Loop time of 108.991 on 6 procs for 200000 steps with 4608 atoms

Performance: 792.728 ns/day, 0.030 hours/ns, 1835.018 timesteps/s
97.8% CPU use with 6 MPI tasks x no OpenMP threads

MPI task timing breakdown:
Section |  min time  |  avg time  |  max time  |%varavg| %total
---------------------------------------------------------------
Pair    | 75.919     | 76.928     | 78.156     |   8.8 | 70.58
Neigh   | 12.368     | 12.481     | 12.615     |   2.8 | 11.45
Comm    | 8.2576     | 9.4733     | 10.561     |  26.4 |  8.69
Output  | 3.0836     | 3.085      | 3.0906     |   0.1 |  2.83
Modify  | 5.7169     | 5.7553     | 5.7795     |   0.9 |  5.28
Other   |            | 1.268      |            |       |  1.16

Nlocal:        768.000 ave         778 max         751 min
Histogram: 1 0 0 1 0 0 0 2 0 2
Nghost:        1396.33 ave        1411 max        1388 min
Histogram: 3 0 1 0 0 0 0 1 0 1
Neighs:        0.00000 ave           0 max           0 min
Histogram: 6 0 0 0 0 0 0 0 0 0
FullNghs:      21892.0 ave       22202 max       21400 min
Histogram: 1 0 0 1 0 0 1 1 0 2

Total # of neighbors = 131352
Ave neighs/atom = 28.505208
Neighbor list builds = 12493
Dangerous builds = 0
write_data		data.${NAME}
write_data		data.ice_289K_1atm_ML
System init for write_data ...
Total wall time: 0:02:41
