LAMMPS data file via write_data, version 29 Oct 2020, timestep = 100000

8533 atoms
1 atom types

-0.241307678064274 104.43262616408177 xlo xhi
-0.1256293880776127 51.0473504049439 ylo yhi
-0.1256293880776127 51.0473504049439 zlo zhi

Masses

1 18.015

Atoms # atomic

2073 1 2.9903637446913143 1.4035280136048558 0.2501449994487191 0 0 1
1974 1 9.047969329846131 1.6341032977432097 0.5038432638487034 0 0 1
1529 1 13.936600388822082 0.28576740820121105 2.0639052991115343 0 1 1
1438 1 15.684744093168794 1.915106601272353 0.2180572150753426 0 0 1
2243 1 20.61381881480555 0.3886358053514066 1.5898683466943686 0 1 1
2629 1 22.08799511970957 2.1627435311214853 0.14253379628107582 0 0 1
2238 1 26.918475291838607 0.2699773485455993 1.8872698602442273 0 1 1
2631 1 28.419815357563635 1.7125510832461606 0.4918004447436385 0 0 1
2190 1 33.07164692777819 0.2095914918065211 2.07470952533899 0 1 1
2076 1 4.660514320828811 3.3463950828538103 1.6776972056284218 0 0 1
2082 1 6.235793555505906 5.062523023012567 0.257692542005388 0 0 1
2078 1 10.653623198659767 3.2264941457874587 1.9995098000352418 0 0 1
1978 1 12.539997609948095 4.960119969019421 0.36998970034524786 0 0 1
2079 1 17.305433060355476 3.314084843516781 1.836541547321709 0 0 1
2126 1 18.606780992842896 5.167424477599023 0.485917408643763 0 0 1
2707 1 23.749149778537223 3.3578101043145656 2.221480229677807 0 0 1
2634 1 25.392540353759493 4.602533894774544 0.4450954803643491 0 0 1
2708 1 30.23071642414716 3.1908099744768474 2.1905920918246418 0 0 1
2636 1 31.854172045591355 4.627254771315513 0.49081261268553267 0 0 1
2081 1 1.2744502689528907 6.710076229804672 1.5483534293976777 0 0 1
2080 1 3.062355345942949 8.2749826953228 0.46932427485989525 0 0 1
2083 1 7.825493942674925 6.726956383619072 2.1252694543447093 0 0 1
1985 1 9.390972826058912 8.127305194681721 0.5077331798146448 0 0 1
2085 1 14.107766670268484 6.242818349078859 2.19575654955412 0 0 1
2084 1 15.501654232510331 8.093097004373325 0.416703808235379 0 0 1
2709 1 20.346173914088457 6.447627066006879 1.9216514208499649 0 0 1
2638 1 22.25593611166488 8.071541035651643 0.4083147665860174 0 0 1
2710 1 26.848635927980737 6.419998327250149 2.12857991283607 0 0 1
2640 1 28.615919035238544 7.66359057071078 0.5600147701076345 0 0 1
2711 1 33.036027072946425 6.257367528369891 2.007124266634175 0 0 1
2086 1 4.608070229958194 9.894979886896822 2.130211635213915 0 0 1
2094 1 6.001732976051482 11.52093626008307 0.5675796796808321 0 0 1
2087 1 10.872649942949815 9.481550679885691 2.2889547912030874 0 0 1
2099 1 12.492551398422924 11.269747021791908 0.675213777940349 0 0 1
2090 1 17.28967398232545 9.275553334716191 2.0638416982238863 0 0 1
2192 1 18.90651157304584 11.195386134321659 0.706099929841787 0 0 1
2714 1 23.577006079989477 9.879670883943419 2.0418010931649206 0 0 1
2641 1 25.709057295538738 10.904692924224364 0.4962737352682507 0 0 1
2716 1 29.935805403060296 9.351062328729608 2.2395390663996 0 0 1
2647 1 31.76504972253192 10.757664325836837 0.5157393633638788 0 0 1
2093 1 1.0478866017993718 13.440642335921293 1.9880502959877742 0 0 1
1994 1 2.7749971960083992 14.906412906052815 0.5927288216543655 0 0 1
2097 1 7.375728447159794 13.107881148965422 2.234722584269133 0 0 1
2096 1 8.692145462102575 14.428233316484308 0.5331015921176815 0 0 1
2100 1 14.2031332086343 12.730769134646872 2.0962905944495667 0 0 1
1991 1 15.671319854623466 14.034819685557855 0.29325536669963964 0 0 1
2717 1 20.632353336015903 13.108097076192884 2.1604469107724467 0 0 1
2718 1 22.73903409746653 14.289026623882014 0.3615448943614302 0 0 1
2719 1 26.646496828729365 13.081590896262846 1.8727555521201844 0 0 1
2645 1 28.60040481871687 14.2147773679334 0.5281520270799904 0 0 1
2720 1 33.5054004668312 12.466273850599158 1.8922308587982486 0 0 1
2103 1 4.595557590797972 16.402214737046407 2.185226982606024 0 0 1
2005 1 6.26305657632545 18.032282764014425 0.5708874374120526 0 0 1
2104 1 10.453297378623155 15.885390248927138 1.9883886311167553 0 0 1
1997 1 12.384794332557801 17.484814635579337 0.6129371349124829 0 0 1
2092 1 17.094312199509606 15.841398511183087 2.0415164941235253 0 0 1
2259 1 18.960208604304956 17.348761093925724 0.4854975664011184 0 0 1
2721 1 23.850154820878096 16.093134686871803 2.1672465924088264 0 0 1
2725 1 25.472436122189563 17.531703201315548 0.7816041646102789 0 0 1
2722 1 30.196510272530105 15.665326205776864 2.274873249332368 0 0 1
2657 1 31.77850478078571 17.08655652724405 0.40209477169811236 0 0 1
2022 1 1.3275377383220015 19.547092485164764 2.1068394167778077 0 0 1
2665 1 31.497949952220424 24.14894753093449 0.049871093878900985 0 0 1
2004 1 3.1398287814530863 20.838687491624952 0.484875282421396 0 0 1
2101 1 7.858730627515316 19.541849805660547 2.3397986774851356 0 0 1
2016 1 14.132995903985199 18.894267827327077 2.1327917422619267 0 0 1
2000 1 15.813388840413552 20.682688656234294 0.41017559460320385 0 0 1
2724 1 20.431922311345414 19.181678425216482 2.0687078158201007 0 0 1
2723 1 21.982628507509798 20.869909680608053 0.7478147328720007 0 0 1
2726 1 27.173314090084983 19.319738046305748 2.3678876228785324 0 0 1
2729 1 28.6660116405205 20.788179757922816 0.8814369897924437 0 0 1
2727 1 33.38959381840463 19.056448935472517 1.8755148738322691 0 0 1
1445 1 -0.16522698460686272 23.915116458316756 0.46175702118229667 0 0 1
1810 1 4.646138689256904 22.620346401422676 1.7512022962763805 0 0 1
2013 1 5.832872350232799 24.07896656518738 0.11425946937748474 0 0 1
2014 1 9.330833080499813 21.218219616819457 0.6996104008712445 0 0 1
1924 1 11.002941505082468 22.48913921273934 2.513416157437949 0 0 1
2098 1 12.702686913331856 24.098976369048202 1.0269129111793767 0 0 1
2091 1 17.460014764999546 22.446580157867803 1.6045983639675114 0 0 1
2728 1 23.618217898083504 22.47391470399629 2.3555272105943224 0 0 1
2733 1 25.101144474173815 23.82246293186991 0.5856993195850155 0 0 1
2730 1 30.339019144727633 22.65247997506736 2.00131430220188 0 0 1
2089 1 1.0282150930268965 25.750231689815646 2.1631904741267025 0 0 1
2026 1 2.98953455166691 26.82586282277305 0.46548324468371327 0 0 1
2055 1 7.3505717336060945 25.534068949104896 2.0081331234289914 0 0 1
1890 1 9.449555296572784 27.011007907368082 0.425719006868139 0 0 1
1987 1 14.287629586174313 25.85207333993203 2.411092429812002 0 0 1
2732 1 20.33459288924007 25.759002690897265 1.9622508805386882 0 0 1
2376 1 19.171563176420896 24.271763809051816 0.07039429638710568 0 0 1
2734 1 26.31990208028812 25.717336116385525 2.2162514976524785 0 0 1
2763 1 28.33789516763714 24.31993694841984 3.245839516703682 0 0 0
2736 1 32.920042964578734 25.38025215599924 2.0813505016666247 0 0 1
2735 1 34.48240992513964 26.994666678151674 0.6535779249145117 0 0 1
1903 1 4.456656982690897 28.74677719693373 1.7192799082425718 0 0 1
1827 1 11.016720231342642 28.92733798001913 1.8557365273829625 0 0 1
2024 1 15.68150538186922 27.19275318092898 0.6480665130179337 0 0 1
1804 1 17.291000876481235 28.774462863885944 1.8949746907031009 0 0 1
2731 1 22.114111163963074 27.397227338468806 0.6030341107306383 0 0 1
2739 1 23.53871503045033 29.00388049207728 2.0158945842371545 0 0 1
2669 1 28.081189883602196 27.32156715037232 0.8773540857637909 0 0 1
2740 1 30.055718682379567 28.940917776879303 1.7594611393502735 0 0 1
1779 1 1.5774114426320616 31.633916397209884 1.904977519779306 0 0 1
1428 1 -0.22777188356826222 30.267573849328098 0.535732029808438 0 0 1
2028 1 6.297524445348158 30.266476381631072 0.4842446034115043 0 0 1
1723 1 7.486290043120277 32.02763158720828 2.2098205451322004 0 0 1
1643 1 14.410133973872849 32.15083507033091 2.0966180722244814 0 0 1
2030 1 12.49714536907974 30.481795602108114 0.4205622220015005 0 0 1
2741 1 20.288420767646908 31.91125663587004 2.425271972090458 0 0 1
1588 1 18.841552063935 30.59783170567999 0.3791391349446307 0 0 1
2744 1 26.37687273051615 32.37279398176954 2.152942834475299 0 0 1
2738 1 25.181858010961125 30.70979455283384 0.3695600102526342 0 0 1
2745 1 31.328496430011334 30.50233147195737 0.2467513784618861 0 0 1
2746 1 32.84599109200212 31.946424981805492 2.1780103990635906 0 0 1
2129 1 -0.1149220466403495 33.497432289791995 3.255596447236365 0 0 0
2095 1 4.680792608531544 35.08427714471255 2.0639296627701498 0 0 1
2031 1 3.026223329324684 33.574730680327534 0.49988679092357247 0 0 1
2035 1 9.017814833165204 33.63924779756736 0.5937549185990906 0 0 1
2102 1 10.850977929539406 35.383108978437726 2.355344604020634 0 0 1
2075 1 17.45127850414318 35.097883434291184 2.1184339459708155 0 0 1
2043 1 15.682705115247357 33.59799271084219 0.333551117003237 0 0 1
2742 1 21.75864319091235 33.59939517136002 0.9616905931431889 0 0 1
2737 1 23.376566957230853 35.519459745890295 2.0281898772982787 0 0 1
2683 1 28.031020302139474 33.48162543495386 0.5450164259823728 0 0 1
2743 1 29.741230190005318 35.177291747502046 2.3796068245164173 0 0 1
2106 1 1.2326225495002792 38.360167637529436 1.7851673481564636 0 0 1
2074 1 7.872057867695791 38.31831182224466 2.1983625529912465 0 0 1
2040 1 6.141764691933677 36.9794936726298 0.6237964639984455 0 0 1
2105 1 12.34768322438017 36.83750808943418 0.7819960480102688 0 0 1
2062 1 14.39410483658529 38.34088045237076 2.4031156491077206 0 0 1
2123 1 18.760138847221246 36.69999235513994 0.18664249256553184 0 0 1
2748 1 19.859352072020993 38.44967360807922 2.148495770064216 0 0 1
2620 1 26.691556273273353 38.60366135638778 2.2612979014114605 0 0 1
2715 1 25.32145158164386 36.74538840532052 0.6147165244789177 0 0 1
2747 1 31.295890261284406 36.62845772767632 0.7460512176087126 0 0 1
2713 1 32.948006814815216 38.32494496711698 2.0977167554213207 0 0 1
2037 1 2.850868940180289 40.13934333957261 0.28532508973073506 0 0 1
2044 1 4.547012846746956 41.877341093696984 1.8903866458214815 0 0 1
2047 1 9.120872948627065 40.03760805882255 0.7071054282922944 0 0 1
2009 1 10.867010168653739 41.49887518441168 2.2023907953795048 0 0 1
2050 1 15.950500064593442 40.226834354447874 0.6732639819921472 0 0 1
2688 1 21.889252064242374 40.22804132114302 0.5216814820501283 0 0 1
2658 1 23.601256369435127 41.969207854411536 2.0151002614862805 0 0 1
2649 1 30.310442322515907 41.823606464242445 1.999888315249971 0 0 1
2627 1 28.373765329384643 39.69282690064383 0.6041615417161206 0 0 1
2637 1 34.36855920032658 40.001449808462816 0.7168810566043207 0 0 1
1981 1 1.247031104469929 45.12149806632123 1.9412933401915713 0 0 1
6253 1 0.1254014005404595 34.433273056973384 15.907264890042637 0 -1 1
1958 1 7.694586514047834 44.749923952013425 2.437747545054865 0 0 1
1951 1 6.377521148430939 43.357507959646526 0.4813998546143956 0 0 1
1944 1 14.029164943405444 44.8886826695864 1.9413982449766598 0 0 1
2053 1 12.460649677693015 43.13545773486151 0.5768041537204774 0 0 1
2001 1 17.41814481025366 42.23661652039099 2.4361963234583794 0 0 1
2592 1 20.83092631899388 44.92002500006886 1.7440928324513392 0 0 1
2113 1 18.816178169039276 43.75835822808264 0.2877056669130676 0 0 1
2445 1 26.946523567654708 45.05625787620414 2.1629782790292826 0 0 1
2666 1 25.45730207918816 43.443428745362326 0.5543305525619431 0 0 1
2419 1 31.750127286610244 43.418725331436725 0.4404177399520095 0 0 1
2403 1 33.48231100576775 44.951505868601664 2.150628253337817 0 0 1
1930 1 2.868058370292069 46.44286435328775 0.37099629882480134 0 0 1
662 1 15.589012979491796 50.07047230714984 22.960258508075906 0 0 0
1855 1 4.118641413583801 47.98592538421354 2.085906366960109 0 0 1
1711 1 8.973212354976287 46.568351102002865 0.7953583327239483 0 0 1
2060 1 15.567770637545012 46.84369468955129 0.7200410125958563 0 0 1
2194 1 19.16879976749504 46.94253176214056 3.1198798959621965 0 0 0
2519 1 22.21067880246823 46.98987544920807 0.5441051631424269 0 0 1
2302 1 30.222304722747207 48.07783256575789 1.9289323300720742 0 0 1
2292 1 28.528566466754114 46.47699926331189 0.5050526056301031 0 0 1
1649 1 1.2651843458337981 -0.10867102956377304 2.0956042528834384 0 1 1
1615 1 5.978622765828228 49.58746670979753 0.5518677188742046 0 0 1
1595 1 7.646432392548486 -0.10574023991006802 1.9243447183019815 0 1 1
1704 1 10.871554776497332 48.24366474442932 1.9639318118636262 0 0 1
1513 1 12.21440356555967 49.907719888533855 0.5105503696021048 0 0 1
1655 1 17.064091450011208 48.60477747792567 2.0112419937215984 0 0 1
2109 1 18.760113956411878 49.8076734289009 0.5208596954378945 0 0 1
2342 1 23.939193564449425 48.5557404218721 2.0536305273307174 0 0 1
2701 1 31.39928080362747 49.896707151726616 0.4064033048040856 0 0 1
1909 1 -0.16082053217138498 1.6617320567090819 3.2719738935189673 0 0 0
770 1 6.0690069533507325 1.6016031711531813 3.755776909808984 0 0 0
93 1 11.161690301134705 0.10260982647255873 5.380901394297897 0 1 0
1383 1 12.516773044446271 1.7372103121363436 3.5311816842899133 0 0 0
5 1 14.203227444587553 2.8668007069136228 5.166613425531367 0 0 0
95 1 17.590842138782733 0.2870969886294998 5.374381895342046 0 1 0
2537 1 19.10286821057897 1.9283410921576056 3.5332120335696726 0 0 0
845 1 23.77006836703305 0.18809296347483256 5.1978121625821 0 1 0
1372 1 25.482331303003875 1.7367239006171085 3.79237377922161 0 0 0
848 1 30.053380045495043 0.14209052746582002 5.440416782378743 0 1 0
1077 1 31.849732673010152 1.8396845949084677 3.9460245273175714 0 0 0
1385 1 2.7861049934071955 4.927355068737786 3.2696101104922053 0 0 0
1 1 1.442368729929265 3.19271337008699 4.969096699020093 0 0 0
2 1 7.693941136032921 3.069835525118362 5.196139437811482 0 0 0
88 1 9.077773998002769 4.9185315108602 3.7306752035490787 0 0 0
1424 1 15.912139417084347 4.623284331917382 3.577726107854827 0 0 0
773 1 20.53131225323942 3.8059018976379053 4.980094959916439 0 0 0
2201 1 22.255075812577076 5.200674914567809 3.577013365491292 0 0 0
775 1 26.83583499897097 3.5027741234967333 5.283143168905031 0 0 0
2751 1 28.7277901296581 4.900080347646592 3.6292368055743505 0 0 0
777 1 33.46145453300865 3.2554181366369472 5.398299202393928 0 0 0
2144 1 -0.09340555301184841 7.882679047987105 3.431714750825195 0 0 0
10 1 4.347298163876062 6.4660634904765 5.105156615192663 0 0 0
263 1 5.9442744128761795 8.261479579298154 3.6901548615497295 0 0 0
19 1 9.160633514246685 8.115619423176621 6.45306096567689 0 0 0
12 1 10.91868866708385 6.298140508793731 5.235729583118759 0 0 0
2138 1 12.577046134376213 7.856574282038434 3.5989796257147906 0 0 0
14 1 17.293846863559256 6.256673774747526 5.4110216553526715 0 0 0
1226 1 18.897419777052953 7.950576076081566 3.927452908626856 0 0 0
780 1 23.57778390395954 6.625841580946241 5.157096879291071 0 0 0
2472 1 25.068671462319603 8.12809379512259 3.5463435883009953 0 0 0
781 1 30.214962176666678 6.630678805744372 5.23664096791278 0 0 0
1369 1 31.898849329107954 8.307503395217394 3.8938679090865023 0 0 0
2140 1 2.8840253765396087 11.542443077662886 3.459232198993217 0 0 0
15 1 1.2915732379812026 9.704565916225093 5.038784377229801 0 0 0
1426 1 9.107536565733827 11.380938987451712 3.549176077142105 0 0 0
17 1 7.4327867803603125 9.966854670940675 5.279618885846142 0 0 0
20 1 14.009585547933513 9.740084938297136 5.2852475930531675 0 0 0
2141 1 15.739002672142867 11.037642472074632 3.567131005768367 0 0 0
783 1 20.540333178362843 9.610054362738268 5.3966132539314575 0 0 0
927 1 22.057078587573635 11.423452878489432 3.6852976138938063 0 0 0
786 1 26.77110793401813 9.650451625430502 5.093974145966281 0 0 0
2756 1 28.569071312823386 11.263859488734937 3.503611683874168 0 0 0
788 1 33.44558520594452 9.634811546611488 5.467200878419631 0 0 0
767 1 5.9711012603819125 14.868017903724725 3.751036321602268 0 0 0
22 1 4.432173109308012 13.318229060694664 5.37757135998952 0 0 0
1692 1 12.130083028501295 14.406805254159046 3.519639932603064 0 0 0
23 1 10.422266558878926 12.776740369341839 5.168756667351571 0 0 0
25 1 17.29688330620015 12.877755544898614 5.255561331178227 0 0 0
2161 1 18.904689270781578 14.37245711766656 3.58602455169164 0 0 0
790 1 23.719506950376513 13.050105397165625 5.530617623720813 0 0 0
1363 1 25.236764457335628 14.532655267290824 3.9815245887114656 0 0 0
793 1 30.50456730528123 12.641055654030453 5.3567494846536885 0 0 0
1378 1 31.98269358436484 14.132408928885827 3.704164093272449 0 0 0
26 1 1.1174788800770312 16.392047570118013 5.35421413337999 0 0 0
637 1 2.916432191136179 18.084330102075718 3.8740561947967698 0 0 0
27 1 7.9181315172977165 16.267001887455432 5.293641376861514 0 0 0
2151 1 9.248781054201295 17.793888073985087 3.561192021205485 0 0 0
29 1 14.042341074405106 15.642897001141247 5.290909425833404 0 0 0
764 1 16.018520861925072 17.442530166812272 3.82205006114213 0 0 0
794 1 20.366916746250258 16.094372723051563 5.217342152462093 0 0 0
2760 1 22.202319882493054 17.66187639028167 3.539258282751005 0 0 0
796 1 27.16223743449462 15.922201344097939 5.2845598521475745 0 0 0
1370 1 28.731455451899063 17.695353847612786 3.953952239070606 0 0 0
799 1 33.39482176952411 15.992240543365977 5.027874212714981 0 0 0
31 1 4.500600732069511 19.679140854947317 5.496595657497607 0 0 0
32 1 10.953103440853576 19.29955811192862 5.105014006753684 0 0 0
491 1 12.568230397880981 20.85606278557281 3.8167999474846566 0 0 0
35 1 17.263334602586124 19.478588805328066 5.248673687281928 0 0 0
2444 1 18.897693265890307 21.09085258812067 3.478079903745505 0 0 0
800 1 23.882568173754436 19.225967279970394 5.415882661362348 0 0 0
1377 1 25.263877419208775 20.61705421585819 3.6751354688761086 0 0 0
801 1 30.48374624011131 19.08998088118012 5.636495685435014 0 0 0
2222 1 31.622368886779746 20.55642313009327 3.5952828366891145 0 0 0
37 1 1.1410151768443533 22.42114616269767 5.275054293771453 0 0 0
9 1 2.9778404059567105 24.068371238584003 3.7808987983499938 0 0 0
2136 1 6.186936363233648 21.29115804916138 3.4523649016504065 0 0 0
41 1 8.038236878233437 22.603870870628562 5.539990229338276 0 0 0
43 1 14.161972635972171 22.25829743945427 5.318727229274366 0 0 0
1504 1 15.718498513115305 23.75603145009415 3.515639479753667 0 0 0
804 1 20.52013049747337 22.540051386470648 5.308867043018011 0 0 0
806 1 26.884380105668782 22.443321335559297 4.99553243215772 0 0 0
808 1 33.12821113249661 22.6249908183654 5.253897068498896 0 0 0
45 1 4.59376321309085 25.747329248695664 5.437986649294324 0 0 0
2146 1 9.31046232848909 24.258494024640388 3.6479264106709572 0 0 0
47 1 10.793914000551782 25.77730568038056 5.2093581788047585 0 0 0
49 1 17.301882619863445 25.682237110369023 4.997103460290693 0 0 0
2754 1 21.91052480222972 24.322415321400896 3.4293729150600143 0 0 0
810 1 23.260030302900077 25.476492434804136 5.3190792223010215 0 0 0
811 1 30.17644612095923 25.687694953522286 4.809349923870332 0 0 0
1373 1 34.44426821513898 24.23294069913298 3.7280682566296623 0 0 0
51 1 1.444540142612012 28.658703687258146 5.088609251506162 0 0 0
16 1 5.962498740386602 27.312727329543915 3.744999753521969 0 0 0
762 1 3.2984393404243417 30.144710410048035 3.9019831652077333 0 0 0
53 1 7.771428880567953 28.757375404305808 4.9901393035387125 0 0 0
543 1 12.415532815884472 27.37284844742371 3.7588604583482 0 0 0
55 1 14.181329807483161 28.840555980117575 5.230368792680086 0 0 0
2117 1 18.75926990429735 27.427487441451646 3.5932501744741407 0 0 0
812 1 20.465417975083565 28.61932375110087 5.338390414439975 0 0 0
958 1 24.821782779601634 27.34178951762608 3.905789211109351 0 0 0
814 1 26.77064750967904 28.914275408079245 5.263214925479731 0 0 0
2206 1 31.878656334196826 27.563230279545373 3.360863538105188 0 0 0
816 1 33.20473848118531 28.820211860149588 5.375941006653933 0 0 0
56 1 4.879895123145973 32.085282564470674 5.603435103023329 0 0 0
2135 1 9.217331674138407 30.342835532154666 3.53774905619632 0 0 0
57 1 10.979500356749904 31.906280469732238 5.078481754656376 0 0 0
1387 1 15.676955323557294 30.30626244698231 3.616493414220985 0 0 0
59 1 17.180606975519403 31.72411518676658 5.403361949933423 0 0 0
1368 1 22.04788077551543 30.506626553993044 3.8991481952122253 0 0 0
817 1 23.47442280760964 32.09374241019279 5.287761481499074 0 0 0
2757 1 28.23255292705214 30.54539065951491 3.435302817257912 0 0 0
818 1 29.880110753030507 31.792335688681757 5.322045132523859 0 0 0
60 1 1.660743949065626 35.1745870300641 4.980012035318623 0 0 0
736 1 6.181154991915043 33.889040303385315 4.100372084077329 0 0 0
63 1 7.9737758824083595 34.995005388648806 5.838814657602864 0 0 0
772 1 12.597367881271166 33.485900266147155 3.6805648422929567 0 0 0
65 1 14.01943289494199 35.0565436549332 5.468831735763748 0 0 0
11 1 18.757066044322865 33.76452649758652 4.212774099854483 0 0 0
821 1 20.6344930459243 35.392820555503086 5.401255358685509 0 0 0
785 1 24.82915705444607 34.193254826487596 3.9977763460197195 0 0 0
822 1 26.5740389713411 35.2645951795814 5.8554706472741955 0 0 0
1374 1 31.343745164244726 33.49577810027792 3.998254178081199 0 0 0
825 1 33.08892950071146 35.26674240976294 5.193662865023045 0 0 0
1555 1 3.1289540518022445 36.78167031231365 3.505058494127793 0 0 0
67 1 4.577267238446658 38.14442103385419 5.395912530399761 0 0 0
292 1 9.242181536182661 36.813933379200186 4.093352269526375 0 0 0
69 1 10.962315006194423 38.51334421981615 5.5617207318071635 0 0 0
768 1 15.862654821419714 36.716401150469494 3.8924385851066745 0 0 0
71 1 17.345381782176105 38.49287887987039 5.588296679544694 0 0 0
2767 1 21.80506919512798 37.13142279723061 3.56345126067951 0 0 0
826 1 23.653655385216386 38.66627970078334 5.201023549425201 0 0 0
836 1 27.58011496921039 36.447429632754975 3.7326791378767874 0 0 0
829 1 29.733743223504423 38.356386845600724 5.178977365083407 0 0 0
8025 1 -0.07103069620556052 29.58738174200607 20.27894229582277 2 -2 1
4 1 -0.12783028974521315 40.06580054939852 3.6931041648346605 0 0 0
72 1 1.7697100992026673 41.48996560750632 5.087777881121014 0 0 0
2137 1 5.883672716500599 40.17064518455209 3.405703671502414 0 0 0
74 1 7.470658431193818 41.49954391103541 5.507754071096946 0 0 0
78 1 12.686068001549254 39.99838343216563 3.8769029792952665 0 0 0
76 1 14.312366468002914 41.69963550872213 5.253542333297825 0 0 0
676 1 18.779043739712346 40.151236566582064 4.11003822272838 0 0 0
832 1 20.53343233447269 41.86999300620459 5.395405262795968 0 0 0
962 1 25.318791865314036 40.473193900967026 3.7503839528764686 0 0 0
925 1 31.70067364437963 40.082274338845416 3.7690569256170847 0 0 0
837 1 33.261478072566874 41.58964683943772 5.442698219890263 0 0 0
2142 1 2.87198576822848 43.30114626199796 3.448805114445386 0 0 0
80 1 4.263454349511023 44.7942159975985 5.214373223125856 0 0 0
766 1 9.533938226135158 43.16993190003634 3.9163916293980554 0 0 0
765 1 15.447927084546787 43.68377656275366 3.7912800863594542 0 0 0
1375 1 22.122312957701947 43.513615476305056 3.8203365373463134 0 0 0
834 1 26.91197841112561 42.23927213356279 5.060749976993231 0 0 0
2755 1 28.833756826502377 43.492988868999056 3.542478904812297 0 0 0
840 1 30.462722337315746 44.89440941575783 5.127885603663195 0 0 0
84 1 0.9675136554450785 47.98043006576564 5.018808417335158 0 0 0
168 1 5.8237017731187395 46.66368712173725 3.826953747966766 0 0 0
82 1 10.915511643384527 45.323283325724624 5.328916237614045 0 0 0
1430 1 12.53533752735381 46.800508082695906 3.6434969722636716 0 0 0
87 1 14.211964734588262 48.21384958163914 5.27904182566162 0 0 0
83 1 17.570656109443973 45.31053481257368 4.9165375921410215 0 0 0
841 1 20.557434616311866 48.217903109021954 5.241564675462479 0 0 0
839 1 24.019838617614184 45.46884164151425 4.753574477230002 0 0 0
2195 1 25.717168514485827 47.086784501737384 3.49422753543864 0 0 0
2706 1 32.12049892137746 46.64432745141482 3.5938783081509285 0 0 0
843 1 33.60057836362074 48.06850006204405 5.199977429452764 0 0 0
86 1 2.6082302579941383 49.51328319676681 3.690555722821387 0 0 0
91 1 4.556523622299041 50.81889953222569 5.233673690001456 0 0 0
85 1 7.878609088365659 48.2620448491022 5.134646782284614 0 0 0
2148 1 9.43294424740759 49.94031984134003 3.5436597424152443 0 0 0
365 1 15.439622382549583 50.173327994889256 3.809862996723243 0 0 0
2753 1 21.918611669464983 49.94306750280245 3.505148124534228 0 0 0
842 1 27.335565631989738 48.725812280692836 5.440914562859154 0 0 0
2203 1 28.72388217205729 49.75270429731583 3.6373787491074907 0 0 0
90 1 2.871176249637697 1.5728942401553014 6.82556707960395 0 0 0
189 1 1.3834252413582728 0.25806206067220583 8.567130421449582 0 1 0
3 1 9.309002123893897 1.269005152573087 6.920092927034134 0 0 0
6 1 15.9039150321487 1.4564207919966503 7.02574469020982 0 0 0
926 1 20.669204131165664 0.5844014977597567 8.452473501125121 0 1 0
850 1 22.152699943312857 2.1026506510914693 6.474497915220772 0 0 0
928 1 26.9627768270108 0.2986721037290755 8.786545078196733 0 1 0
776 1 28.826253413098474 1.91457267423668 6.92531836859112 0 0 0
206 1 -0.04354117093543364 4.932026880458397 6.652595133072071 0 0 0
97 1 4.397380658278145 3.135885775002556 8.468111144347947 0 0 0
105 1 6.129963056741939 4.803067934543593 6.917214631777779 0 0 0
100 1 10.64700324756489 3.1372855283844276 8.616192884949534 0 0 0
7 1 12.414820056516833 4.407989009673678 6.803685832563686 0 0 0
103 1 17.57561589888234 3.3111096976352985 8.67793183382337 0 0 0
1246 1 18.976132274543495 4.901529544300065 7.02187520100544 0 0 0
851 1 23.909652598144277 3.5361233186369474 8.194377166548104 0 0 0
856 1 25.529640328253873 5.687752210264772 6.6694726946687934 0 0 0
854 1 30.29369984373829 3.504576901288776 8.691676107455896 0 0 0
860 1 31.731017115688356 4.935243163409443 6.846958974388622 0 0 0
104 1 1.5513206410342395 6.83011366613548 8.381738125060245 0 0 0
109 1 3.118146605463624 8.337523825323096 6.77001690127112 0 0 0
106 1 7.657712444599296 6.5334503225505305 8.16392608808923 0 0 0
108 1 13.961081622680448 6.144304234803665 8.353725808308978 0 0 0
13 1 15.661103008364293 8.103557146795143 6.901926837740801 0 0 0
855 1 20.292502637168585 6.7163398987119916 8.564915487257768 0 0 0
857 1 22.047639690915915 8.215291539047943 7.0976006471259385 0 0 0
858 1 27.211808390312598 6.9065158671988796 8.5000397717515 0 0 0
787 1 28.708404817248056 8.192806184516837 6.815542228000926 0 0 0
861 1 33.29192590806972 6.418040730096114 8.208225859200702 0 0 0
18 1 5.920839807737456 11.523681735312634 6.972048778914403 0 0 0
110 1 4.567333603359898 9.916274252275631 8.279501831934232 0 0 0
24 1 12.17889204864518 11.532359565801414 6.697179008049611 0 0 0
112 1 10.530481425438843 9.726730641080668 8.21370796384451 0 0 0
114 1 17.39538735987482 9.563941595233436 8.318409978683624 0 0 0
791 1 19.02132963336407 11.229227730404133 6.845834159610313 0 0 0
862 1 23.691888229087983 9.61846019457334 8.573692801135637 0 0 0
784 1 25.25682041225268 11.275845808666974 7.005571665360311 0 0 0
864 1 30.529412933932026 9.736513089531979 8.618061863725034 0 0 0
792 1 32.12051235798499 11.346282268585972 7.059900060597442 0 0 0
21 1 2.5143381368042306 14.63722431901319 6.883816715891689 0 0 0
118 1 1.0358274488591535 13.070910802446384 8.310126298866065 0 0 0
120 1 7.786115530314401 12.958729920322785 8.460691692515937 0 0 0
28 1 9.27276920164952 14.647376857842508 6.935107665879694 0 0 0
30 1 15.508980499594209 13.98530909896665 6.783537267859528 0 0 0
122 1 14.031786475637473 12.726363095971832 8.610944057137559 0 0 0
866 1 20.275174681129357 13.183925285248469 8.247979403966985 0 0 0
867 1 21.981543925232398 14.633996893902706 6.716330641109104 0 0 0
868 1 26.971510316585064 12.997288386484005 8.516475785694839 0 0 0
797 1 28.47287577045628 14.097088112192463 6.635453057800265 0 0 0
869 1 33.53850937760259 12.78121957486224 8.660241582006522 0 0 0
131 1 5.8816851806384225 17.84402268724348 6.827039582926617 0 0 0
124 1 4.055756119952469 16.21386554421817 8.565398001505939 0 0 0
125 1 10.946073980841105 16.479743678485473 8.332333818627546 0 0 0
34 1 12.776862718562409 17.513138556295182 6.502896055753864 0 0 0
127 1 17.021335316422295 16.154601621740692 8.062844805748922 0 0 0
741 1 18.780862817217702 17.72539737792406 6.608165574786077 0 0 0
871 1 23.762282600968707 15.926012888975112 8.354048680049731 0 0 0
872 1 25.574218671522853 17.52491081817927 6.9710201140182155 0 0 0
874 1 30.05997938798135 15.805179110753551 8.321387611780374 0 0 0
873 1 31.905463928066517 17.23429264368083 6.898718460761825 0 0 0
345 1 -0.101821120637035 18.493154157747092 6.864365323219805 0 0 0
129 1 1.2689648251227497 19.937738766951803 8.71027617320531 0 0 0
132 1 7.8176713226818535 19.360242557727492 8.521631901887709 0 0 0
42 1 9.73229184172969 20.818432780628086 6.995661875090833 0 0 0
134 1 14.18132724789334 19.0902989327711 8.177030064683484 0 0 0
235 1 12.663022563053422 20.646308769931675 9.636131499887643 0 0 0
138 1 15.749593842145345 20.845501669334304 7.107702390427974 0 0 0
875 1 20.689024861549346 19.25707872401161 8.10469010124991 0 0 0
876 1 22.215574256978677 20.872363755193632 6.861529262318662 0 0 0
878 1 27.08767222522221 19.24144397770183 8.538222389464073 0 0 0
802 1 28.657631976251317 20.7864682527987 6.783056528591354 0 0 0
880 1 33.44657921812396 19.144197206470043 8.151277820730416 0 0 0
39 1 2.970956721948919 21.283791860097118 6.968321427716035 0 0 0
135 1 4.759166798276331 22.598305667230374 8.255718337908245 0 0 0
137 1 11.179140716316553 22.493232353635783 8.25656550561603 0 0 0
139 1 17.10747712075916 22.47928736984654 8.615650605428574 0 0 0
881 1 23.601152399560956 22.738561586163303 8.436109204345254 0 0 0
807 1 25.32445567845557 24.108480014058685 6.666431111090941 0 0 0
882 1 30.446266347368375 22.249934854405584 8.172949445847904 0 0 0
965 1 28.479176686545866 24.02514964591273 9.61463858696623 0 0 0
141 1 1.320481811513825 25.359894050386362 8.592573087877195 0 0 0
40 1 6.227927426888206 24.216457252128766 6.925283455427728 0 0 0
142 1 7.960995500670371 25.662809583847515 8.714625580008615 0 0 0
144 1 12.558272789607766 24.157744438886404 6.956147410556675 0 0 0
145 1 13.920275640959476 25.686203272568697 8.504086520084531 0 0 0
739 1 18.717998639663676 24.212162056713623 6.75794865612912 0 0 0
50 1 15.631555145852566 27.10405827011944 6.848812274164868 0 0 0
884 1 20.1614257932561 25.64292900696657 8.516507791596998 0 0 0
813 1 22.00545448515467 27.01713980831994 7.03826903481134 0 0 0
888 1 26.838299061483227 25.975931790151844 8.20202464095549 0 0 0