LAMMPS data file via write_data, version 29 Oct 2020, timestep = 200000

4608 atoms
1 atom types

-0.01914686946709665 57.28965686946606 xlo xhi
-0.017019439526677616 50.92413943952685 ylo yhi
-0.017019439526677616 50.92413943952685 zlo zhi

Masses

1 18.015

Atoms # atomic

5 1 1.7467081183684372 1.4573578513942742 1.2744073346010742 0 0 0
13 1 7.971743748222561 1.335001600300351 1.5004863186809496 0 0 0
11 1 9.57994909892972 50.497575317735276 3.2171219420869415 0 -1 0
145 1 0.18317430503639603 38.173925550397946 0.0038311542833817346 0 0 0
21 1 14.453399332364524 1.1328286275950534 1.4710856388987408 0 0 0
19 1 16.146867813586855 50.68419541220513 3.322325232939733 0 -1 0
18 1 12.67258340506691 2.667474869175017 3.1012089743447238 0 0 0
242 1 0.37576442464590143 16.242291042675827 9.506410050471514 0 0 0
76 1 3.2756619992467004 22.244402387765398 0.09125311570874735 0 0 0
8 1 4.6393066605969295 4.7168132019406706 1.4098897014286953 0 0 0
1657 1 18.9879077239291 31.899399249189486 0.5212951859078798 0 0 0
16 1 11.182802818495306 4.549603022462138 1.5399084110961152 0 0 0
43 1 15.905086482231631 6.347355998548417 3.199032964504753 0 0 0
24 1 17.530899639748135 4.508312307083195 1.7144564006905674 0 0 0
29 1 1.5965527255776792 7.94156877990892 1.3437992014203775 0 0 0
105 1 6.247651007424539 25.474986783212806 0.05550645573086198 0 0 0
37 1 7.711697944807917 8.202744167051103 1.583611411796926 0 0 0
34 1 6.206168909290363 9.752962786574296 3.2688572509219 0 0 0
35 1 9.432210286770232 6.359367072783097 2.7520724455972974 0 0 0
45 1 14.260579409982535 7.97693703025854 1.5892162261763554 0 0 0
51 1 2.8141272120666576 12.853288954065045 3.1809997167958524 0 0 0
32 1 4.723821327479925 11.539892588276464 1.6811480956843223 0 0 0
40 1 10.688487930930417 11.00070241692912 1.473219783051383 0 0 0
42 1 12.437656868241346 9.761603781267157 2.995154251732294 0 0 0
48 1 17.533923193247098 11.10128880162539 1.5596559770286917 0 0 0
53 1 1.423197366236074 14.600663302885904 1.6578900162103771 0 0 0
61 1 8.194982482510895 14.476148416171085 1.5975743799143833 0 0 0
59 1 9.543869978782967 12.863398397232288 3.2320729461249407 0 0 0
69 1 14.293195895262658 13.854692740431947 1.5948540255164296 0 0 0
67 1 15.753609705561106 12.204140994349835 3.081145936595871 0 0 0
56 1 4.791958487555224 17.87380348066501 1.7996671569187046 0 0 0
64 1 11.217071507873184 17.495831996648274 1.4097476983357609 0 0 0
98 1 0.39458486327480613 28.487051232770554 3.101532295748251 0 0 0
66 1 13.033089262532002 15.716995463806981 2.801695994873485 0 0 0
72 1 17.500516897717457 17.67410273764835 1.5527975699140883 0 0 0
530 1 0.03166365509138519 41.2762028971439 16.284288887177375 0 0 0
77 1 1.4466337557481144 20.604169479678752 1.5790661955771599 0 0 0
953 1 12.66507943579699 44.508065024639976 25.315690674717125 0 0 0
75 1 3.2688075352127828 19.47164303712446 3.265145721644665 0 0 0
82 1 6.511952997919967 22.391859803392247 3.2222904376413806 0 0 0
85 1 8.314578018255833 20.786118554795888 1.842877526774643 0 0 0
83 1 10.001442029685434 19.00825932144569 3.292370113843793 0 0 0
93 1 14.412319642830898 20.442012019345245 1.622553747493323 0 0 0
746 1 0.1625274448179547 47.741120166976664 21.964930037387518 0 0 0
80 1 4.884725510961552 23.916233529602557 1.7413069331861117 0 0 0
107 1 9.445774280677961 25.53559668762864 3.258739484471713 0 0 0
88 1 11.058557797497231 23.946082716842838 1.5136489485477276 0 0 0
860 1 16.02601432883526 22.180445352260477 25.344163424751954 0 0 0
96 1 17.538901285742448 23.85141769544408 1.302295212315909 0 0 0
115 1 15.875664044966271 25.267203485606057 3.1461438624926177 0 0 0
101 1 1.7488703138033532 26.815249718587857 1.3934125782603954 0 0 0
99 1 3.0770503833412515 25.49392792037426 3.490304756315725 0 0 0
109 1 8.048902571519667 26.91350259232507 1.2953606171296972 0 0 0
114 1 12.619570972556811 28.44607856918013 3.256496208402893 0 0 0
117 1 14.431594646706158 26.99633008187567 1.5345703762271952 0 0 0
104 1 5.169642843629764 30.22728339803799 1.9060530886283082 0 0 0
112 1 11.24335637371163 30.049041134303412 1.3833280707739402 0 0 0
139 1 16.037552106702076 31.87527398752455 3.5646240836220633 0 0 0
120 1 17.418140434227897 29.86764910949415 1.7068292093125343 0 0 0
125 1 1.9641563748221544 33.303474333782944 1.285276337302698 0 0 0
745 1 0.2135815452220487 44.45493890366456 18.959109873201513 0 0 0
828 1 9.611525608934436 16.43059775491195 25.403656369616435 0 0 0
133 1 8.250390647514742 33.12465498343967 2.140433500243969 0 0 0
138 1 12.935924121583982 35.1679395235808 3.4028900890735154 0 0 0
141 1 14.270384956812157 33.18593203108675 1.7720210879313347 0 0 0
577 1 0.10225614875839828 50.89273785241313 18.95921424102122 0 -1 0
128 1 4.868299558698877 36.260701937880725 1.6994114111966632 0 0 0
155 1 9.518022938994942 37.941660766677 3.36543117309734 0 0 0
136 1 11.22624397181144 36.62805911269812 1.8645157872526568 0 0 0
163 1 16.206510314451926 38.52354201916789 3.050782461939808 0 0 0
144 1 17.582215802104535 36.60768064435882 1.890978924974705 0 0 0
149 1 2.072659983672531 39.59204528949881 1.3925847368897384 0 0 0
602 1 0.02283984489646891 9.884628893926697 21.984722083186103 0 0 0
157 1 7.7494088374416075 39.601582934891056 1.8107782051021382 0 0 0
780 1 9.135880123484394 3.5270565761348656 25.208339217580527 0 0 0
165 1 14.562075080676959 39.80082518051315 1.5576455494232746 0 0 0
766 1 14.771953055095025 49.58766620357369 23.684270567187227 0 0 0
161 1 12.942679952409836 38.10679460644269 0.18684977654519283 0 0 0
338 1 0.07404488130933463 41.42020542154337 9.595754518509224 0 0 0
152 1 4.555818747819207 42.88226974378236 1.5186427049279558 0 0 0
162 1 13.133964114031082 41.5848646634321 3.0613406321001184 0 0 0
160 1 11.179639280677849 43.409091278309276 1.632699505363305 0 0 0
168 1 17.806533881241688 43.396396880254485 1.222071331473734 0 0 0
173 1 1.2738687164293139 46.05495891864284 1.323908035806021 0 0 0
181 1 8.155627819027263 46.33537829896302 1.4392546881791668 0 0 0
172 1 2.9076207784530483 47.58130536973887 0.0012935299372981053 0 0 0
189 1 14.46209953417397 46.287387611556085 1.5830368011265308 0 0 0
12 1 9.349702493949092 3.1758502112466025 0.0412427108413092 0 0 0
187 1 16.373181983863482 44.9820740124245 3.06426802975583 0 0 0
3 1 3.169450612673795 50.80017445197597 3.12299733951187 0 -1 0
176 1 4.847643995390408 48.88137960373362 1.5378612448667839 0 0 0
178 1 6.207379681967778 47.132886117912484 3.514911932879371 0 0 0
184 1 11.424772955256655 49.3361311254916 1.6844639946097766 0 0 0
186 1 12.998203828834898 47.5928964419181 3.2004754519489285 0 0 0
192 1 17.826634224596273 49.51983517353962 1.6779721697288674 0 0 0
434 1 0.01423419644409809 15.948881591482097 15.981800628163697 0 0 0
7 1 4.689176564012267 1.4007714790099117 4.758569106488952 0 0 0
196 1 3.294346927058707 3.245731517963663 6.105001715979904 0 0 0
201 1 6.5015902456011165 50.86696668357393 6.2979720076921994 0 -1 0
15 1 10.912270653664624 1.4021652906953013 4.906022267309053 0 0 0
209 1 12.846927759426059 0.1544369644917808 6.361785963950799 0 0 0
212 1 16.13512117364504 3.454559097466661 6.560368239549929 0 0 0
23 1 17.81147261728614 1.575251608283828 4.9674991456883015 0 0 0
6 1 1.8551975486288306 5.079318051491805 4.672562724798412 0 0 0
10 1 6.414404468525444 3.06087675659669 3.2142558646653256 0 0 0
14 1 7.935668840928339 4.783913989293956 4.455675259905372 0 0 0
204 1 9.380348306468981 3.28032839648988 6.169270150227449 0 0 0
22 1 14.21228137498075 4.396419755190775 4.644669315185271 0 0 0
27 1 3.415372624715584 6.5803295315131285 3.067682961479699 0 0 0
31 1 4.8584080900679885 8.15237845297061 4.570760405952889 0 0 0
225 1 6.506191343681809 6.689860121819496 6.104562543340699 0 0 0
39 1 10.796243445264105 7.9636394195796 4.505245820744585 0 0 0
233 1 12.758251888092259 6.593837862775328 6.234714849169228 0 0 0
47 1 17.63200911531298 7.8015413833227365 4.6095033947682005 0 0 0
820 1 3.3670165941587213 15.88874744720666 25.23887294698931 0 0 0
650 1 0.23689841223654878 22.207600577230966 22.40318881400929 0 0 0
220 1 3.0776044041203883 9.455438193307923 6.1320397309019254 0 0 0
30 1 1.3418925303417695 11.293624150593326 4.601254877649515 0 0 0
249 1 6.2716224947893 12.697520254359043 5.992895201199535 0 0 0
38 1 8.063526879136612 11.181919455703628 4.75118114886672 0 0 0
228 1 9.696314878805875 9.615199120684416 6.301159926055666 0 0 0
46 1 14.282686098827853 10.95053898582857 4.9007957198068395 0 0 0
236 1 16.104613394383456 9.594448901493232 6.2294319289921205 0 0 0
55 1 4.3490021590839465 14.423237626948177 4.855442998813434 0 0 0
63 1 11.210071886627082 14.687987157386127 4.623368130569072 0 0 0
257 1 12.685944590750585 12.965701825488024 6.090888119096166 0 0 0
71 1 17.259544854059687 14.364225268933655 4.3550230490367605 0 0 0
758 1 7.6393185830038135 49.470910537779666 23.629873011535246 0 0 0
54 1 1.574040281277977 18.131303692046554 4.999706189292191 0 0 0
244 1 3.006522956877715 16.254266655463713 6.54796406476834 0 0 0
58 1 6.167180486389572 16.046475052414063 3.124463592328416 0 0 0
62 1 8.094948722962659 17.556258848124873 4.811862678246117 0 0 0
252 1 9.60495966273753 15.850621033462145 6.478921753354442 0 0 0
70 1 14.43159209798039 17.287461084258922 4.468723612526284 0 0 0
79 1 5.0494269883181415 20.780576974665298 4.547077868488991 0 0 0
273 1 6.499207993592629 19.205805416184923 6.4499236610228685 0 0 0
87 1 11.442149296632588 20.67594967798143 4.547921440125634 0 0 0
91 1 15.993201688680369 19.03521330769315 3.4039350377785054 0 0 0
95 1 17.34532100226479 20.662063888086287 4.905482289664832 0 0 0
268 1 3.4749128093824972 22.198466462741596 6.31425855202141 0 0 0
78 1 1.6253385875270925 23.530442922527175 4.882502731935234 0 0 0
86 1 8.237664516149001 23.83207263520412 5.004037133662789 0 0 0
276 1 9.73434831768862 22.12290055891738 6.473561801186989 0 0 0
90 1 12.815427207662774 22.33339621525433 3.2530233809516806 0 0 0
94 1 14.171648607155133 23.855367022014455 4.794391773365322 0 0 0
305 1 12.860279289853034 25.953875066547344 6.1139541423485 0 0 0
750 1 1.7283535997338848 49.24403012363973 23.88775656123106 0 0 0
103 1 4.850783092175555 27.15936185239932 5.005150063169867 0 0 0
297 1 6.7907614083014005 25.18216531472369 6.715566721337297 0 0 0
111 1 10.72780289176966 27.518252714742747 4.9268434671454076 0 0 0
308 1 16.01724046088827 28.603830847518246 6.014130812648416 0 0 0
119 1 17.671142265072778 27.059984138527284 4.644185081375111 0 0 0
102 1 1.5314874203774016 30.374014601381408 4.83189471637847 0 0 0
123 1 3.0597341091797587 32.00863289815798 3.249911016955928 0 0 0
106 1 6.515379275259605 27.984126892761047 3.0208763440446833 0 0 0
110 1 7.391063752865853 30.04600649275503 4.5237534143447515 0 0 0
131 1 9.782234933309015 31.435989301545774 3.490766408825634 0 0 0
329 1 12.9293468326655 31.921325665002602 6.440617511229757 0 0 0
118 1 14.195084427591016 30.232560955610566 4.7965018051864 0 0 0
130 1 6.593288405571187 34.961669377417806 3.2971639498583465 0 0 0
127 1 4.8050320667082085 33.426140991636636 4.66850571857859 0 0 0
135 1 11.292993331835397 33.22399069662487 4.698189610190208 0 0 0
332 1 15.785724429272868 35.05924532071091 6.598531119391297 0 0 0
143 1 17.539557034480644 33.553106797107645 5.281361004725941 0 0 0
126 1 1.6619926619641419 36.50479232390553 4.280712925505721 0 0 0
134 1 7.990281822129761 36.56504953367766 5.297433980111482 0 0 0
142 1 14.535820094700021 36.86523294325508 4.7185477795171105 0 0 0
177 1 6.109443207781407 44.74380530648419 0.13711257052662545 0 0 0
147 1 3.693089298752697 38.06370667114346 3.13567785865616 0 0 0
345 1 6.3498316355930084 38.36968074673739 6.717973537183933 0 0 0
151 1 4.734600911284603 39.65275205356728 5.080970071144708 0 0 0
340 1 3.1214338727848148 41.60900203373052 6.626442794108078 0 0 0
353 1 12.821440657078817 38.469755032803256 6.214433807027333 0 0 0
159 1 11.42560627545598 39.99401797511063 4.67629543820077 0 0 0
167 1 17.43219473958392 40.12613094691235 4.863678670570797 0 0 0
356 1 15.656632690765909 41.64276160499485 6.346773399651222 0 0 0
150 1 1.4612500596866975 42.81080472325289 4.740181998271634 0 0 0
154 1 6.18617666051013 41.26740751565219 3.087833124612898 0 0 0
158 1 7.734877379732208 42.85662428663486 4.7302008606103705 0 0 0
348 1 9.506198107718776 41.20439181343949 6.44027931706544 0 0 0
166 1 14.637261011850743 43.353589048174186 4.354878653840514 0 0 0
377 1 13.153892869961474 44.28205962231145 6.584837221850719 0 0 0
171 1 2.8184816815213933 44.45121418986451 3.328856579376889 0 0 0
175 1 4.538096501267041 45.83081603928116 5.090402992150453 0 0 0
369 1 6.251139083240379 44.646246428716765 6.47456121513013 0 0 0
179 1 9.423163000893355 44.6285436096542 3.159320259224988 0 0 0
183 1 11.342561971746177 45.818361571385005 4.640382628832139 0 0 0
191 1 17.95052232969589 46.37835387732393 4.890615211825551 0 0 0
174 1 1.688014834076614 49.49092349351675 4.857168064952799 0 0 0
364 1 3.129867135590423 47.45640828490781 6.716457035862728 0 0 0
182 1 7.796667738337763 49.046550486173594 4.786957354886861 0 0 0
372 1 9.581063156154444 47.36472061578744 6.141485066399732 0 0 0
190 1 14.455717675517807 49.17726981913766 4.64685772218166 0 0 0
380 1 15.774173341393045 47.65898332566367 6.335451994134177 0 0 0
197 1 1.740621647738677 1.6532273116291774 8.009708080502842 0 0 0
195 1 3.3074288537572816 0.1808624526650063 9.502446087346327 0 0 0
205 1 7.95926351908341 1.6034002817110256 7.951798628017624 0 0 0
203 1 9.634972412466096 50.62409329015671 9.321081696246898 0 -1 0
213 1 14.108660928631384 1.7982433913109173 8.041701014390549 0 0 0
200 1 4.681375403157543 4.993114312561901 7.627446070171518 0 0 0
219 1 3.242909762513856 6.377789953659796 9.474308856268195 0 0 0
202 1 6.0958395144557285 3.0955558712013604 9.39434042259029 0 0 0
208 1 11.090510714532343 4.863872181695673 7.7511747442725385 0 0 0
210 1 12.403424753908505 3.2722401271714614 9.715514156757122 0 0 0
216 1 17.53819298145744 5.063097703236352 8.201437253618701 0 0 0
2 1 0.26710563202346743 3.189288295480305 2.950759627112401 0 0 0
221 1 1.4080589954315266 7.946975029852864 8.021756306610474 0 0 0
229 1 8.094717844492639 8.002635893483674 7.922039306627489 0 0 0
227 1 9.664546084843888 6.308110369700938 9.304349550349867 0 0 0
234 1 12.724551101262547 9.64502843047205 9.409832556641565 0 0 0
235 1 15.98377922559844 6.46868860716867 10.022431657362146 0 0 0
237 1 14.491183761222036 8.066969121946855 8.141845627787577 0 0 0
224 1 4.758137668611423 11.017429297684856 7.698602809008296 0 0 0
232 1 11.29008856461011 11.441865515642906 7.797198789673378 0 0 0
240 1 17.92841669386222 10.936057424309855 7.803827082384897 0 0 0
801 1 6.311644823568486 6.163365067389714 25.087661125765386 0 0 0
772 1 2.8772513334580965 3.173539912154963 25.308096409291274 0 0 0
245 1 1.6129204068414447 14.472500632571771 7.954553438271084 0 0 0
251 1 9.478162818196695 12.903263230580313 8.960129327321008 0 0 0
253 1 7.691072385056847 14.282760739042583 7.7105676269652745 0 0 0
261 1 14.331052541469436 14.087067067278081 7.740663024139574 0 0 0
259 1 16.03377129113779 12.818767024243044 9.376584534839164 0 0 0
409 1 0.10977171592737617 6.541742443762419 12.041202883857215 0 0 0
248 1 4.695439269806102 17.7294159561602 7.8553804351855865 0 0 0
250 1 5.774157525475537 15.454970791198491 9.450823700049966 0 0 0
256 1 11.235835637316503 17.41702895156364 7.93181392638054 0 0 0
258 1 12.72911266057844 15.607998765798762 9.47509972171402 0 0 0
260 1 15.552459049543673 15.6618816786673 6.189197046823693 0 0 0
283 1 15.27205065339844 19.16776407707831 9.021201545464399 0 0 0
264 1 17.138812132682336 17.69166162121748 7.552232222493161 0 0 0
940 1 3.0793543173680717 47.55773259009698 25.340358962207812 0 0 0
269 1 1.6448592983172017 20.75411750835396 7.802327831449006 0 0 0
277 1 8.187213511419765 20.829626862077607 8.25495310334934 0 0 0
275 1 9.378698249292157 18.977287966707046 9.7972475663248 0 0 0
281 1 12.919732337567028 18.83686594555047 5.921631430222339 0 0 0
285 1 13.87672984552564 20.801538096599437 7.6298998590885665 0 0 0
284 1 15.709374109054197 22.34415442615332 6.455848352481163 0 0 0
272 1 4.817478190420448 23.795544021324606 8.12426220759811 0 0 0
274 1 6.508093138668166 22.368337258576997 9.698230534607054 0 0 0
299 1 9.764729411986874 25.46618038184077 9.600725606852315 0 0 0
280 1 11.199498488340618 24.41706428867951 7.740419538620026 0 0 0
282 1 12.30853410453793 22.67849671102082 9.225877330351473 0 0 0
288 1 17.50970923319339 23.966313036671785 7.991333993873077 0 0 0
194 1 0.29422255289952415 3.1690665065617822 9.509872956059953 0 0 0
763 1 15.962679808566907 44.42043681264617 22.320429647361895 0 0 0
292 1 2.949336252954468 28.74962519095139 6.39798052224577 0 0 0
293 1 1.585088280365323 27.065017721351563 8.231632049189587 0 0 0
301 1 8.000453650760058 27.080314228475842 8.314883715741653 0 0 0
306 1 12.832851103814077 29.28257133612307 9.372751066613871 0 0 0
309 1 14.418307777731787 27.290171995150654 8.096244575529765 0 0 0
289 1 0.06418285079565773 25.46528847918442 6.562817447718486 0 0 0
321 1 6.357385674743834 31.885736238011308 6.135485484012268 0 0 0
296 1 4.597489674831985 30.15538911103834 7.8170908858728785 0 0 0
300 1 9.07304831499517 28.85968337629889 6.507409715080218 0 0 0
323 1 9.409372619349039 31.82371737889155 9.451552291370712 0 0 0
304 1 10.796822709334068 30.55043668964685 7.751542419191214 0 0 0
312 1 17.184934147543444 30.083457858459663 8.09714482555882 0 0 0
317 1 1.4671171289761462 33.316540035760255 7.679566075730199 0 0 0
316 1 3.3537529222078306 34.95837376235522 5.986103107126148 0 0 0
322 1 6.339866001343758 35.16557748387473 9.331336687503741 0 0 0
325 1 8.009453197426115 33.49412123540507 8.053338836477794 0 0 0
333 1 14.2283085422364 33.53262341209688 8.21867603694979 0 0 0
33 1 6.22950403883589 6.504608079341011 0.0008943702470675906 0 0 0
320 1 4.593032101935863 36.62185027639333 8.071270750537742 0 0 0
324 1 9.631465899932808 34.6927923431489 6.424090381309682 0 0 0
328 1 11.151384827055736 36.755909667710704 7.894251931711386 0 0 0
330 1 12.379456480303432 35.11636253792138 9.637400290877705 0 0 0
336 1 17.2617246884829 36.85091404716171 8.177263838247576 0 0 0
722 1 0.0712565354091109 41.10831603576468 22.323575082718346 0 0 0
341 1 1.3737963115335423 39.950014624843405 7.836028124029339 0 0 0
349 1 8.08773623673628 39.76107877827717 8.258670370973311 0 0 0
347 1 9.330062258899462 38.144154766573514 9.543563509109921 0 0 0
357 1 14.011961566388141 40.110024370543364 8.00254269564598 0 0 0
344 1 4.56048403678417 43.27231516448067 8.43939879601628 0 0 0
363 1 2.972233760362917 44.73902301175066 9.912123747352787 0 0 0
346 1 6.035126593351854 41.28749147808484 9.623407751183212 0 0 0
371 1 9.34383868023397 44.6378432936062 9.600917467551525 0 0 0
352 1 10.990578848292433 43.00692079160732 7.916702920394289 0 0 0
354 1 12.391548043497606 41.40671310081753 9.954918604221518 0 0 0
360 1 17.330506536780916 42.99320424593247 8.302271660209696 0 0 0
365 1 1.3936184933092794 45.954220511675906 8.014674823394486 0 0 0
373 1 8.03423050034287 46.12954450745822 8.00793632625756 0 0 0
381 1 14.544519709509956 45.93588503440198 8.169232624253505 0 0 0
378 1 12.623320700404014 47.72654650076957 9.346844832916467 0 0 0
379 1 15.989044895437267 44.70596331001716 10.027516213838153 0 0 0
266 1 0.1118657923098283 22.315721036636628 9.583992291358559 0 0 0
368 1 4.941975742499214 49.14601186680473 8.18322910181464 0 0 0
370 1 6.631442007104228 47.72142780100019 9.613452973240177 0 0 0
376 1 11.159583810429618 49.2209887764511 7.698341413710822 0 0 0
211 1 15.395024765206546 0.019823998121333772 9.805661451810844 0 0 0
384 1 17.081776139648476 49.2975323183962 8.202962456899035 0 0 0
132 1 9.513412152336164 34.935861958862574 0.4023802793082517 0 0 0
199 1 4.829632929271448 1.4292046039507116 11.505723132238346 0 0 0
388 1 3.736295148556045 3.343517806483751 13.111778770109488 0 0 0
207 1 10.866578043283056 1.552431890180637 11.009549247355421 0 0 0
215 1 17.497340955537393 1.8733107733325762 10.968226861618994 0 0 0
198 1 1.9738793093955138 4.66881424440138 11.07685054435273 0 0 0
206 1 7.929747311325087 4.856573758950477 11.003118705917815 0 0 0
396 1 9.73774214993419 3.299538456824308 12.735696830771305 0 0 0
404 1 15.878077381616212 2.9918081542671366 12.852565036446698 0 0 0
214 1 14.487656830289747 4.6205125476837585 11.128725659443992 0 0 0
223 1 5.011257273849697 7.876257952466925 10.89650182967324 0 0 0
417 1 6.43335360498108 6.445610777587555 12.533285663859981 0 0 0
231 1 11.177538380512184 8.014245464285324 11.079026555145164 0 0 0
425 1 12.622927623453974 6.265085154454493 12.643913618297775 0 0 0
239 1 17.512346901053892 8.058588224982083 11.350649083535238 0 0 0
386 1 0.22788717759554 3.747078297099221 15.68944429724834 0 0 0
222 1 1.6779602588127491 11.01959552655989 11.218095704440396 0 0 0
412 1 3.5174799929113076 9.561154548669412 12.57421247104864 0 0 0
226 1 6.494215315377831 9.595417746615025 9.510672679895858 0 0 0
230 1 7.990054436091363 11.410375276713149 11.131349003642137 0 0 0
238 1 14.49098092998403 11.283965553634825 10.922250226313857 0 0 0
243 1 3.227206804032955 12.839100237475733 9.579800948586081 0 0 0
441 1 6.229836942432212 12.545230514254579 12.612545686987593 0 0 0
247 1 4.33530710262202 14.265518591381314 11.482641736896705 0 0 0
449 1 12.767726883345313 12.76739237118362 12.988885622362353 0 0 0
255 1 10.972713576045846 14.166290252577149 10.996370433823024 0 0 0
263 1 17.51604747512588 14.381598262301575 10.807076502030991 0 0 0
2329 1 19.0777913172612 6.407381113491614 25.29912814592781 0 0 0
246 1 1.5186276675690482 17.959842786701817 11.2701185454866 0 0 0
254 1 7.681408115760132 16.863547879085182 10.687583818613827 0 0 0
444 1 9.338090154410054 15.585836683036 12.509237153871625 0 0 0
262 1 14.305404766017112 17.486495804200192 11.210231237380713 0 0 0
452 1 16.030575221888327 15.975372482852212 12.827651903042087 0 0 0
267 1 3.237256662597642 19.23970944911933 9.373953187829823 0 0 0
271 1 4.728155756867634 20.76625007443344 11.052048442229605 0 0 0
279 1 10.937226828606168 20.85673381459097 11.203432369567112 0 0 0
468 1 9.53748873668849 22.243066084214504 12.859457887614939 0 0 0
287 1 16.801160547604642 20.507625097502586 10.863774659041608 0 0 0
270 1 1.5458631672150513 23.890226262274837 11.119177333413065 0 0 0
278 1 8.192120536692363 23.90190169460657 11.32833683919672 0 0 0
286 1 13.94891819370746 24.223732976184504 11.150369624401558 0 0 0
291 1 3.3103147916259545 25.578258263645385 9.658608862378427 0 0 0
295 1 4.963425322492878 26.897894284251038 11.114258646004505 0 0 0
303 1 11.084364449618993 27.37349751164772 10.898192330630305 0 0 0
307 1 15.954809233524442 25.34645067869365 9.751801437666222 0 0 0
311 1 17.348340736514032 27.119770435012224 11.449376098820741 0 0 0
767 1 17.56574719577403 46.37060073905026 23.749983511978858 0 0 0
294 1 1.7679722211594608 30.42670345757487 11.056441033771032 0 0 0
298 1 6.199731359358265 28.81958814998354 9.422968942590202 0 0 0
302 1 7.469905242922009 30.572952405361065 10.784918921660822 0 0 0
492 1 9.22869584959565 28.96708176434375 12.628651511173091 0 0 0
310 1 14.452374270891601 30.22215713421137 11.326623575383993 0 0 0
500 1 15.879555122170412 28.759137832655497 13.053930335836036 0 0 0
50 1 0.20907307000044223 16.69285107909095 3.1616308917119373 0 0 0
315 1 3.3113120028160394 31.92057456905267 9.369068463762918 0 0 0
513 1 6.144768860359406 31.81478541747689 12.820337246986096 0 0 0
319 1 4.686367862084931 33.77650200456145 11.161605413849744 0 0 0
327 1 10.787790715482428 33.449755689040444 11.160516691124492 0 0 0
331 1 15.774162532680291 31.87480321511486 9.482973852362932 0 0 0
335 1 17.49070446656026 33.37089086374654 11.101164301859612 0 0 0
318 1 1.3981605826361638 36.350197140829295 11.126229739728933 0 0 0
326 1 7.799566178859357 36.768576309526026 11.16101646862472 0 0 0
516 1 9.166617228823766 34.990621277246895 12.553232398733517 0 0 0
537 1 6.144633127948246 37.88653217616163 13.009006406385792 0 0 0
334 1 14.006033475493767 36.97896344473716 11.227319308135122 0 0 0
529 1 0.007358344663287331 38.139084514383015 12.801410143085723 0 0 0
339 1 2.802170843283572 38.122328975827 9.457082248386072 0 0 0
343 1 4.570783798956625 39.250789914223084 11.288296622432938 0 0 0
532 1 3.4302280949425854 41.03901961902166 12.674306860897662 0 0 0
351 1 10.989204818805486 39.76205344946047 11.244030956791411 0 0 0
545 1 12.710664715510182 38.46864750729848 13.011858966113447 0 0 0
355 1 15.506459664906059 38.44039387002277 9.598720324246422 0 0 0
359 1 17.15280693232862 40.07258899937588 10.987795420555305 0 0 0
188 1 15.684546000979546 48.23854839895894 0.12009436638287879 0 0 0
342 1 1.7175432091785905 43.08771491806798 11.408442913341702 0 0 0
350 1 7.896494183352794 42.714821474543385 11.115890362328864 0 0 0
358 1 14.230963059106454 43.08220508481107 11.202325589988034 0 0 0
367 1 5.038085984281106 46.13256242268141 11.329375372118866 0 0 0
561 1 6.388457781385542 44.30519064773066 12.914282274601742 0 0 0
375 1 11.017004529874184 46.3128903132807 11.228313921269201 0 0 0
564 1 9.379846774890124 47.81809212701572 12.943608221449994 0 0 0
569 1 12.47809335440817 44.53208816943731 12.5530073252708 0 0 0
383 1 17.447424912159406 46.56629691335499 11.35927095202279 0 0 0
366 1 1.8115212977506614 49.54781583869553 11.22630519840443 0 0 0
556 1 3.3186077962810536 47.8065162387685 12.908715986667001 0 0 0
374 1 8.073892381248967 49.26982706470053 11.221858659114794 0 0 0
382 1 13.981184448935906 49.28401258170541 11.061506417955002 0 0 0
401 1 12.362296342661285 50.86803905702301 12.451207165869933 0 -1 0
572 1 15.855692343627576 47.858675541745086 13.011193107315185 0 0 0
389 1 1.6896549821130469 1.6168520315777262 14.50075914584653 0 0 0
393 1 6.3068539073743555 50.62203635840295 12.979269301464408 0 -1 0
397 1 8.199196159927586 1.4233595755073372 14.186038653476261 0 0 0
395 1 9.689450176442868 50.64613828320788 16.022487141401484 0 -1 0
405 1 14.084856835277412 1.4012513885863753 14.001722187578041 0 0 0
402 1 12.914052956350222 3.133007823127429 16.260054373344943 0 0 0
392 1 5.385820439357183 5.023363636226659 14.483151019333189 0 0 0
394 1 6.64245316201931 2.837252324822842 15.926766730493098 0 0 0
400 1 11.174215596535621 4.697520750069831 14.664431669138708 0 0 0
408 1 17.77788727239282 4.501864628656678 14.025951512456404 0 0 0
427 1 16.08779713776643 6.125987870453673 15.589630098243973 0 0 0
413 1 1.562499026911399 7.891721142764277 13.783509764774703 0 0 0
411 1 3.269065313251443 6.336220760568799 15.399339654657423 0 0 0
421 1 8.225651715282163 8.112658532360856 14.117010542841241 0 0 0
429 1 14.57827783334267 7.716275048470515 14.01806257425981 0 0 0
418 1 6.766919850179484 9.55860311344698 16.002202002021345 0 0 0
416 1 4.8671914792912805 11.128359519978922 14.495543491786256 0 0 0
420 1 9.793977574817886 9.861383774169242 12.760371674080295 0 0 0
426 1 13.074675179326876 9.51174465784002 15.840602104839963 0 0 0
424 1 11.231785402543023 11.282838424637493 14.44725860386262 0 0 0
428 1 15.91363667337427 9.667758626981556 12.577208408797953 0 0 0
759 1 11.322944136890694 46.22846112939106 23.825188922364738 0 0 0
432 1 17.69929097940201 11.095880252762619 13.851199779224679 0 0 0
809 1 13.036726364453889 6.299673258255402 25.3510240243086 0 0 0
437 1 1.4859599329851263 14.370462292979049 14.413148900259152 0 0 0
443 1 9.45228577357796 12.847448752584311 15.857522865960588 0 0 0
445 1 7.702349903916419 14.05065937249499 14.203313836668057 0 0 0
453 1 14.62133086044889 14.374617261801303 14.255150969257217 0 0 0
451 1 16.33617664294669 12.684635156511046 15.711850140590355 0 0 0
459 1 3.2900658149636137 19.334080183362722 16.062729379643212 0 0 0
436 1 2.941432026165467 16.35327214049348 12.876694314485562 0 0 0
440 1 4.724609557263781 17.503468298203277 14.558769711337016 0 0 0
442 1 6.2874152746705905 15.507737399863654 15.680693258206011 0 0 0
450 1 12.606204959446348 16.22993104408585 15.907331496471851 0 0 0
448 1 10.945568773638955 17.471032563359337 13.894407829791009 0 0 0
456 1 17.778663729917703 17.55456006596669 14.375468932092232 0 0 0
385 1 0.1913494730122339 -0.006407381148564937 12.814937393016313 0 0 0
461 1 1.740570133365961 21.119660653002388 14.474779997606449 0 0 0
460 1 3.0894680369916387 22.50235571618985 12.702055284223174 0 0 0
465 1 6.2345656447672235 18.926568709306217 12.68863040150441 0 0 0
469 1 8.07298586127852 20.738101274442826 14.167667010474837 0 0 0
467 1 9.55589897564531 19.055709203672006 15.756919647176408 0 0 0
473 1 12.668422374265056 19.333232589569455 12.51353438464077 0 0 0
477 1 14.14637412485655 20.94660227357856 14.07405991716003 0 0 0
475 1 15.724447054159114 19.134919311942095 15.795062387933106 0 0 0
74 1 0.03249469772792296 22.308115646486147 2.9822391999839506 0 0 0
464 1 4.766672106755551 23.94512367160281 14.292713782367152 0 0 0
489 1 6.32635117285319 25.303827783407574 12.682408982277025 0 0 0
472 1 10.778562015729365 23.958657902202628 14.50715583056476 0 0 0
474 1 12.794660247880678 22.63057953601684 15.840173277179398 0 0 0
476 1 15.688083436512397 22.53324632713295 12.641291662131358 0 0 0
480 1 17.30856388829631 23.71666226502779 14.207471737899454 0 0 0
553 1 0.07498569853237501 44.53831476027563 12.999277733435479 0 0 0
485 1 1.912690498367482 26.839715688981563 14.19323383909049 0 0 0
493 1 7.581878920819163 27.29674530623376 14.155682568099081 0 0 0
491 1 9.159000633600243 25.98726016829027 15.855540680176393 0 0 0
497 1 12.234262484469017 25.841262388679564 12.64284758877977 0 0 0
501 1 13.915178616558142 27.288977170896935 14.224765746939633 0 0 0
498 1 12.43092603577708 28.82138622090629 15.918021795156056 0 0 0
362 1 0.2602698141601998 48.02011892306376 9.778702997529749 0 0 0
727 1 4.784079331170186 39.67123553637991 24.08040700962286 0 0 0
484 1 3.321512286184173 28.75561445956102 12.523652621982052 0 0 0