LAMMPS data file via write_data, version 29 Oct 2020, timestep = 200000

4608 atoms
1 atom types

0.11367408403734913 53.28632591596225 xlo xhi
-0.014601016865629646 50.92172101686603 ylo yhi
-0.014601016865629646 50.92172101686603 zlo zhi

Masses

1 18.015

Atoms # atomic

1931 1 5.094194101850935 4.165287780648924 1.528586778001432 0 1 0
4601 1 1.3465016507092846 49.38989582719002 4.802431752558741 1 0 1
4020 1 6.4008774504682275 1.6908023248949633 7.736525072027942 0 1 1
2779 1 16.56952158790727 34.95709534657243 1.4616054908512637 0 -1 2
2271 1 5.748729057263346 19.103120254337746 2.3591602555029247 1 1 1
3614 1 0.31254763971954014 34.693279153690014 14.85761436096197 0 1 0
1540 1 3.5323739403673944 42.111452706877685 11.360390717967121 0 -1 1
4005 1 2.3803935003303014 27.70259132942101 0.6727568578288091 0 0 0
1502 1 4.21917073955222 1.2733496556850765 2.8497510194010487 1 0 1
2090 1 12.026126954019423 50.792443669654745 1.958359714543516 1 -1 1
3645 1 16.07068964317466 5.084195607585564 5.694161024919088 1 0 0
647 1 9.193685177346072 36.86976242868485 24.25136895333266 0 0 -1
1827 1 7.23752342096979 6.251978063589506 1.4690329686520127 1 0 0
3170 1 2.545407605779956 10.075328853306196 1.0036302629545502 1 1 0
1920 1 11.991171239121101 5.795451569856683 2.9929854167295677 0 1 1
3044 1 14.29367471098987 6.960377142749483 4.671797502017585 0 1 1
4200 1 2.4660640618462506 33.717595609732356 21.87289667998961 2 -1 0
3673 1 9.284837127191656 11.551645618356728 5.503746061151793 0 1 -1
1584 1 12.677055591431731 10.415093052541755 1.5122312320263762 0 0 0
1352 1 15.568067441289928 9.448465375839131 3.466201522582544 0 0 1
1981 1 1.7577263929104305 10.81508417746071 3.610161989971714 0 -1 1
1905 1 1.860205933253895 14.624959004358757 3.6856679092126154 0 1 0
199 1 6.5809685288900805 14.612781869385715 4.3778659832814375 0 -1 1
2851 1 10.346703789938195 16.28128203191735 3.4578201666769166 2 1 0
4207 1 8.67533467533306 15.745696973660577 5.774095935514384 0 -1 2
1763 1 13.610718382471196 16.13248687913345 3.8372457501584334 -1 -1 1
3716 1 16.507030510923116 17.049851351142834 5.097973315372876 0 1 1
1599 1 1.5455602518024834 1.329573744555311 10.924574882433198 1 1 1
2525 1 0.5590428691286453 19.02845159470781 2.8861535131884324 0 1 1
3766 1 6.186189767013691 20.402598134995966 5.133534796807282 0 1 0
4338 1 1.0884584278457918 9.503377998015743 12.263957909849504 1 1 1
4590 1 8.650261620482457 18.47806074270042 2.990302952868953 0 1 1
2955 1 13.328283575620446 17.27607402000458 1.2768225521360628 0 0 1
1460 1 5.238434913819003 34.39005604858123 7.111483621835645 1 0 0
976 1 12.871085555396915 17.881801896923935 24.209555396441857 0 0 -1
1438 1 4.800900309404941 1.5154089676235922 12.194645949294943 0 0 1
2655 1 2.5248238100872062 23.205327541206252 3.6330571453910956 -1 1 1
515 1 7.297181691155783 31.582441821712965 0.5895212873401853 0 -1 1
2808 1 11.704957277383881 11.43556297387181 25.181599468343375 0 1 0
2941 1 3.3231581692937158 25.967315128064207 3.78961893965952 1 0 0
1518 1 9.026853142091852 23.7830920230648 4.795387572206978 -1 1 1
1389 1 5.888779713618146 21.807668430328746 1.5935079335120161 0 0 0
1492 1 12.152920124641287 19.993567631791823 1.3219650663950755 -1 -2 1
144 1 10.864293125570768 0.8799655415187488 24.794351028940387 0 1 -1
1617 1 6.017395115146124 28.969705094493733 3.974301617533823 0 0 -1
3037 1 7.814784411428232 29.22722064935987 1.7604834537516327 1 0 1
1237 1 13.942133785867556 26.194407373162566 4.897416601470933 -1 -1 0
1074 1 12.979327025400936 24.246901296611867 3.34951128655536 -1 1 1
2308 1 11.845089062837038 25.1626457631553 1.1626237996676958 1 1 1
242 1 3.852346683624577 30.56130441924497 1.3750194014599209 0 1 -1
4365 1 3.3756488411621324 28.807372080639706 3.584759603721885 1 -1 1
2289 1 5.575447211105714 34.763402257808394 4.435810618948712 1 1 1
519 1 6.572692554485587 14.632474086095696 1.501979706421572 1 0 2
3809 1 10.15554462939818 36.74849954695337 4.900913790878634 0 1 1
395 1 15.96346280693414 30.584234443265544 1.484330338239833 -1 0 2
1537 1 1.2786452360052285 39.967071317795316 3.8240127616111446 0 -1 2
2331 1 2.550628062623189 35.43591260798644 3.16463335170457 1 0 0
1793 1 11.863142119070856 32.24436575100425 24.87784900644616 0 -1 -1
1950 1 10.231677028572733 30.410251196237017 2.8927439854193624 -1 1 -1
2447 1 8.834678775347552 21.326364754548482 0.8196424821674342 0 -1 0
1721 1 15.440630514332208 38.87279176657593 24.80499980145476 0 0 1
4557 1 1.0329283750298486 1.6616888546055113 1.999009574223785 2 1 1
2706 1 6.931528613096288 40.65676234039411 24.433329440220852 1 0 0
32 1 17.518145302827413 32.76571020585898 0.11163421588704459 1 0 0
2137 1 12.727161766699087 4.3306084588363545 0.7252587428675942 1 1 0
3208 1 13.913839887493646 31.623988906284577 3.540393942435808 1 0 1
2414 1 3.0761244282073865 50.266508084363096 25.255928131942856 1 0 0
1411 1 1.1950038513194623 40.539849824996566 0.7240876411211896 1 0 1
2293 1 14.772511716016407 2.8188783190743534 4.708887403301014 0 0 1
3901 1 2.96480980697939 18.980819890346385 0.8997144767786562 1 0 1
3110 1 1.0141705430590753 41.93759179353373 10.432554028934756 2 -1 1
1885 1 1.0580223469914087 20.51813447332914 15.782462458357191 0 0 -1
1392 1 10.510587585086077 12.167354972392083 3.360084880317832 0 0 2
2624 1 1.3605865189496928 31.06970986022771 1.1558953731072528 1 0 0
1479 1 0.6345340222285896 3.530527169534493 18.608243354389312 0 1 1
1568 1 10.329309241171618 47.746155666106006 1.6693695925769882 0 -1 1
206 1 16.724747328041904 19.63172199929495 21.65677680717423 0 0 0
1534 1 12.421063939824558 47.00748763229576 3.035212115503015 0 0 -1
2471 1 15.13922402779689 42.09240151665564 1.961419125495511 1 1 1
132 1 17.33391409475734 42.61283532748689 3.178354228243511 0 0 0
1660 1 0.5260356182845949 27.04513594828448 14.361448764284003 0 0 0
2924 1 11.773685165996149 38.413399541129124 0.4362635160234736 1 0 0
1100 1 7.491977543435601 48.329005320177416 1.8519960694006037 1 0 2
2040 1 16.154496882106493 25.668645826179343 0.3128901675168233 0 0 0
905 1 10.848614576178347 7.791287745966431 1.1727174562074643 0 2 0
4451 1 1.9630039587210086 27.900769589061206 24.938979058930432 1 0 0
1399 1 3.7639068187454088 42.44207930214802 6.50821352470265 1 0 0
3324 1 1.114293077651761 39.53192785154474 12.247202228249144 1 -1 0
2587 1 3.5030811415565646 0.5671216928567558 5.843909041478896 0 0 1
374 1 2.29553894568979 49.877264101767 1.9563654846148562 0 0 0
879 1 8.422369223941793 0.10081416030948485 5.726733002778981 1 0 2
1025 1 12.522409311713897 49.45647160566372 4.624799915824211 0 1 1
2538 1 15.368901172516333 48.97893413027519 3.4055435611600418 0 -1 1
3077 1 1.3785716683758902 46.139361941591375 5.408742966099467 1 -1 1
1825 1 9.459656379356428 3.3233675465776598 4.1396134116001155 0 0 -1
3618 1 8.39779680915575 2.7011009165531523 9.760216789896461 1 0 0
4092 1 15.798735879281006 0.2572543331014725 1.8676138838441316 0 1 0
306 1 1.9294776405977638 17.35222350296511 19.569746096171883 -1 1 0
2620 1 13.750450217019894 42.18767267259081 25.09730239858954 0 -1 1
3462 1 2.5945850333080283 4.229368074054062 3.415681238622898 1 0 0
14 1 9.156709425051687 6.328492972057253 3.7102425217542345 0 1 1
2937 1 6.979852608530352 5.527783807680815 5.359206985529622 1 0 0
4215 1 13.590674406838124 2.0061759847966036 2.2514157806815502 2 0 1
749 1 12.380762928413763 4.09667367339297 5.674614224237706 -1 1 -1
3502 1 0.23877087891574786 47.35540478742324 15.600923842510428 1 0 1
4193 1 13.765897161694825 34.000626139296756 1.9976586884302536 0 0 1
1587 1 5.799951964104216 7.821165578900396 3.8157922548717695 -1 0 1
2607 1 3.323530789796924 8.998649672936255 6.479294948420134 1 0 1
71 1 9.0748484385211 8.573456468781918 8.662959112743044 1 1 0
1445 1 9.050215132876112 6.024330901642824 7.4343299580845335 0 1 1
2599 1 12.731289171354529 9.228293804017008 6.121932955964924 1 1 0
2361 1 4.539949351564855 10.390500603342392 4.329339938003069 1 1 1
4280 1 6.57584464488953 12.092276169319513 5.44241890323625 0 0 0
2124 1 5.78261747212551 12.307130096593193 7.9366321324937035 0 -1 1
3425 1 13.224792695498802 10.988442641818068 4.116628123768884 -1 0 0
828 1 14.90819395857517 12.89041114352333 6.227865948104061 0 1 1
932 1 7.727286724022569 37.423326581769345 0.5287494571737237 -1 0 1
2510 1 0.5919742739702399 15.345268738802673 6.515053966965691 0 0 1
804 1 4.816506815889311 15.146741541905914 7.675307054834063 0 1 1
29 1 4.218634034480327 15.915429587418183 4.991050737583241 -1 0 0
2631 1 12.673555097831093 13.84145831227492 4.979774085134816 1 0 1
3795 1 7.343323780958391 16.466030878437632 8.088123004703442 1 1 0
4082 1 17.35492043104891 12.545542167413346 8.53615417422419 0 0 1
3328 1 3.2932230724101 14.171012685539983 1.2414581084633145 1 0 0
2829 1 8.950291652361832 19.88623814322324 5.912534863032993 0 1 0
2900 1 11.674009978376281 18.506592565943965 5.168809872724129 1 -1 1
1099 1 14.132945264794646 18.157722475043645 6.874826761234523 0 -1 1
496 1 3.8322180798073435 10.669083664776567 24.249475731298922 -1 0 1
4362 1 3.187256507110938 47.06438995242196 0.6716826276565974 1 0 1
3246 1 5.052899206682945 22.66246272820961 4.240563287189638 0 -1 0
3573 1 5.759836492394075 24.41159633684099 6.543493526043652 1 1 0
2744 1 4.915971511102243 20.632050828977466 9.045426295584283 -1 0 0
160 1 10.324537044206934 22.102860274881596 7.285549363159918 1 1 0
2516 1 12.734220819413705 20.866313134331957 6.100604733590503 0 -1 1
2736 1 15.940050402991206 21.410648400544343 3.9869748470882245 0 -1 0
2788 1 17.5971296714104 18.89116246386488 6.812657564666752 0 1 0
3657 1 12.546952345019427 29.698398804350287 24.537229436726786 1 1 1
3021 1 7.042383587024305 24.461541712805143 2.7664417102491643 0 0 1
3734 1 0.8206668125839668 23.10366569604454 5.788573236584392 1 -1 1
3383 1 5.953888922524397 26.242474426437287 4.361144867233997 1 -1 -1
2033 1 9.930668022657038 26.308414526812157 3.9554657849872497 0 -2 -1
678 1 11.836709522218749 24.68461677209335 6.2733960992436755 0 1 1
4454 1 13.184734096390459 21.530676914089874 3.38217771823981 0 0 1
3925 1 2.943682066800914 2.400233534772761 13.794773535105024 0 -1 1
1817 1 8.277549862355752 9.232491160824319 3.4105297253437006 1 -1 0
2944 1 2.4202029970043406 27.92034676906641 7.159565495087495 0 0 2
494 1 8.19234568219824 27.469525415331194 5.897064607645474 1 2 0
3111 1 14.624477930843879 29.151513123819505 4.747789883035418 0 0 0
1251 1 9.642019582752084 33.12686862655606 0.408733489292258 0 0 1
2556 1 2.3571371527669065 30.265222190410643 5.495572050552383 1 0 1
4004 1 5.303250105262423 31.56794285545216 4.817138164092305 0 -1 0
210 1 11.93408786876887 31.435458720891628 0.9743536358932503 -1 0 0
2139 1 10.047242619409536 21.150595150358313 3.857045605121611 0 0 0
4481 1 3.076510199869781 32.78435990798887 6.548488171238059 2 0 1
1849 1 7.095659273184099 37.12891784387868 4.736054613595151 1 0 0
1975 1 9.058411553860822 32.645456974323864 5.926747126364164 1 0 0
2232 1 7.942115662615595 32.84025799131899 3.6469241119947933 0 -1 1
4266 1 15.109042859661574 35.13747488442105 4.70515397673601 1 -1 0
2705 1 15.892798079256563 32.334484031666406 5.0721682224128815 0 -1 1
3407 1 15.71860776953629 12.959612855553152 2.334365309598162 1 0 0
585 1 3.58774678395456 38.844484172471496 0.5162810779932103 0 -1 0
339 1 5.302253004397075 36.43592564720055 1.6523840854405587 0 -1 0
3403 1 11.980034085182703 36.115390364601325 2.3291101301889467 1 0 1
4021 1 15.428777572502684 37.97306947321027 4.787895274845325 1 0 1
1249 1 13.149676064525979 42.16217037718974 3.970286213874727 0 -1 0
1218 1 0.41893868131624057 19.408822078688576 23.395004379454775 1 0 1
3033 1 16.992646897221913 40.75886229397119 5.425111143767187 1 0 2
2857 1 17.57954486552691 25.84745888945282 17.609447118809417 0 0 1
995 1 4.744909915477196 24.690782560674666 24.8740333900917 0 1 0
4291 1 9.30365080427917 14.467244350822192 1.623806836070195 1 0 1
1276 1 1.0938489751346538 43.69837645562269 13.763841391222478 0 0 0
2630 1 13.77111442826133 39.1160216135451 3.050528916597926 1 -1 1
281 1 3.0863057723375675 18.679460065879947 4.500227427634738 -1 0 0
2136 1 14.396012212823873 10.599699969129109 23.762213330276296 1 1 0
684 1 5.076468131545837 43.991257392327086 1.55843615244303 0 -1 1
1426 1 0.24513943240771818 7.6486711218679995 8.583931684990945 1 0 1
3945 1 11.941978637213781 44.7079030856397 4.457962717272538 1 -1 1
55 1 17.071097060502773 17.701282750216244 0.7083225900786884 1 1 1
816 1 6.328171189203103 6.398103033577784 23.74724460872137 0 1 1
444 1 5.550094258452741 46.7965364989396 2.7334223773618493 1 0 0
486 1 3.8930448007959924 47.44153773381754 4.515967969112629 0 -1 1
134 1 9.257464719412482 43.7958477721631 4.723666817190693 0 1 0
2711 1 9.283859117047118 47.708038533365965 7.071857711022621 1 0 1
2407 1 13.26831396302986 48.14449061223313 7.679899189591351 0 1 1
3235 1 14.940105946637887 44.30828246140409 8.411261942607487 1 0 1
3660 1 1.4357246010586042 5.022882288577994 10.33860031905278 1 0 1
2895 1 6.855883078545625 48.4498761351325 5.908954613477586 0 0 1
2241 1 11.198403367720811 50.35396794538951 6.611191358832441 1 -1 0
2295 1 12.376862420459878 2.1718431646181706 7.468181418053229 0 -1 1
397 1 15.455812052247655 48.47737026594801 6.25222568068398 0 -1 2
2076 1 0.7363553450038763 1.7130697206744392 7.64708060032561 0 -1 -1
2140 1 5.536178606500862 2.8375964160039397 5.311974315116097 0 0 1
1212 1 5.345292450047676 3.4444096780042965 10.131229694778172 -1 1 0
1480 1 6.912922826232369 0.09077718246105747 10.568035259920919 1 2 1
1031 1 7.053568391924241 47.704723540197676 9.323340506519033 -1 1 2
2726 1 12.316510425909387 6.58255206008394 12.765201337906683 1 0 2
457 1 14.438496758810125 0.3234257160865761 6.7349601505182495 0 0 0
2284 1 13.458745669898363 4.099317867676413 11.987408445801435 -1 0 0
3505 1 3.3762518165589106 4.752712192210004 6.143876883485863 1 0 0
964 1 1.2851767303622694 11.582170114451372 8.451751672471229 0 0 0
1966 1 4.825608006031178 6.758604869851976 7.221961622796294 0 0 0
1693 1 9.343433378015181 2.7419579137209973 6.905704919387135 0 0 1
1946 1 5.372580427338732 6.616443562487282 10.045405929701102 1 0 0
4158 1 12.931554817615563 6.209054914542362 7.0198887703966495 1 0 0
3605 1 17.176645268192566 32.190084517503465 18.337354670124213 0 0 -1
1023 1 14.161927209516218 7.990146051461842 10.305845110948132 0 1 0
3580 1 0.6117442443414602 9.532193133095198 6.452702683678213 1 1 0
3765 1 10.672432779279864 13.561236240944774 7.251743368419158 1 0 -1
4098 1 11.141458294841442 8.573786718422786 10.855737716664509 0 0 1
3123 1 10.124676571606654 8.684290860185971 5.940052287792009 1 0 0
901 1 12.601508564452194 50.5964008803965 9.494556268645496 1 0 1
2062 1 3.6150374849610745 10.077213832517597 8.83327692647585 -1 0 -1
2340 1 2.5445654471773302 24.62140046503559 0.7201173368761825 -1 0 1
3845 1 8.06785992319424 13.781262727360486 8.617926313941679 1 0 1
1342 1 16.683205105497382 10.15727863217473 7.051477432480693 1 1 0
1132 1 15.698631153940974 12.053602529873812 11.60824646917707 -1 0 -1
4325 1 9.721937219208264 36.20674924610853 21.791437066356874 1 0 0
593 1 0.12512198405563169 27.67493279496985 2.6787626588881968 0 -1 0
637 1 3.1509594403844545 16.399060596271127 9.60083559586091 2 -1 1
105 1 7.711574808745647 14.234540696683123 11.443012951011506 1 1 0
687 1 9.925364901212207 18.617215380482467 8.8081232864497 0 0 0
3970 1 16.02435941382825 15.300538015952583 7.462653283065553 1 0 0
408 1 2.0480397576144345 17.86334193088351 7.015443308348727 -1 0 1
1064 1 5.050080762618069 18.8319126245335 7.108303586039864 -1 0 0
266 1 11.276439757681356 16.635580963665237 7.389829138324372 0 0 -1
2872 1 14.482610689445933 19.969722385444065 9.238867228250427 1 0 1
1401 1 13.624074105076883 18.19979563897315 11.30661879862868 0 0 1
116 1 7.7944402988789765 45.177560140331906 22.11388402060371 -1 0 -1
2545 1 3.349292496431836 19.024792677906767 10.660560178218802 1 -1 1
113 1 16.55205351167617 6.363443817202213 1.900363350866676 1 0 1
1968 1 11.594012835763507 20.791789841151072 9.376655894305195 0 -1 0
836 1 12.911508767378885 20.65390102115981 14.212938506364017 0 1 0
3259 1 13.803735398860146 23.138241959219737 8.455689864118082 0 0 1
3706 1 13.124766253332709 50.915254223651075 20.789328537986048 2 -1 0
2067 1 15.11444431002803 13.263083811125922 24.678809941490197 1 0 1
3002 1 3.6891066096967373 23.263557141665306 8.762118933344643 -1 -1 0
4471 1 8.184145051996698 23.83011699268646 7.692127626841147 1 0 1
983 1 12.017222562436569 25.850698952372365 10.888148201597312 -1 1 1
2268 1 11.501002855316447 26.659481043899223 8.29494435718736 0 0 0
4190 1 15.075937451131745 10.898718783340154 0.4541049465044495 1 0 1
4296 1 1.6887765941410182 25.05552846805948 7.841547664115558 1 0 1
3279 1 8.73835521666157 29.921534123194593 7.392330952041937 0 0 1
1097 1 15.596190372797054 24.39326744160254 6.750542192249255 0 0 0
4479 1 10.213717165167077 27.802195284832145 11.862692206433396 1 0 0
1087 1 8.418228717272335 29.65091018019476 10.462267582392581 0 0 0
1248 1 5.010519961168098 27.16468807883541 7.628943602488554 0 1 0
3708 1 12.005540689822732 32.28888268884997 5.898244283350221 0 0 0
1067 1 14.95333780275945 29.464295577857804 7.390903101064328 0 -1 1
2523 1 15.894790850226505 32.64521646619099 7.769762415702178 -1 0 0
2119 1 5.884377709757094 29.920405611508794 8.985844668471922 0 -1 -1
2521 1 9.331074719345597 35.076298744689836 7.691188510621665 0 -1 0
1527 1 10.349030037841702 40.60405190366838 1.2843338975353147 1 1 0
1206 1 0.28292835125233734 1.3185202855996097 4.854711122220142 0 1 1
1688 1 3.645917116214288 49.007071767366185 22.82261486072228 1 0 1
2012 1 7.79886893013598 37.2405879535621 7.904312929125123 1 -1 -1
2252 1 6.314496128165936 39.603040472426585 6.278466365139735 0 0 0
2052 1 11.736842556002923 38.99172666483162 5.556569224004588 0 -1 1
406 1 14.328796485452457 38.9759925505532 7.08341410084857 0 0 0
4361 1 13.8417440724599 36.3371147952964 8.492133502129132 0 0 1
3806 1 1.2746002010328636 37.25661333109811 6.247453408502413 0 -1 0
4313 1 4.566088515564305 39.37457518363975 3.287294511200277 0 -1 0
2418 1 3.9715425206599106 42.32576176389131 3.544904315781847 0 0 1
1720 1 10.416078675931384 40.9115388270079 4.168697349426737 1 0 0
4587 1 11.557436119769951 41.312505990358176 9.057201120133904 1 0 0
3751 1 13.533574563937927 41.72111490799307 6.837848575582254 0 0 1
2415 1 1.4104623777169014 33.25015973875024 11.61881395879105 0 -1 1
992 1 3.0936271365441796 39.30887447769098 5.838833827825033 -1 0 0
2665 1 9.685280514802422 44.63791252077121 1.7651984374631202 0 -1 0
2286 1 12.547523351553682 45.50042243167282 7.008611298353437 -1 -2 1
2368 1 15.242117993489028 41.36920011866337 9.028200256307848 1 1 1
2529 1 16.66424020502156 43.88659294921359 6.207624572824708 0 1 1
2239 1 17.17011859974709 27.159636932112196 12.827807946435172 1 -1 -1
2743 1 6.7905173704397015 45.456523018069944 5.067917927992553 0 1 1
621 1 1.9467013116187466 49.6370119955464 7.7694639828810415 -1 0 1
2193 1 10.257929425450351 48.40565947096539 9.862073197049932 0 1 -1
1768 1 12.317148423982845 4.029771272756926 9.576041551930617 1 0 0
185 1 14.813693905201708 5.698398457196486 9.032858215583634 0 1 1
130 1 13.97170575515301 46.92120317521038 10.08851407215957 0 0 0
1548 1 3.7017773419410327 47.991764972891275 11.833928137593919 1 0 0
3347 1 3.9154358897070565 50.43180111058152 10.28836029236808 1 1 1
424 1 8.59609711291289 3.5609363086284804 12.654863177566524 0 1 0
310 1 14.565600515718337 0.7087082482454387 11.24134453763814 1 1 0
1346 1 16.82667540539079 8.592031405655312 0.6361725339651559 -1 1 2
2807 1 1.1419684060583213 4.496667735610972 13.076774333927785 0 -1 0
2116 1 6.687787131485683 48.29630414623439 12.208761050128881 -1 -1 -1
2336 1 2.959899680727369 3.416278089711429 8.816482294589953 0 0 0
2009 1 9.399535543565836 50.31227983510098 11.667671594134093 0 -2 1
948 1 9.724506155574852 5.061005398876725 9.645482391573681 0 -1 1
4380 1 14.275521813554684 8.13920467196541 14.273226764913359 1 0 2
3556 1 2.711069946638288 7.551422679908798 10.677527211085916 1 0 0
1309 1 7.300492190104603 8.514402219757335 10.621270024356317 1 0 0
3607 1 8.737626895080316 6.585549844765442 11.774218012061175 1 -1 0
2493 1 12.559370337391599 10.538385824476581 14.92501178142183 0 0 1
3075 1 11.354326766650493 8.128262658303727 17.18932318781182 0 0 1
2853 1 16.143640770633525 23.15094904283081 22.1301532202926 0 1 0
1512 1 3.096658685290949 10.943781904232882 12.769504880085359 -1 1 0
4030 1 6.919965933631436 9.973320525786324 12.961346625307554 1 -1 0
2930 1 5.177532461282736 11.256211531600382 10.86105133875316 1 0 1
1661 1 10.39979280783832 9.947808560373169 13.23422991394968 0 0 1
3709 1 11.838500962275134 11.871432692639601 9.288849163360325 0 1 1
3931 1 16.032030983994673 9.20160467784113 12.425184203799672 0 -1 0
1393 1 15.839587617309544 21.297154738060204 6.791077308106052 0 1 1
2746 1 5.159977967180692 14.40236215115869 10.745236915668722 0 -1 1
3372 1 1.2207635544208164 14.643804535980808 9.389939634222273 1 1 0
982 1 13.4905350871936 16.310556937105098 9.160748543687905 0 0 2
840 1 14.092456323673943 13.575244044037332 9.461508375045483 0 0 0
1188 1 11.750578496776418 14.471854948203712 13.481021927456263 0 1 2
3260 1 14.63792771533682 14.031157716431316 13.381085876934021 1 2 1
1989 1 9.128072567147735 10.822502828162778 1.2221253086007462 -1 0 1
4029 1 3.5104226895639785 17.942673083307785 13.49228212879561 1 0 1
2515 1 8.630833140553426 16.882275715298377 10.909666850970423 2 1 0
2533 1 4.090344087443759 20.00659717982998 15.05985085484809 1 0 0
3854 1 10.246234309473335 12.540753258049746 11.72015670246874 1 1 1
2683 1 10.360338004400695 19.79896435250331 13.474413331991375 1 0 0
1538 1 15.195886831781865 16.7897364454259 13.155706391615398 0 0 1
1020 1 2.125692162026225 24.316685902920106 13.351662900917198 0 -1 1
2381 1 6.452540322539455 18.40034985696834 11.900702538273269 0 0 0
549 1 7.810508047548514 20.388490144221944 10.52683347538685 0 0 1
168 1 16.062229200762207 20.990245673318068 13.695613863900018 -1 -1 0
597 1 16.84410517670892 20.555321341096754 10.881287967216638 0 0 0
3120 1 1.4721644119523147 25.39893533218465 11.002074043219327 0 -1 -1
4129 1 1.7689204294838903 2.056657703746249 24.635345529236393 1 1 1
455 1 9.188874469839247 22.511114008512948 12.494258196798723 0 0 0
4369 1 15.012894503116568 23.214358075157158 10.947551715895527 1 -1 0
1315 1 16.58631611458589 41.40809163288327 23.993025184654822 -1 -1 0
2328 1 3.291523870997313 38.117937606022394 13.452602142657103 0 -1 1
3404 1 8.837324648668762 26.31872559639342 8.46417217119598 0 -1 0
4122 1 11.757150997903793 28.47598721033471 4.837194077179634 0 0 1
188 1 11.432936871107513 29.613236374905032 7.454047226647332 1 -1 -1
2852 1 7.520304558508647 26.354140703190918 11.20173408296076 1 0 1
3478 1 15.022115974564567 26.195090254559112 11.118267788434649 1 -1 -1
3455 1 15.834944960482463 26.724888429147974 8.340010457613804 1 1 1
3695 1 1.9546400750727713 36.70624110834045 10.672917367967507 0 -1 -1
2712 1 4.058333533226552 18.066203026397957 24.93701429890586 0 1 1
3262 1 1.38577790949675 29.19364499518289 9.409603616467084 1 0 -1
3540 1 6.885211442750462 32.43250145838975 7.954140065844847 2 -1 0
1238 1 8.466928992237957 29.87485444060489 14.621349196454755 0 1 0
3782 1 12.444977472294827 29.228836233723616 12.12776189538584 0 1 0
920 1 13.371956159451516 28.569338739885602 9.709069425677766 0 -1 1
3655 1 15.915292301989632 29.624291873822457 11.278276318246224 0 1 0
3900 1 13.268047613330793 32.05319974298372 8.633651796665774 1 1 1
1762 1 4.725921273052844 33.789789235743925 11.394426857045262 1 0 0
4429 1 13.749361636290294 33.246137682013426 11.152233254534393 1 0 1
657 1 2.5296486633682997 27.946877373025377 11.687171650117278 0 1 0
4260 1 10.492979548264664 33.532186494179214 12.735612755217588 2 0 1
102 1 10.475712124535274 35.069552851573576 10.216247735949528 -1 0 0
3612 1 12.829121194213817 35.091927727343375 6.036245204930531 2 0 0
1288 1 1.337602894468488 33.94872679638807 0.9421575814280253 -1 -1 0
3188 1 16.873992537650736 8.755788327593809 23.470043710813446 1 1 0
4572 1 6.167273152872872 35.944965881570724 10.040239089149122 1 0 2
1069 1 7.726148404441949 39.29587914785175 3.0215192382312 -1 0 0
4510 1 7.735205789806687 33.657450346284705 10.352512238247687 0 -1 0
2198 1 9.970465354185304 39.59351948659129 7.765203828853302 0 -1 0
3956 1 12.699040332358663 35.795127587955804 11.255898052271425 1 1 1
3551 1 16.44288020545441 24.490952500566944 24.36990325841793 1 0 -2
1875 1 8.52717615697733 41.60680386928777 6.58550870987998 0 1 0
2362 1 14.144551797788607 40.51544678357176 11.352895743187448 1 0 1
2574 1 2.0127665498904177 40.741808092320355 23.906209696436637 0 -1 1
529 1 13.991573820344074 44.412043938791015 1.0590879643550637 0 -1 0
1406 1 7.143862244052407 45.32665452886083 8.465630003194015 0 -1 1
346 1 10.126170574440067 43.806992462358096 9.71088758987405 1 -1 0
1040 1 5.996486203983851 42.60506633070251 7.989247657562483 0 1 1
2800 1 9.66316525074121 44.971172998656925 7.120702920510147 0 0 0
968 1 17.162982777676202 43.68977015201192 10.567945754171433 0 0 1
3591 1 3.279559975839277 45.94328845138672 10.213233892346405 1 -1 1
4068 1 5.245747209543031 44.40125739420888 10.786594271455401 1 0 1
4147 1 3.421321612002872 47.04542063622381 7.541546482016154 1 -1 1
353 1 9.368068562795884 44.53775736681814 12.681579394126146 -1 -1 -1
3318 1 5.299570307262966 49.93800934348894 7.772659424990152 1 0 0
3914 1 11.332659182150284 46.19835965561592 10.932676799570574 1 -1 1
76 1 13.278656616209346 48.89500114818671 12.297775545542125 -1 -1 0
2835 1 2.8337156112145663 48.52265544694929 14.419915627874369 1 0 0
445 1 5.259448627176618 27.46827890477232 23.765826965486397 0 1 0
2645 1 10.994933103932222 1.373218312296356 10.632840147097566 1 -1 0
965 1 14.712605078212285 0.4102365016241531 14.365323969930422 0 1 1
4095 1 17.255496072311896 46.605697802789265 4.900445388466246 1 0 1
2204 1 5.698033107629666 5.651175462006998 12.985318246366228 0 1 0
4075 1 8.067731740092809 48.81542452633468 14.753585633878924 1 -2 0
4330 1 9.79752616193798 7.516764436124802 14.197865907330504 1 1 1
1711 1 15.709605641411464 21.71829893784912 1.02097664443244 1 1 1
3379 1 13.996664922810858 4.478374690297238 15.233329377311222 1 1 -1
3447 1 3.171325921231419 6.766614730178228 13.573594334571903 2 0 0
2070 1 1.421212309448169 5.7502786383820395 15.921495468333857 0 0 0
3209 1 8.06789670451223 2.134642965397518 16.36305924276899 0 0 0
1628 1 6.334438155581775 8.65842385897981 19.22255507181582 0 0 -1
3574 1 16.683025844689137 4.317556912623261 14.220779887352943 0 0 1
3283 1 5.316200954215406 32.84429692900753 1.950220224558254 1 0 -1
2182 1 4.392766310431924 9.555640531830464 17.08300743288144 0 0 0
1102 1 4.403392903043614 9.312752383730562 14.279586082928178 0 1 0
1689 1 6.745903398747243 7.376490425055454 15.375176575014367 0 0 0
248 1 15.5478258373594 9.194567062299631 17.110901229419753 0 1 -1
150 1 16.818211998777713 6.493810668779579 16.071095565274153 0 0 -1
2559 1 4.947832274111913 21.70542726915586 22.916524272352028 0 -1 1
2972 1 2.7977547011691257 3.4122149148151415 22.309546569147304 0 1 0
3822 1 5.657834070904723 11.952025469069646 16.89296329400959 0 0 1
4242 1 8.822465786993197 11.570536962657991 16.87221249618197 2 -1 1
2112 1 14.10739605159779 48.902800912006285 24.977337977248105 0 -1 0
351 1 11.253018028394143 12.49238698515234 16.639492979891415 0 0 -1
4402 1 15.183131782284645 46.9451551112124 1.5393025730601353 0 -1 1
3680 1 8.29971933818954 12.137512151432567 13.927026452699259 1 1 -1
2109 1 8.923018825658763 15.94557056806013 14.114733011476932 1 1 -1
1907 1 6.472245839283832 14.26516080339753 14.719532880496823 1 0 0
2417 1 12.3829757661181 15.246471069620917 16.52216025479119 1 0 0
3302 1 0.698294508835945 37.30891873899357 22.763433593458263 0 1 0
4059 1 4.283949979904061 15.092707362258444 13.139777784650974 1 0 0
1021 1 3.5057773204635065 16.81330183289426 16.2642848606848 -1 0 1
2862 1 5.047723990543037 19.148547106272172 17.43336121690453 1 0 2
4395 1 11.136938210722498 17.395413183659436 12.492095186388156 1 0 0
1939 1 14.774276811392667 16.401886349712363 16.018322919455247 0 1 0
510 1 16.328313492474873 14.157179811852444 16.28601546999443 -1 -1 1
3427 1 4.848108440157343 23.773959188726412 13.684650502320219 1 -1 1
2434 1 7.907683167755538 18.65451554170949 14.081435874916501 1 1 0
3270 1 6.470883644502529 21.424650734717524 13.327872702337862 0 0 1
4473 1 10.227976982884202 17.014217823516727 16.405914338580907 1 1 1
4595 1 10.845551614420902 20.100115788587843 16.588637913024026 2 0 0
4025 1 13.011981171168694 20.143194184330092 18.283250046131666 1 0 0
4359 1 14.81235931591752 46.34638232964754 25.12995651065615 1 0 0
4032 1 2.6340457877488 25.757293984609696 16.17813754953199 0 -1 0
2101 1 4.496923965054372 24.69288356900397 10.898955898633467 1 0 0
2288 1 7.960302183619871 24.6931381137176 13.373319636691173 1 -1 1
1551 1 12.920883262702315 23.081159170239363 12.612406935927478 0 1 0
23 1 11.102576047540817 23.152198810746746 10.631346319237906 0 1 0
293 1 2.1287441149895883 34.9069195589625 24.441840264678593 0 -2 -1
1059 1 2.3932381953195447 28.705144953178934 17.04660402457411 1 0 1
2843 1 5.1175576120985555 27.326999791762386 10.573009725772017 1 0 -1
1612 1 5.288827495606884 26.452059702518984 14.74502503126189 0 0 1
439 1 6.699707750508759 26.74745925990713 17.16337512258174 -1 0 0
2272 1 9.784611417019024 26.555877674036957 14.4114940969704 0 -1 0
3265 1 14.024891449968251 27.684928509698217 13.73350487640168 1 1 0
1071 1 6.594171018620028 31.054799963926232 16.22507661826603 1 -1 0
4533 1 12.966253513388661 29.80968056039594 17.68215001082688 0 0 0
1961 1 12.45479602531913 25.44784380007185 14.308223215592134 0 1 1
15 1 2.1376820795731097 29.391228379536063 14.300064191541505 1 0 -1