
# Create simulation box of size 50 x 50 x 50 Angstrom
#
lattice	            sc 1
Lattice spacing in x,y,z = 1.0000000 1.0000000 1.0000000
region 	            all block 0 ${X} ${YZ_LO} ${YZ_HI} ${YZ_LO} ${YZ_HI} units box
region 	            all block 0 53.4 ${YZ_LO} ${YZ_HI} ${YZ_LO} ${YZ_HI} units box
region 	            all block 0 53.4 -0.017019439526677616.0 ${YZ_HI} ${YZ_LO} ${YZ_HI} units box
region 	            all block 0 53.4 -0.017019439526677616.0 50.92413943952685.0 ${YZ_LO} ${YZ_HI} units box
region 	            all block 0 53.4 -0.017019439526677616.0 50.92413943952685.0 -0.017019439526677616.0 ${YZ_HI} units box
region 	            all block 0 53.4 -0.017019439526677616.0 50.92413943952685.0 -0.017019439526677616.0 50.92413943952685.0 units box
create_box          1 all
Created orthogonal box = (0.0000000 -0.01701944 -0.01701944) to (53.400000 50.924139 50.924139)
  3 by 1 by 2 MPI processor grid

# fill box with 4175 randomly distributed atoms
#
create_atoms        1 random 4608 63782 all
Created 4608 atoms
  create_atoms CPU = 0.000 seconds
mass                1 18.015

# Define potential
#
pair_style          sw
pair_coeff          * * /data/emrosky-sim/Freezing_Simulations/Melting/MLmW_fancy/ML_mW.sw mW
Reading sw potential file /data/emrosky-sim/Freezing_Simulations/Melting/MLmW_fancy/ML_mW.sw with DATE: 2019-02-27

# Run minimization
#
minimize            1.0e-8 1.0e-8 10000 1000
WARNING: Using 'neigh_modify every 1 delay 0 check yes' setting during minimization (../min.cpp:187)
Neighbor list info ...
  update every 1 steps, delay 0 steps, check yes
  max neighbors/atom: 2000, page size: 100000
  master list distance cutoff = 6.0032907
  ghost atom cutoff = 6.0032907
  binsize = 3.0016454, bins = 18 17 17
  1 neighbor lists, perpetual/occasional/extra = 1 0 0
  (1) pair sw, perpetual
      attributes: full, newton on
      pair build: full/bin/atomonly
      stencil: full/bin/3d
      bin: standard
Per MPI rank memory allocation (min/avg/max) = 4.234 | 4.248 | 4.253 Mbytes
Step Temp E_pair E_mol TotEng Press 
       0            0    7250591.6            0    7250591.6    4973192.2 
     650            0   -49867.266            0   -49867.266   -250.45173 
Loop time of 1.23584 on 6 procs for 650 steps with 4608 atoms

97.5% CPU use with 6 MPI tasks x no OpenMP threads

Minimization stats:
  Stopping criterion = max force evaluations
  Energy initial, next-to-last, final = 
      7250591.64756995  -49867.0982788955  -49867.2655729784
  Force two-norm initial, final = 1.6666517e+08 3.3554818
  Force max component initial, final = 88625170.0 1.2160726
  Final line search alpha, max atom move = 0.083721112 0.10181095
  Iterations, force evaluations = 650 1000

MPI task timing breakdown:
Section |  min time  |  avg time  |  max time  |%varavg| %total
---------------------------------------------------------------
Pair    | 0.99572    | 1.0682     | 1.1364     |   5.3 | 86.43
Neigh   | 0.024996   | 0.026193   | 0.027573   |   0.6 |  2.12
Comm    | 0.050746   | 0.12024    | 0.1943     |  16.0 |  9.73
Output  | 0          | 0          | 0          |   0.0 |  0.00
Modify  | 0          | 0          | 0          |   0.0 |  0.00
Other   |            | 0.02122    |            |       |  1.72

Nlocal:        768.000 ave         777 max         759 min
Histogram: 2 0 0 1 0 0 1 0 0 2
Nghost:        1573.33 ave        1596 max        1550 min
Histogram: 2 0 0 0 0 1 1 1 0 1
Neighs:        0.00000 ave           0 max           0 min
Histogram: 6 0 0 0 0 0 0 0 0 0
FullNghs:      21937.7 ave       22561 max       21417 min
Histogram: 2 0 1 0 0 0 1 1 0 1

Total # of neighbors = 131626
Ave neighs/atom = 28.564670
Neighbor list builds = 25
Dangerous builds = 0

# Add velocity/set timestep
#
velocity            all create ${TEMP} 120598 rot yes dist gaussian
velocity            all create 287 120598 rot yes dist gaussian
timestep            5.0

# Define output
#
compute	            1 all msd
thermo	            100
thermo_style        custom step temp press vol etotal ke pe c_1[4] density

# Neighbor lists
#
neigh_modify        delay 0 every 1 check yes

# Set fixes
#
fix                 1 all momentum 10 linear 1 1 1 rescale
fix                 2 all nve
fix                 3 all temp/csvr ${TEMP} ${TEMP} 500.0 928347
fix                 3 all temp/csvr 287 ${TEMP} 500.0 928347
fix                 3 all temp/csvr 287 287 500.0 928347
fix                 4 all press/berendsen iso ${PRES} ${PRES} 1000.0 modulus 20000
fix                 4 all press/berendsen iso 1 ${PRES} 1000.0 modulus 20000
fix                 4 all press/berendsen iso 1 1 1000.0 modulus 20000

# Run 0.5 ns equilibration
#
dump                1 all custom 1000 eq.${NAME}.dump id type x y z vx vy vz
dump                1 all custom 1000 eq.liq_287K_1atm_ML.dump id type x y z vx vy vz
run                 100000
Per MPI rank memory allocation (min/avg/max) = 3.484 | 3.499 | 3.503 Mbytes
Step Temp Press Volume TotEng KinEng PotEng c_1[4] Density 
     650          287     1049.683    138573.09   -45926.012    3941.2539   -49867.266 1.6544796e-33   0.99475676 
     700    166.01524   -205.15775    139079.52   -44986.665    2279.8195   -47266.484   0.27308125   0.99113455 
     800    213.88823   -273.24727    139151.15   -43761.264    2937.2398   -46698.504   0.78907663   0.99062436 
     900    235.65528    44.825275    139079.59   -43018.135    3236.1577   -46254.292    1.4182387   0.99113405 
    1000    256.61297    195.32485    139015.31   -42478.994    3523.9612   -46002.955    2.1485842   0.99159234 
    1100    261.50881    67.082682     139110.2   -42098.139    3591.1938   -45689.333    2.8828605   0.99091597 
    1200    275.93906    31.883258    139188.78   -41785.318    3789.3585   -45574.676    3.7074197   0.99035652 
    1300    280.79787   -135.84752    139074.91    -41618.93    3856.0825   -45475.013    4.7289593    0.9911674 
    1400    280.56337   -365.15441    138806.38   -41540.024    3852.8622   -45392.886    5.9211723   0.99308489 
    1500    282.40186   -27.971685    138528.58   -41475.142    3878.1094   -45353.252    7.0583684   0.99507634 
    1600    281.59521     151.9032    138617.19    -41465.21     3867.032   -45332.242    8.1790469   0.99444029 
    1700    290.01754   -8.6997446       138821   -41468.848    3982.6925   -45451.541    9.1725318   0.99298028 
    1800    280.46128     111.2324    138674.86   -41407.387    3851.4603   -45258.848    10.142811    0.9940267 
    1900    285.50537   -222.95781    138614.25   -41317.161    3920.7288    -45237.89    11.199043   0.99446138 
    2000    283.30285     61.75503    138568.26   -41301.732    3890.4825   -45192.214    12.394376   0.99479145 
    2100    287.30237   -219.91924    138491.57   -41351.586    3945.4062   -45296.992    13.586459   0.99534228 
    2200    287.91484   -161.07439    138234.73   -41270.554     3953.817   -45224.371    14.648641   0.99719167 
    2300    290.75083   -163.24755    138146.73   -41257.416    3992.7625   -45250.178    15.760415   0.99782686 
    2400    282.43169   -59.883666    138121.75   -41245.352    3878.5191   -45123.871    17.085535   0.99800734 
    2500    288.12136   -56.148672    138020.89   -41217.997     3956.653    -45174.65    18.367503   0.99873658 
    2600    288.62674   -55.309266    138075.65   -41127.094    3963.5933   -45090.688    19.842303    0.9983405 
    2700    283.18914   -115.74782    138332.03   -41221.061    3888.9209   -45109.982    21.053064   0.99649022 
    2800    282.36096   -47.786903    138287.16   -41212.534    3877.5479   -45090.082    22.289833   0.99681354 
    2900    292.56481    -12.45765    138183.39   -41171.877    4017.6732    -45189.55    23.688416    0.9975621 
    3000    290.45778    13.338377    138193.03    -41185.33    3988.7382   -45174.068    25.122014   0.99749253 
    3100    290.68359    364.91191    138473.39   -41201.807     3991.839   -45193.646    26.440907   0.99547299 
    3200    283.93193   -44.804441    138458.76   -41198.445    3899.1213   -45097.566    27.453985   0.99557815 
    3300     293.0611    327.62615    138549.98   -41183.603    4024.4885   -45208.091    28.730145   0.99492267 
    3400     288.9036    38.396753    138552.84    -41206.56    3967.3952   -45173.955    29.847205   0.99490211 
    3500    295.59578    134.22174    138554.41   -41105.285    4059.2962   -45164.581    30.946808   0.99489085 
    3600    288.06004   -171.79111    138629.19   -41164.377     3955.811   -45120.188    32.194676   0.99435417 
    3700     289.0457   -38.211052    138381.26   -41168.344    3969.3467    -45137.69    33.379485   0.99613573 
    3800    284.42704    119.25487    138324.31   -41140.268    3905.9204   -45046.189    34.834038   0.99654582 
    3900    281.33769   -136.59895    137984.65   -41320.174    3863.4957    -45183.67    35.896101   0.99899895 
    4000     287.7395    36.135855    137999.89   -41277.756    3951.4091   -45229.165    36.779189   0.99888859 
    4100    289.93798    181.11341    138024.18   -41190.667    3981.5999   -45172.267    37.687923   0.99871278 
    4200    288.17267   -22.564958    137873.86   -41192.449    3957.3577   -45149.806     38.79719   0.99980171 
    4300    290.21162    10.189192    138095.37   -41231.193    3985.3577    -45216.55    39.818784   0.99819798 
    4400    288.23825   -107.16007    138200.76   -41182.344    3958.2582   -45140.602    40.978601   0.99743674 
    4500    290.75542    171.56677    138296.82   -41188.829    3992.8255   -45181.655    42.210009   0.99674396 
    4600    286.88817    -147.7325     138288.1   -41250.833    3939.7182   -45190.551    43.494753   0.99680682 
    4700    285.12022   -100.56717    138138.21   -41325.485    3915.4396   -45240.925    44.624919   0.99788842 
    4800    282.13126    -79.00617    138143.98    -41231.24    3874.3934   -45105.633    45.695874   0.99784671 
    4900    284.66235   -299.91902    137661.84   -41326.446    3909.1518   -45235.598    46.772188    1.0013415 
    5000    290.91941   -63.388208    137744.63    -41277.13    3995.0775   -45272.208    47.813077    1.0007396 
    5100    285.73589   -49.364161    137922.89   -41321.682    3923.8944   -45245.576    49.292865   0.99944629 
    5200    280.73663    171.33059    137949.38   -41365.365    3855.2416   -45220.607    50.843182   0.99925437 
    5300    281.71257    299.71904     137986.8   -41323.593    3868.6438   -45192.237    52.292554   0.99898333 
    5400    294.72892    206.20242    137960.39   -41223.936     4047.392   -45271.328     53.49831   0.99917462 
    5500    285.81486    167.25211    137904.46   -41206.115    3924.9788   -45131.094    54.715046   0.99957981 
    5600    293.38426    118.61776    137987.23   -41141.998    4028.9263   -45170.924    55.670996   0.99898023 
    5700    280.54375   -19.340813     137874.3   -41177.855    3852.5928   -45030.447    56.713445   0.99979848 
    5800    287.50738    200.89441    138000.99   -41092.924    3948.2214   -45041.146    57.716507    0.9988806 
    5900    284.97197    41.648696    138146.05   -41298.064    3913.4038   -45211.468    59.456224   0.99783176 
    6000    282.85995   -217.92118    137937.35   -41362.764    3884.4003   -45247.165    60.633626   0.99934145 
    6100    286.34147     5.286531    137940.76    -41274.36    3932.2105    -45206.57    62.110416    0.9993168 
    6200    284.35227   -121.87415    138118.51   -41357.701    3904.8936   -45262.594    63.558798   0.99803071 
    6300    285.07014    166.84564     138176.1   -41334.589    3914.7519   -45249.341    64.932136   0.99761477 
    6400    284.34567    39.768091     138304.4   -41304.634     3904.803   -45209.437    66.377694   0.99668933 
    6500    288.10679    70.477724    138268.68   -41329.419     3956.453   -45285.872    67.451027   0.99694676 
    6600    283.06025   -138.86541    138255.75   -41372.708     3887.151   -45259.859    68.781644   0.99704001 
    6700    283.23431    208.51653    138273.24   -41411.148    3889.5412   -45300.689    69.869318   0.99691389 
    6800    282.55453    194.63046     138462.9   -41403.552    3880.2061   -45283.758    71.160875   0.99554839 
    6900    288.49681   -81.691017    138539.03   -41302.496    3961.8089   -45264.305    72.223562   0.99500134 
    7000    282.20524    -262.2563    138625.12   -41316.279    3875.4094   -45191.688    73.387836   0.99438342 
    7100    285.39564   -81.478631    138305.67   -41369.729    3919.2219   -45288.951    74.534069   0.99668014 
    7200    284.24296    136.16985    138080.03   -41423.936    3903.3926   -45327.329    75.500994   0.99830886 
    7300    282.34036    108.99574    137875.51   -41358.216     3877.265   -45235.481    76.691411   0.99978973 
    7400    285.27811   -137.87461    137833.66   -41382.386    3917.6079   -45299.994     77.82076    1.0000933 
    7500    289.35583   -69.212768    137862.12   -41307.622    3973.6055   -45281.227    79.014363   0.99988684 
    7600    285.66669   -108.38754     137681.1   -41336.233    3922.9441   -45259.177    80.203873    1.0012015 
    7700    280.46617    168.82447    137721.99   -41314.934    3851.5275   -45166.461    81.788453    1.0009042 
    7800    285.62767    305.17986    137931.43   -41294.441    3922.4082   -45216.849    83.322395   0.99938437 
    7900    279.20613   -76.051098    137831.62   -41423.028    3834.2238   -45257.252     84.31936    1.0001081 
    8000    289.59989   -111.82223    137583.36   -41349.807    3976.9571   -45326.764    85.400255    1.0019127 
    8100    286.49647    92.775525    137607.25   -41242.968    3934.3392   -45177.307    86.376223    1.0017388 
    8200    286.31073    96.282771     138125.8   -41283.544    3931.7884   -45215.333    87.798193   0.99797803 
    8300    288.14269   -7.7402117    137882.55   -41238.928    3956.9459   -45195.873    88.913611   0.99973865 
    8400    286.53725    11.138758    138434.85   -41318.978    3934.8991   -45253.877    90.502473    0.9957501 
    8500    285.61682    55.347625     138030.5   -41351.899    3922.2593   -45274.158    91.307889    0.9986671 
    8600    283.97645   -69.882646    138166.92   -41282.946    3899.7327   -45182.679    92.384621   0.99768103 
    8700    285.84775     89.61479    138444.67   -41259.368    3925.4305   -45184.799    93.445156   0.99567948 
    8800    285.64054    12.154224    138347.75   -41238.118     3922.585   -45160.703    94.574506   0.99637702 
    8900    284.98025    168.47209     138648.6   -41189.304    3913.5175   -45102.821    95.788378   0.99421501 
    9000    290.83914   -97.111763    138664.19   -41100.652    3993.9752   -45094.628     96.65426   0.99410321 
    9100    288.11017   -72.922411     138412.6    -41181.08    3956.4993   -45137.579    97.696423   0.99591018 
    9200    293.11038   -133.45326    138342.29   -41249.122    4025.1653   -45274.287    98.627523    0.9964163 
    9300    289.40538   -346.91895    138534.59   -41186.806    3974.2859   -45161.092    100.20782   0.99503319 
    9400    286.54638    280.27694    138459.58   -41249.449    3935.0245   -45184.474    101.15628   0.99557228 
    9500    290.67644    167.16527    138529.11     -41294.4    3991.7409   -45286.141    102.16005   0.99507253 
    9600    289.87134    233.64182     138712.6   -41353.026    3980.6848   -45333.711    103.03995   0.99375628 
    9700    283.71063    17.277851     138829.8   -41311.915    3896.0823   -45207.997    104.18866   0.99291733 
    9800    285.92542     200.2894    138505.76   -41247.494    3926.4971   -45173.991    104.76648   0.99524035 
    9900    288.00013    -140.3445    138577.81   -41290.813    3954.9882   -45245.801    106.11637   0.99472286 
   10000    284.46774   -123.93218    138356.22   -41359.538    3906.4793   -45266.017    107.43918     0.996316 
   10100    287.35547   -55.695824    138132.72   -41319.882    3946.1354   -45266.017    108.34436   0.99792805 
   10200    289.18832    4.0124718    137985.71   -41373.542    3971.3052   -45344.848    109.40587   0.99899121 
   10300    286.38439    62.797134    138013.06   -41300.887       3932.8   -45233.687    110.12518   0.99879329 
   10400    287.70958   -20.517534    137846.93   -41220.711    3950.9982   -45171.709    111.40272   0.99999703 
   10500    294.07446    107.18098    138226.88   -41193.948    4038.4046   -45232.353     112.7067   0.99724829 
   10600    283.93323    -106.4961    138336.52   -41194.556    3899.1391   -45093.695    113.47675   0.99645786 
   10700    290.53017    126.96748    138339.12   -41205.127    3989.7323   -45194.859     114.2802   0.99643915 
   10800    290.53672    162.14805     138434.3   -41120.176    3989.8222   -45109.998    115.73586   0.99575406 
   10900    286.88341   -228.72913    138224.88   -41131.822    3939.6528   -45071.475     116.6733   0.99726267 
   11000    291.39403    157.48599    138220.37   -41085.256    4001.5953   -45086.851    118.00474   0.99729525 
   11100    288.00834   -135.11692    138262.33   -41178.445     3955.101   -45133.546    119.13604   0.99699258 
   11200    288.92392    13.614462    138433.93   -41181.024    3967.6743   -45148.699     120.7292   0.99575672 
   11300     283.8048    300.73898    138249.02   -41244.795    3897.3755    -45142.17    122.40007   0.99708854 
   11400    287.83343    48.866211    138366.95   -41282.152    3952.6991   -45234.852     123.5619   0.99623875 
   11500    285.92342   -192.76262    138551.29   -41397.327    3926.4696   -45323.796      124.902   0.99491328 
   11600     278.7237   -84.705827    138535.56   -41429.031    3827.5988    -45256.63    125.96523   0.99502624 
   11700    287.39064   -213.07721       138457   -41309.545    3946.6184   -45256.163    127.15464   0.99559079 
   11800    285.46057   -106.23719    138410.21   -41347.345    3920.1136   -45267.458    128.43473   0.99592735 
   11900    282.13247   -79.021517     138400.4   -41417.563    3874.4101   -45291.973    129.54736   0.99599797 
   12000     281.7943    154.59888    138687.91   -41384.853    3869.7662   -45254.619    131.10608   0.99393316 
   12100     287.0366    40.455872    138382.81   -41294.573    3941.7565    -45236.33    131.98384   0.99612457 
   12200    289.88904    221.87909     138438.3   -41155.642    3980.9279    -45136.57    133.42407    0.9957253 
   12300    291.61471      205.051    138566.72   -41108.701    4004.6258   -45113.327    134.39834   0.99480244 
   12400    292.95437    9.2723604    138704.83   -41095.362    4023.0228   -45118.385    136.00581   0.99381196 
   12500    292.86195   -120.51428    138688.33   -41151.547    4021.7536     -45173.3    137.64711   0.99393015 
   12600    288.33316    139.62723     138407.9   -41194.759    3959.5616   -45154.321    138.75769   0.99594399 
   12700     287.4745   -4.4767394    138232.05   -41227.543      3947.77   -45175.313    139.99094   0.99721094 
   12800    283.36688   -47.377848    138325.14   -41253.609    3891.3618    -45144.97    141.28135   0.99653984 
   12900    282.03283   -91.789551    138369.41   -41257.164    3873.0418   -45130.206    141.90074     0.996221 
   13000    281.89275   -234.71531     138334.9   -41283.851    3871.1181   -45154.969    142.07716   0.99646953 
   13100    286.16343    86.647876    138123.49   -41266.529    3929.7656   -45196.295    143.63346   0.99799478 
   13200    289.41063   -31.344301    138114.79   -41153.872    3974.3581    -45128.23    144.70496   0.99805761 
   13300    291.73205    82.158293     138204.7   -41177.299    4006.2372   -45183.537    146.25225   0.99740832 
   13400    291.58046    30.871991    137825.85   -41202.843    4004.1555   -45206.999    147.06267      1.00015 
   13500    283.95447   -60.910924    137986.55   -41210.545    3899.4309   -45109.976    147.79316   0.99898515 
   13600    282.83567    8.8348107     137976.1   -41231.869    3884.0669   -45115.936    148.80942   0.99906084 
   13700    285.66022    33.255461    138201.68    -41283.19    3922.8553   -45206.045    150.44901    0.9974301 
   13800    283.16638   -316.64386    137901.91   -41345.022    3888.6084   -45233.631    151.66051   0.99959829 
   13900    286.00551    -64.05339    137508.04   -41301.143    3927.5969    -45228.74    152.92992    1.0024615 
   14000    282.47492   -208.16625    137264.92   -41386.781    3879.1128   -45265.894     153.9983    1.0042371 
   14100    287.06857   -41.551429    137405.15     -41301.5    3942.1955   -45243.695    155.59785    1.0032122 
   14200    288.22224    136.52805    137673.99   -41301.814    3958.0384   -45259.853    156.73702    1.0012531 
   14300    285.34323   -165.41576    137763.96   -41341.995    3918.5022   -45260.498    157.78432    1.0005993 
   14400    290.12393    157.82722    137664.01   -41243.323    3984.1535   -45227.476    158.34417    1.0013257 
   14500    284.91769      100.652    137719.76    -41336.85    3912.6584   -45249.509    159.32545    1.0009204 
   14600    288.26245    -84.09517    137763.58   -41183.572    3958.5907   -45142.163    160.40446     1.000602 
   14700    286.72645   -150.69435    137847.17   -41219.433    3937.4973    -45156.93     161.4531   0.99999527 
   14800    289.17679   -303.34004    137614.24   -41215.335    3971.1469   -45186.482    162.51131    1.0016879 
   14900     288.0846    202.88424    137699.46    -41162.21    3956.1483   -45118.358    163.79428     1.001068 
   15000    285.45695   -153.90117    137723.85   -41252.658    3920.0638   -45172.722    165.65289    1.0008907 
   15100    283.70168    139.08821    137889.86   -41254.948    3895.9593   -45150.908    167.29232   0.99968564 
   15200    287.15595   -125.25415    138238.64   -41282.396    3943.3955   -45225.791    169.02733   0.99716345 
   15300    287.56223   -365.85181    137765.36    -41281.53    3948.9748   -45230.505    170.39802    1.0005891 
   15400    288.05484   -260.62431    137645.53   -41179.724    3955.7395   -45135.463     171.2712    1.0014602 
   15500    284.66738    23.446461     137806.7    -41209.96    3909.2209   -45119.181    172.97302    1.0002889 
   15600    287.83842    245.64403    137661.68   -41272.604    3952.7676   -45225.372    174.62721    1.0013427 
   15700    287.58607    -64.03899    137827.37   -41294.804    3949.3022   -45244.106     175.8028    1.0001389 
   15800    284.01572    79.380314    137838.33    -41295.35     3900.272   -45195.622     177.4112    1.0000594 
   15900    288.23362    162.31405    137698.97   -41273.546    3958.1946    -45231.74    178.80877    1.0010715 
   16000     284.2823    53.218367    137757.02   -41310.811    3903.9328   -45214.743    179.97794    1.0006497 
   16100    283.95606   -121.23687    138141.89   -41309.478    3899.4527   -45208.931    181.49258   0.99786179 
   16200    291.29314    259.43105    138190.56   -41148.876    4000.2098   -45149.086    182.89479   0.99751037 
   16300     289.9401    98.667599    138545.14   -41109.175    3981.6291   -45090.804    184.19745   0.99495745 
   16400    296.12564    125.98803    138609.13    -41078.77    4066.5726   -45145.342    185.20998   0.99449808 
   16500    288.01522   -113.08478    138266.87   -41108.113    3955.1954   -45063.308    186.30517   0.99695984 
   16600    293.36608   -310.88882    138173.53   -41151.503    4028.6766   -45180.179    186.81159   0.99763331 
   16700    283.58355    100.38903    137995.96   -41259.773    3894.3372   -45154.111    187.53012   0.99891706 
   16800    285.54272   -238.46208    137646.54   -41215.821    3921.2416   -45137.063    187.75169    1.0014528 
   16900    288.52805   -45.526685    137898.62    -41218.55    3962.2379   -45180.788    189.01433   0.99962216 
   17000    286.69022   -123.56055    137972.22   -41196.186    3936.9998   -45133.186    190.62699   0.99908891 
   17100      289.441   -91.242779    137945.75   -41207.545    3974.7751    -45182.32    191.80419    0.9992806 
   17200    286.54262   -125.79669     137765.7   -41205.874    3934.9728   -45140.847    193.26687    1.0005866 
   17300    285.65631   -156.13009    137669.65   -41231.755    3922.8016   -45154.557     194.9076    1.0012847 
   17400    290.17427   -142.76819    137683.52   -41223.884    3984.8448   -45208.729    196.03689    1.0011839 
   17500     287.2611    103.58065    137831.78   -41206.978    3944.8395   -45151.818    197.23555     1.000107 
   17600    285.02225    214.89093     137674.3   -41200.571    3914.0943   -45114.666    198.01065    1.0012509 
   17700    284.85902   -56.569293    137978.79   -41190.753    3911.8526   -45102.605    199.06674   0.99904138 
   17800    288.40775    62.220303    137863.45   -41252.853    3960.5859   -45213.439    200.30739    0.9998772 
   17900     285.2106   -98.246552    137673.19   -41313.648    3916.6808   -45230.328    201.01584     1.001259 
   18000    281.50293   -3.7462983    137485.32   -41348.661    3865.7648   -45214.425    201.86337    1.0026271 
   18100    285.30235    24.603662    137770.49   -41284.656    3917.9408   -45202.597    203.16031    1.0005519 
   18200    288.77339   -171.14169    137762.05   -41281.081    3965.6072   -45246.689    205.25435    1.0006132 
   18300    286.64003   -216.41146    137695.34   -41310.125    3936.3106   -45246.436    206.77672    1.0010979 
   18400    284.00207    258.51305    137676.01   -41364.043    3900.0845   -45264.128    208.19532    1.0012384 
   18500    292.84956     216.2546    137824.57   -41240.299    4021.5835   -45261.882    208.95568    1.0001593 
   18600    288.34647    38.460989    137806.97   -41259.738    3959.7444   -45219.483     210.2418     1.000287 
   18700    291.43178   -94.020036    138198.05   -41158.955    4002.1137   -45161.069    211.94748   0.99745628 
   18800    287.60686    120.01144    137904.12   -41275.138    3949.5877   -45224.726    213.18315   0.99958231 
   18900    282.48247   -207.15341    137740.79   -41298.409    3879.2165   -45177.625    214.61762    1.0007676 
   19000     288.1843    99.642352    137789.72   -41257.257    3957.5174   -45214.775    215.88321    1.0004122 
   19100    287.98298   -48.432375     137681.9   -41310.891    3954.7528   -45265.643    217.33098    1.0011956 
   19200    282.67415    8.5094202    137711.87   -41236.998    3881.8488   -45118.846    218.24554    1.0009778 
   19300    288.74729   -73.977779    137783.25   -41209.479    3965.2488   -45174.728    219.22118    1.0004592 
   19400    290.86094    2.1210383    137746.97   -41251.074    3994.2746   -45245.349    219.82694    1.0007227 
   19500    291.04774    83.204725    137676.81   -41228.841    3996.8399   -45225.681    221.55667    1.0012326 
   19600    289.87037   -252.38238    137534.68   -41226.078    3980.6715   -45206.749    222.79723    1.0022674 
   19700    285.27938    231.29062     137623.2   -41226.786    3917.6253   -45144.411    224.03692    1.0016227 
   19800    292.50523   -152.16568    137961.75    -41192.27    4016.8549   -45209.125    225.95054   0.99916471 
   19900    288.07636    192.27894    137940.06   -41154.836     3956.035   -45110.871    226.99972   0.99932187 
   20000    289.62037    22.424418    138244.19   -41137.855    3977.2383   -45115.093    228.77506    0.9971234 
   20100       289.74   -41.013238       138345   -41140.804    3978.8812   -45119.685    230.00115   0.99639682 
   20200    291.69548   -61.974708    138429.16   -41125.308    4005.7351   -45131.043    232.21929   0.99579105 
   20300    286.88357   -202.56732    138293.81   -41123.992    3939.6549   -45063.647    233.83189   0.99676563 
   20400    289.02909   -291.66643    137983.77   -41156.096    3969.1186   -45125.215    234.47443   0.99900529 
   20500    288.42996    135.40649    137952.64   -41103.751    3960.8909   -45064.642    236.05063   0.99923074 
   20600    288.49486   -149.29299    137636.61   -41164.916    3961.7821   -45126.698    237.64377    1.0015251 
   20700    281.78049   -3.0132431    137670.87   -41211.579    3869.5765   -45081.156    239.27059    1.0012758 
   20800    283.36773    278.72708    137767.32   -41243.879    3891.3733   -45135.252    241.12375    1.0005749 
   20900    283.82443   -50.135859    137862.53   -41173.793     3897.645   -45071.438    242.49689   0.99988382 
   21000    287.60347   -69.946406    138284.18   -41117.984    3949.5411   -45067.525    244.74779   0.99683504 
   21100    286.35107    -3.547517    138087.53   -41229.427    3932.3424   -45161.769    245.18675   0.99825465 
   21200    290.23894   -88.581851    137873.49   -41279.555    3985.7329   -45265.288    245.73782   0.99980435 
   21300    282.23792    72.000456    138303.72   -41291.587    3875.8581   -45167.445    247.26888   0.99669418 
   21400    283.77265   -61.688018    138122.23    -41208.17     3896.934   -45105.104    248.59904   0.99800386 
   21500    289.92235   -117.81235    138116.29   -41151.071    3981.3853   -45132.456    249.62817   0.99804677 
   21600    287.21792    115.87359    138070.41   -41205.403    3944.2465    -45149.65    250.44656    0.9983784 
   21700    287.93588   -163.26446       138203   -41195.415    3954.1059   -45149.521    251.96566   0.99742057 
   21800    289.80405     100.9163    137619.61   -41166.335    3979.7607   -45146.096    252.10641    1.0016488 
   21900    290.85512    -7.759578    137797.25   -41154.356    3994.1947   -45148.551    253.93361    1.0003575 
   22000    284.77964    223.10774    137780.43   -41208.291    3910.7626   -45119.053     255.4149    1.0004796 
   22100    289.55562     130.3237    137637.43   -41177.372    3976.3491   -45153.722    256.93852    1.0015191 
   22200    289.96564   -45.114043     138087.5   -41164.284    3981.9799   -45146.264    259.36951   0.99825486 
   22300    288.43309   -289.63927    137982.11   -41199.388    3960.9339   -45160.322    260.21378   0.99901729 
   22400    286.01476   -100.84575    137843.88   -41242.934     3927.724   -45170.658    261.29997    1.0000191 
   22500    287.99349    115.09085    138034.49   -41278.117     3954.897   -45233.014    262.49914   0.99863823 
   22600    285.77817   -133.69066    137968.99   -41296.777    3924.4749   -45221.252    264.39561    0.9991123 
   22700     285.4042    -9.017707    138066.45   -41278.077    3919.3394   -45197.417    266.30292   0.99840707 
   22800    283.51729    144.09554    138251.27   -41381.838    3893.4272   -45275.265    268.30103   0.99707235 
   22900    284.52285    99.478578    138452.46   -41339.335    3907.2362   -45246.571    269.65361   0.99562347 
   23000     286.5133    223.18682    138578.48   -41212.714    3934.5703   -45147.284    271.30443   0.99471807 
   23100    281.24869   -32.312678    138319.84   -41235.397    3862.2734    -45097.67    271.89394   0.99657804 
   23200    281.88687    168.00297    138082.22   -41247.193    3871.0373   -45118.231    272.86805   0.99829301 
   23300    281.03681   -58.159012    138341.64   -41327.953    3859.3639   -45187.317    275.14468   0.99642102 
   23400      287.175     42.32131     138214.6    -41227.01    3943.6571   -45170.667    275.66737   0.99733687 
   23500    286.68437    106.26194    138432.31   -41252.254    3936.9195   -45189.173    277.32055   0.99576837 
   23600    283.03229   -279.43168    138175.05   -41283.919     3886.767   -45170.686    277.32663   0.99762237 
   23700    283.00206   -263.53524    138163.73   -41329.418    3886.3519   -45215.769    278.06684   0.99770409 
   23800    287.55646    155.56784    137881.93   -41267.078    3948.8955   -45215.973    278.46464   0.99974315 
   23900    286.98235    42.363092    138307.24   -41193.754    3941.0115   -45134.766    280.27556   0.99666883 
   24000    287.99667   -20.848116    137948.19   -41162.775    3954.9407   -45117.716    280.42295   0.99926296 
   24100    283.31001   -203.54568    137929.51   -41186.457    3890.5807   -45077.038    281.28498   0.99939828 
   24200    294.46058    107.55405    137847.32   -41094.881     4043.707   -45138.588    282.10125   0.99999419 
   24300     287.8335     24.75317    137772.04   -41195.329       3952.7   -45148.029     283.3356    1.0005406 
   24400    290.99764     6.301514    137724.55   -41154.784    3996.1519   -45150.935    283.89774    1.0008856 
   24500    282.96347    58.177154    137901.64   -41207.689    3885.8219   -45093.511    285.86978   0.99960025 
   24600    294.71968   -2.2093107    137718.39   -41217.408    4047.2651   -45264.673    286.69038    1.0009303 
   24700    286.29345   -18.110266    137811.34    -41211.12    3931.5511   -45142.671    288.40489    1.0002553 
   24800    286.64615     15.32866    137813.54   -41226.172    3936.3945   -45162.567    289.97996    1.0002393 
   24900    284.69739   -2.9002023     137735.7   -41253.028     3909.633   -45162.661     290.8097    1.0008045 
   25000    284.32712    258.09226    137931.52   -41300.417    3904.5483   -45204.965    291.49265   0.99938372 
   25100    280.24121   -74.216127    137813.36   -41299.562    3848.4382       -45148     291.6596    1.0002406 
   25200    286.46855   -181.56999    137895.87       -41299    3933.9556   -45232.956    292.81203   0.99964207 
   25300    282.63415    341.24868    138131.64   -41344.171    3881.2995    -45225.47    293.53225   0.99793587 
   25400    291.08335   -108.22444    138008.05   -41266.614    3997.3289   -45263.943    294.24125   0.99882957 
   25500    281.60538     173.8789    138185.16   -41319.307    3867.1718   -45186.479    295.85201   0.99754938 
   25600    283.22227   -1.1144174    138312.96   -41351.454    3889.3759    -45240.83    297.25762    0.9966276 
   25700    285.69369   -14.111655    138322.65   -41329.896    3923.3149   -45253.211    298.77925   0.99655782 
   25800    284.55919   -232.33523    138543.93   -41423.224    3907.7352   -45330.959    300.28915   0.99496611 
   25900    281.05578   -145.92807    138239.37   -41438.348    3859.6243   -45297.972    300.88332   0.99715816 
   26000    284.45171   -188.23884    138040.78   -41280.301    3906.2592    -45186.56    300.82051   0.99859272 
   26100    283.90217   -58.324451    137941.82   -41297.738    3898.7127   -45196.451    301.93324   0.99930912 
   26200    289.45627    18.565199    138126.52   -41173.957    3974.9848   -45148.941    303.70976   0.99797286 
   26300    288.74144    109.51824    138504.65   -41249.538    3965.1684   -45214.706    306.30876   0.99524833 
   26400    289.68247    156.66216    138199.64   -41201.379    3978.0911    -45179.47     307.0006   0.99744486 
   26500    291.04214    218.75925    138033.13   -41081.596     3996.763   -45078.359    308.20894   0.99864808 
   26600    285.27897   -123.97047    137774.25   -41203.156    3917.6196   -45120.775     309.2528    1.0005246 
   26700    290.32615   -88.624378    138277.02   -41145.992    3986.9306   -45132.923    311.58748   0.99688667 
   26800    286.29369   -84.441924    138091.72   -41155.891    3931.5544   -45087.446     312.3077   0.99822434 
   26900    284.55273    -83.32887    138052.86   -41280.141    3907.6465   -45187.788    313.27554   0.99850534 
   27000    285.14796   -80.775324    138101.54   -41323.549    3915.8205   -45239.369    314.22557   0.99815334 
   27100    292.43627    141.93702    138088.03   -41220.527    4015.9079   -45236.435    315.28119   0.99825101 
   27200    291.75464   0.71585877    138204.02   -41174.094    4006.5473   -45180.641    316.28132   0.99741323 
   27300    285.69393    84.868059    138206.35   -41128.539    3923.3181   -45051.857     317.0125   0.99739638 
   27400     289.2713   -308.26311    137999.32   -41166.355    3972.4447     -45138.8    317.97884   0.99889269 
   27500    284.07598      171.211    138061.66   -41198.903    3901.0996   -45100.003    318.93709   0.99844165 
   27600    290.05157    73.895017    138203.18   -41154.384    3983.1599   -45137.544     321.0744   0.99741926 
   27700    290.27347    103.34296    138185.53   -41178.731    3986.2072   -45164.938    322.69524   0.99754667 
   27800    289.54435   -105.29912     138146.1   -41186.951    3976.1944   -45163.145    323.78619    0.9978314 
   27900    295.10014    -109.8234    138018.36   -41142.454    4052.4899   -45194.943    324.93906   0.99875494 
   28000    290.55136    67.014182    137944.21   -41105.974    3990.0233   -45095.997    325.66926   0.99929178 
   28100     286.7525    64.586683       137799    -41188.18    3937.8551   -45126.035    326.74084    1.0003448 
   28200    284.95448   -102.15337    137892.56   -41301.302    3913.1636   -45214.465    328.27508   0.99966607 
   28300    284.63265    202.35906    137758.53   -41303.936    3908.7441    -45212.68    328.95854    1.0006387 
   28400    295.31149    56.591579    137902.58   -41175.023    4055.3922   -45230.415    331.12773   0.99959342 
   28500    285.90469    -120.1494     137903.5   -41254.126    3926.2124   -45180.338     332.5026   0.99958678 
   28600    285.42441    80.909252    138120.03   -41260.403     3919.617    -45180.02    334.36885   0.99801973 
   28700    281.81949   -26.956378    138107.39   -41296.002     3870.112   -45166.114    334.97525   0.99811112 
   28800    285.57694    135.33379    138221.01   -41255.773    3921.7116   -45177.485    336.51508   0.99729065 
   28900     283.6818   -48.925212    137891.39    -41268.04    3895.6864   -45163.727    337.19226    0.9996746 
   29000    286.09647    96.653296    137948.85   -41240.934     3928.846    -45169.78    338.24341    0.9992582 
   29100    291.47715   -128.46739    138009.64   -41243.846    4002.7368   -45246.583    339.32119   0.99881802 
   29200    286.41144    161.11242    138064.15   -41282.745    3933.1714   -45215.916    340.22864   0.99842368 
   29300    286.11957    40.321141    138088.97   -41217.638    3929.1633   -45146.801    341.10405   0.99824422 
   29400    279.01792   -168.66277    138213.23   -41286.701    3831.6392    -45118.34     342.7089   0.99734678 
   29500    284.59376   -56.709086    138049.39   -41237.017      3908.21   -45145.227    343.06771   0.99853042 
   29600    285.45724     7.146288    138343.53   -41284.141    3920.0678   -45204.208    344.41892   0.99640741 
   29700    281.49285    251.77626     138120.3   -41222.772    3865.6264   -45088.399    345.38608   0.99801776 
   29800    291.65786    59.231543    138140.67    -41135.85    4005.2184   -45141.069    346.77688   0.99787064 
   29900    293.13629    43.720865    137880.35    -41123.59     4025.521   -45149.111     347.4602    0.9997546 
   30000    291.99393   -256.39758     137988.1   -41164.017    4009.8335    -45173.85    349.12674   0.99897397 
   30100    291.00425   -82.872286    137851.17   -41160.056    3996.2426   -45156.299    350.24432   0.99996625 
   30200    288.38363    21.763486    138205.06   -41140.232    3960.2546   -45100.486    352.32879   0.99740575 
   30300    288.95506    100.15501    138173.95   -41153.781     3968.102   -45121.883     354.0594   0.99763031 
   30400    282.52505   -307.71316     137951.9   -41310.677    3879.8012   -45190.478     355.2581   0.99923609 
   30500    284.83248    220.06499       137643   -41290.355    3911.4882   -45201.843    355.66315    1.0014786 
   30600     284.5035    153.41376    137910.33   -41344.545    3906.9704   -45251.515    356.74229   0.99953729 
   30700    285.50328    205.54247    138241.46    -41259.28       3920.7    -45179.98    358.91528   0.99714308 
   30800    286.54842   -80.234466    138323.64   -41223.748    3935.0525     -45158.8    359.17025   0.99655067 
   30900    284.64313    38.440544     137738.8    -41256.81    3908.8879   -45165.698    359.10506    1.0007821 
   31000    288.70897   0.75287684    137570.87   -41240.817    3964.7225   -45205.539    359.83887    1.0020037 
   31100    284.55121    -136.8023    137788.55    -41354.81    3907.6256   -45262.435    362.37438    1.0004207 
   31200    286.00361    30.461261    137543.54   -41329.364    3927.5709   -45256.935    363.71733    1.0022028 
   31300    284.51345    159.50533    137753.88   -41288.821     3907.107   -45195.928    364.98205    1.0006725 
   31400    283.58939    198.42016    137794.95   -41316.342    3894.4174    -45210.76    366.06201    1.0003742 
   31500    288.91824    78.617186    137516.92   -41190.538    3967.5963   -45158.134    366.52779    1.0023968 
   31600    286.28107    106.37666    137648.45   -41260.543    3931.3811   -45191.924    368.04518     1.001439 
   31700    282.39578    183.61206    137578.53   -41263.744     3878.026    -45141.77    369.10912    1.0019479 
   31800    281.47029   -73.376943     137722.8    -41257.59    3865.3166   -45122.907    371.26849    1.0008983 
   31900    282.13964    80.561126    137582.68   -41202.191    3874.5086   -45076.699    373.08465    1.0019177 
   32000    287.99882   -168.56862    137719.57   -41201.758    3954.9702   -45156.728     374.1885    1.0009218 
   32100    280.41776    93.793686    137933.32   -41211.724    3850.8626   -45062.586     376.6512   0.99937066 
   32200     282.9874   -57.601857    137811.27   -41205.523    3886.1504   -45091.674    377.61946    1.0002557 
   32300    285.87371    169.70797    137834.58   -41213.851     3925.787   -45139.638    379.63826    1.0000866 
   32400    292.60754   -174.52592    138328.24   -41109.323      4018.26   -45127.583    381.38535    0.9965175 
   32500    288.19717   -243.09023    137849.64    -41233.23    3957.6941   -45190.924    381.52496   0.99997732 
   32600    280.10845    13.394817    138126.04   -41272.524    3846.6151    -45119.14    382.63049   0.99797633 
   32700    288.34455   -102.99242    137893.43   -41193.894     3959.718   -45153.612    383.61778   0.99965977 
   32800     288.1123    -52.34068    137902.85   -41307.998    3956.5287   -45264.527    385.25987   0.99959148 
   32900    287.60142   -63.659658    137918.82   -41415.866     3949.513   -45365.379    386.50173   0.99947575 
   33000     285.4053    24.207808     138240.3   -41354.458    3919.3545   -45273.813    389.15519   0.99715148 
   33100    289.05176    333.14795    138378.98   -41315.934    3969.4298   -45285.363    390.74654   0.99615217 
   33200    290.00434    28.219411    138616.58   -41279.476    3982.5113   -45261.988    392.23324   0.99444467 
   33300    292.19917   -64.575195    138451.26   -41284.657    4012.6519   -45297.309    393.43863   0.99563208 
   33400     286.6994    201.16501    138538.37   -41312.257    3937.1259   -45249.383    395.04842   0.99500606 
   33500     290.2978   -49.731436    138719.29   -41255.917    3986.5412   -45242.458    396.41532   0.99370838 
   33600    286.29773   -36.241906    138508.71     -41298.5    3931.6099    -45230.11    397.49967   0.99521915 
   33700    290.52109   -147.48315    138508.25   -41287.999    3989.6076   -45277.607     398.7829   0.99522246 
   33800     287.3865   -90.134198    138053.63   -41280.453    3946.5616   -45227.014     399.8645   0.99849975 
   33900    286.53451    328.11198     137958.5   -41290.962    3934.8615   -45225.824    400.99898   0.99918831 
   34000     289.2681   -60.819429    138103.37   -41308.668    3972.4008   -45281.068    402.53682   0.99814012 
   34100     276.9582    38.726017    138020.95   -41360.009    3803.3539   -45163.363    404.13519   0.99873621 
   34200     281.0977    75.576407    137957.13   -41328.005       3860.2   -45188.205    405.02001   0.99919821 
   34300    282.31854    79.402746     138021.1   -41265.138    3876.9653   -45142.104    405.88372   0.99873512 
   34400    287.86615   -173.34194    137469.02   -41163.994    3953.1484   -45117.143    405.61287     1.002746 
   34500    290.41175    209.36698    137463.32   -41105.081     3988.106   -45093.187    406.55716    1.0027876 
   34600     284.7886   -158.99004    137746.12   -41205.386    3910.8856   -45116.271    408.35974    1.0007289 
   34700    279.87095   -50.144106     137742.3   -41263.348    3843.3535   -45106.701    409.05454    1.0007566 
   34800    286.05905   -36.853033    138089.67   -41261.684    3928.3322   -45190.017    410.09811   0.99823914 
   34900     288.3216   -361.10355    137849.79   -41243.142    3959.4029   -45202.545    409.80251   0.99997623 
   35000     285.4408    135.61936    137748.87   -41299.315     3919.842   -45219.157    410.10585    1.0007089 
   35100    289.83285    95.191325     137782.2   -41194.734    3980.1562    -45174.89    411.81644    1.0004668 
   35200    295.11095     149.1749     137728.7   -41079.747    4052.6382   -45132.385    412.33879    1.0008555 
   35300    283.36794    127.22572    137681.94   -41166.855    3891.3763   -45058.231     413.2136    1.0011953 
   35400    282.17945    16.903011    137925.14   -41267.557    3875.0552   -45142.612    415.09114   0.99942994 
   35500    286.10839   -238.61934    137962.32   -41242.073    3929.0098   -45171.083    416.08697   0.99916061 
   35600     285.3326     5.919336    138213.06   -41238.101    3918.3561   -45156.457    418.50925   0.99734799 
   35700    282.33443    294.25436     138240.5   -41199.567    3877.1835    -45076.75    419.94977      0.99715 
   35800    288.97302    181.28302    138546.64   -41170.511    3968.3485   -45138.859    422.12345   0.99494668 
   35900    287.15301    184.41327    138600.54   -41127.775    3943.3551    -45071.13    422.93263   0.99455977 
   36000    290.68759     157.5653    138679.14   -41167.528    3991.8941   -45159.422    424.16486   0.99399605 
   36100    288.44812   -53.592218    138616.86   -41230.804    3961.1403   -45191.944    425.47364   0.99444265 
   36200    284.44744   -151.86997    138670.83    -41195.16    3906.2006    -45101.36    426.87199   0.99405559 
   36300    284.81135     138.6477    138501.96   -41212.711     3911.198   -45123.909    427.37443   0.99526763 
   36400    289.57877   -45.768751    138523.35   -41081.045    3976.6671   -45057.712    429.13667   0.99511397 
   36500    291.03546   -150.43387    138017.86   -41106.043    3996.6713   -45102.714    429.17038   0.99875851 
   36600    287.74862    5.2066104    138038.78   -41239.596    3951.5343    -45191.13    430.02638   0.99860717 
   36700     289.6664     16.23076    137697.04   -41253.191    3977.8705   -45231.062    430.51114    1.0010856 
   36800    286.37517    26.117004    137688.41   -41277.526    3932.6734     -45210.2    431.59636    1.0011483 
   36900    283.81646   -60.444832    137686.89   -41326.201    3897.5356   -45223.737    432.24942    1.0011593 
   37000    288.09549    83.000734    137525.09   -41274.171    3956.2978   -45230.469    433.44403    1.0023372 
   37100    288.93537    42.088656    137484.53   -41309.998    3967.8316    -45277.83    434.13872    1.0026329 
   37200    283.39029    175.21566    137468.62   -41310.143    3891.6832   -45201.826    436.43271     1.002749 
   37300    285.30429   -48.242354    137627.11   -41271.815    3917.9674   -45189.782    438.08522    1.0015942 
   37400    281.75364    211.27579     137611.9   -41318.399    3869.2077   -45187.607     438.6241    1.0017049 
   37500    282.91277   -93.616502     137699.6   -41349.726    3885.1256   -45234.851     440.4044     1.001067 
   37600    287.03894    74.534384    137939.97   -41322.986    3941.7887   -45264.775    442.29688   0.99932254 
   37700    282.73848   -4.1226242    137964.91   -41344.773    3882.7322   -45227.506    443.49022   0.99914183 
   37800    280.14187    142.98071    138126.29   -41345.719     3847.074   -45192.793    445.36249    0.9979745 
   37900    288.82782   -169.43576    138196.41   -41363.232    3966.3546   -45329.587    446.74432   0.99746812 
   38000    284.40042   -235.66388    138168.34   -41333.456    3905.5549   -45239.011    447.36272   0.99767075 
   38100    287.13118    142.31876    138164.38   -41324.055    3943.0554    -45267.11    447.98639   0.99769941 
   38200    285.16892     36.44551     138220.4   -41359.066    3916.1084   -45275.174    448.73021   0.99729504 
   38300    283.84067   -73.303701    138320.39    -41436.58     3897.868   -45334.448     450.1992   0.99657407 
   38400    280.76969   -100.64145    137869.72   -41509.558    3855.6955   -45365.253    449.55141   0.99983171 
   38500    283.86061   -48.187922    137735.71   -41479.509    3898.1419   -45377.651    449.84397    1.0008045 
   38600    289.04285    50.459964    137995.72   -41339.159    3969.3075   -45308.467    451.44618   0.99891882 
   38700    285.18978    202.92788    138155.76   -41303.871    3916.3948   -45220.265    453.13118   0.99776163 
   38800    287.94965   -146.81585    137930.77   -41256.709    3954.2951   -45211.004    454.11828   0.99938913 
   38900    287.85664     111.4735    138555.61    -41157.71    3953.0178   -45110.728     455.7025   0.99488222 
   39000    287.66263    113.09456    138477.97   -41182.884    3950.3535   -45133.237    456.76649   0.99544004 
   39100    288.41525    42.087597    138417.82   -41266.173     3960.689   -45226.862    458.45146   0.99587265 
   39200    287.43664   -10.162863    138387.72   -41227.751    3947.2501   -45175.001    459.65462   0.99608925 
   39300     286.1532   -174.85827    138292.37   -41235.459    3929.6251   -45165.084    461.03751   0.99677603 
   39400    288.65256   -65.329461    138202.44   -41226.471    3963.9479   -45190.419    462.50298    0.9974246 
   39500    292.93022   -120.44312    138052.25   -41184.647    4022.6911   -45207.338    463.84742   0.99850975 
   39600    286.33174    35.744206    138010.68   -41219.954    3932.0769   -45152.031    464.85829   0.99881054 
   39700    289.34241   -52.276559    138020.79   -41294.332    3973.4213   -45267.753    466.24496   0.99873731 
   39800    284.25597   -189.58063     137853.2   -41275.723    3903.5713   -45179.295     466.5495   0.99995151 
   39900    279.92019   -17.071204    137851.87    -41442.01    3844.0297    -45286.04    466.69155   0.99996115 
   40000     285.3731   -123.70912    138093.16   -41329.259    3918.9123   -45248.171    468.81989   0.99821395 
   40100    286.59295   -48.462002    138129.15   -41280.124     3935.664   -45215.788    470.29346   0.99795386 
   40200    291.61101    -184.2936    137718.79   -41244.664     4004.575   -45249.239    470.87995    1.0009275 
   40300    284.25514   -200.23739    137552.56   -41323.204    3903.5598   -45226.763    471.92862     1.002137 
   40400    286.34344   -147.40722    137604.08   -41305.392    3932.2377    -45237.63    473.34365    1.0017618 
   40500    284.34334    29.661006    137713.34   -41289.589    3904.7711    -45194.36    473.55587     1.000967 
   40600     285.4245   -89.492543    137652.47   -41285.466    3919.6182   -45205.084    474.44289    1.0014097 
   40700     289.1292   -60.396821    137759.96   -41265.006    3970.4933   -45235.499    476.45153    1.0006283 
   40800    284.03173   -138.18108    137558.04   -41296.722    3900.4918   -45197.214    477.30496    1.0020971 
   40900       285.23   -130.40598    137832.44   -41280.631    3916.9471   -45197.578    478.90072    1.0001021 
   41000    289.66769    219.44304    137883.13   -41248.318    3977.8881   -45226.206    479.62992   0.99973448 
   41100    289.77398   -26.522685    137861.62   -41227.976    3979.3479   -45207.324    480.51004   0.99989046 
   41200    284.60419   -147.63623    137949.19   -41172.472    3908.3531   -45080.825    481.90426   0.99925573 
   41300    282.85482    -179.0276    137750.83   -41290.559    3884.3299   -45174.889    481.68861    1.0006947 
   41400     288.4614    71.059697    137882.81    -41267.92    3961.3227   -45229.243    483.17231   0.99973679 
   41500    285.68137   -14.209411    137694.15   -41280.036    3923.1457   -45203.181    483.44047    1.0011066 
   41600    291.16444    99.249217    137760.16    -41224.86    3998.4424   -45223.302    485.15215    1.0006268 
   41700    285.56103      4.29143    137639.32     -41335.2    3921.4932   -45256.694    485.92799    1.0015054 
   41800    289.92737    253.15417    137816.58   -41258.592    3981.4542   -45240.047    487.97171    1.0002172 
   41900    290.23828    -106.2184    137888.27   -41251.781    3985.7239   -45237.505    489.67651   0.99969722 
   42000    285.21814   -70.554532    137839.22   -41280.504    3916.7843   -45197.289    490.17543    1.0000529 
   42100    287.92646   -235.17552    138093.69   -41258.454    3953.9766    -45212.43    491.87643   0.99821009 
   42200    288.70806    19.440847    138081.62   -41216.134      3964.71   -45180.844    491.30357   0.99829733 
   42300    287.74275   -228.55277    138021.48    -41325.17    3951.4537   -45276.624    493.03543   0.99873234 
   42400    288.36944    109.92942    137976.36   -41250.691    3960.0599   -45210.751    494.34439   0.99905893 
   42500    282.10032   -10.236595    137856.55   -41299.809    3873.9685   -45173.777    495.63989    0.9999272 
   42600    287.59921   -26.574671    137860.52    -41326.45    3949.4825   -45275.932    496.98346   0.99989844 
   42700    284.26611   -224.66774    137690.75     -41419.2    3903.7104    -45322.91    497.83593    1.0011313 
   42800    283.11809    155.61999    138004.72   -41367.916    3887.9452   -45255.861    499.60388   0.99885365 
   42900    291.12297   -4.5158041    138054.06   -41331.969    3997.8729   -45329.842    501.06107   0.99849662 
   43000    283.74704   -16.438544    138345.45   -41305.368    3896.5823    -45201.95    502.28427   0.99639356 
   43100    286.28724   -48.160538    138101.81   -41321.045    3931.4659   -45252.511    502.42771   0.99815139 
   43200    282.55287    76.438449    138195.72   -41319.529    3880.1832   -45199.712    504.54675   0.99747315 
   43300    283.09905   -156.04362    138241.05    -41347.22    3887.6837   -45234.904    505.70634   0.99714604 
   43400    281.65003   -188.19324    137940.33   -41323.218     3867.785   -45191.003    506.29819   0.99931987 
   43500    284.06188   -63.572566     138161.5   -41286.583    3900.9059   -45187.489    507.34625    0.9977202 
   43600    285.74936   -77.909089    138067.51   -41287.995    3924.0794   -45212.074    508.06299   0.99839936 
   43700    290.08003   -281.22819    138088.25   -41235.675    3983.5507   -45219.226    509.35841   0.99824943 
   43800     290.2064   -287.04269     137675.2   -41205.893    3985.2861   -45191.179    509.08014    1.0012444 
   43900    284.69874   -148.10695    137278.65   -41314.338    3909.6516    -45223.99    510.06336    1.0041366 
   44000    289.26557    382.12321    137313.98   -41285.898     3972.366   -45258.264    511.87084    1.0038782 
   44100    289.11768    80.022529    137480.44   -41188.372    3970.3351   -45158.707    513.43181    1.0026628 
   44200    281.65917    83.622803    137624.44   -41304.644    3867.9105   -45172.554    514.58205    1.0016137 
   44300    278.14141    100.84181    137750.68   -41405.084    3819.6025   -45224.687    516.54586    1.0006957 
   44400    290.83442   -182.41615    137924.53    -41396.08    3993.9104    -45389.99    517.89392   0.99943439 
   44500    283.72258   -28.250671    138246.94   -41383.723    3896.2464    -45279.97    519.71851    0.9971036 
   44600    282.28243    118.21109    137982.25   -41432.144    3876.4694   -45308.613    520.95853   0.99901627 
   44700     278.7423    206.35591    138043.16   -41434.708    3827.8542   -45262.562    521.92588   0.99857552 
   44800    287.47062    287.27735       138027    -41343.36    3947.7167   -45291.077     522.7566   0.99869241 
   44900    285.50999    52.590484    138219.37   -41346.031    3920.7921   -45266.823    524.37426   0.99730244 
   45000    285.07386   -46.338023    138137.06   -41357.986    3914.8029   -45272.789    524.43493   0.99789668 
   45100    285.01606    215.69544    138202.76    -41268.21    3914.0093    -45182.22    525.31519   0.99742233 
   45200    286.41726    0.1667475    138166.71   -41304.536    3933.2514   -45237.788    526.72554   0.99768258 
   45300     284.0981   -197.74957    138081.56   -41322.633    3901.4033   -45224.036    527.87555   0.99829776 
   45400    284.94046   -6.3333849    137758.19   -41344.813    3912.9711   -45257.784    526.52952    1.0006412 
   45500     289.1806    217.10928    137943.37   -41264.692    3971.1992   -45235.892    528.22722   0.99929787 
   45600    282.39409   -32.672738    138305.57   -41316.593    3878.0028   -45194.595     529.8114   0.99668087 
   45700    290.53683    88.368192     138318.3   -41253.993    3989.8237   -45243.816    530.40096   0.99658914 
   45800    282.87238    -72.11973    138421.07   -41242.273    3884.5709   -45126.844    531.92763   0.99584926 
   45900    289.73251    7.8064444    138406.88   -41214.846    3978.7783   -45193.625    533.18538   0.99595131 
   46000    289.39349   -22.229755    138391.63   -41260.966    3974.1228   -45235.089    534.85806   0.99606108 
   46100    286.00714    197.47022    138629.26   -41216.015    3927.6193   -45143.634    536.50211   0.99435367 
   46200    283.73884   -60.823387    138349.15    -41220.59    3896.4696    -45117.06    537.37781   0.99636694 
   46300    288.72629   -34.621054    138094.29   -41270.539    3964.9603     -45235.5    537.31045   0.99820573 
   46400    281.11137   -102.50995    138418.21   -41297.886    3860.3877   -45158.273    539.09369    0.9958698 
   46500    288.55674   -140.67494    138445.74   -41229.179     3962.632   -45191.811    539.93261   0.99567177 
   46600    288.19071  -0.91949626    138246.26   -41186.248    3957.6054   -45143.853     540.1991   0.99710847 
   46700    289.09087    208.37807    138451.86   -41120.704     3969.967   -45090.671    541.39698   0.99562779 
   46800    292.14228    19.574198    138373.68   -41126.077    4011.8708   -45137.948    541.58362   0.99619026 
   46900    287.56858    59.635523    138405.83   -41141.359     3949.062   -45090.421    542.97878   0.99595892 
   47000    287.15555   -215.63124    138725.28   -41205.613    3943.3899   -45149.003    544.80965   0.99366545 
   47100    288.40713    92.418683    138191.65   -41245.353    3960.5774    -45205.93    544.31241   0.99750252 
   47200    288.21106   -196.29457    138150.21   -41303.489    3957.8848   -45261.374    545.43831    0.9978017 
   47300    291.97408   -21.698966    138084.35   -41245.692    4009.5609   -45255.252    546.00864   0.99827761 
   47400    285.87401    -66.45931    138400.88   -41262.551    3925.7911   -45188.342    548.72954   0.99599449 
   47500    288.26669   -230.09752    138485.87   -41281.567    3958.6488   -45240.216    550.76563   0.99538323 
   47600    287.00601   -234.81667    138080.92   -41217.765    3941.3364   -45159.102    550.90641   0.99830244 
   47700    285.17049    76.741815    138277.16   -41325.755    3916.1299   -45241.885    553.19055   0.99688565 
   47800    282.52851    -224.2611    138150.02   -41347.155    3879.8487   -45227.004      554.524   0.99780306 
   47900    286.81003   -88.890999    137768.03   -41312.016    3938.6451   -45250.661    554.59027    1.0005697 
   48000    283.87957    156.00347    137963.22   -41306.265    3898.4023   -45204.667    556.52594   0.99915411 
   48100    288.40532   -81.106564    138462.82   -41311.704    3960.5525   -45272.256     559.8853   0.99554899 
   48200    282.90209   -103.00921    138025.28   -41310.338     3884.979   -45195.317    560.07417   0.99870485 
   48300    289.94006   -231.86784    138139.32   -41312.056    3981.6285   -45293.684    561.23837   0.99788034 
   48400     283.1641    218.42912    138138.79   -41260.852     3888.577   -45149.429    562.68702   0.99788418 
   48500    286.63994   -69.603345    138344.14   -41318.625    3936.3093   -45254.934    564.59446   0.99640297 
   48600    285.93404   -186.67251    138171.19     -41306.6    3926.6154   -45233.215     565.0564   0.99765022 
   48700    285.79477    57.217183    138174.33   -41403.529     3924.703   -45328.232    565.94591   0.99762755 
   48800    284.57227   -104.64198    138053.27   -41332.978    3907.9149   -45240.893    565.61146    0.9985024 
   48900    285.28633     290.3955    138365.21   -41263.569    3917.7207    -45181.29    566.94595   0.99625125 
   49000    283.42847   -50.748547    138189.09   -41248.107    3892.2075   -45140.315    567.43647     0.997521 
   49100    283.93371     96.34233    138319.03   -41328.218    3899.1457   -45227.363    568.84182   0.99658388 
   49200    284.87197    116.71501    138245.77    -41378.12    3912.0305    -45290.15    570.34707   0.99711201 
   49300     286.8529    92.799246    138248.27   -41335.688    3939.2338   -45274.922    571.34681   0.99709395 
   49400    286.96006   -226.49344    138236.73   -41355.862    3940.7054   -45296.568     572.9904   0.99717724 
   49500    288.03722    141.09099    138352.62   -41335.463    3955.4977   -45290.961    575.14228    0.9963419 
   49600    286.92691   -319.82164    138068.53   -41372.063    3940.2502   -45312.313    576.37053   0.99839202 
   49700    283.72667   -156.15325     138028.4   -41293.675    3896.3026   -45189.978    577.17415   0.99868228 
   49800    292.81971     95.98151    137991.37   -41214.766    4021.1735    -45235.94    578.59296   0.99895026 
   49900    285.73021     94.15534    138083.57   -41283.597    3923.8164   -45207.413    580.10216   0.99828326 
   50000    281.79022   -200.29194     138180.3   -41349.399    3869.7101   -45219.109    582.16769   0.99758445 
   50100    285.01869    61.719285    138223.79   -41320.407    3914.0454   -45234.452    583.58298   0.99727058 
   50200     282.2895    392.18879    138451.24   -41343.699    3876.5665   -45220.266    584.36726   0.99563224 
   50300    287.33244    28.293793    138149.04   -41290.922    3945.8191   -45236.741     584.4572   0.99781013 
   50400    287.01359   -237.89324     138339.3   -41308.416    3941.4405   -45249.856    585.43977   0.99643785 
   50500      283.727    199.99347    137767.21   -41341.457    3896.3071   -45237.764    585.32187    1.0005757 
   50600    282.99014   -95.288797    137830.83   -41308.665    3886.1882   -45194.853    586.97715    1.0001138 
   50700    287.32942    74.529468    137972.73   -41232.425    3945.7776   -45178.203    588.20283    0.9990852 
   50800     285.1167    35.215921     138100.9   -41206.161    3915.3913   -45121.552    590.27491   0.99815797 
   50900    289.37444    333.18963    138082.91   -41233.656    3973.8611   -45207.518    591.55513   0.99828805 
   51000    282.63523    44.186968    138270.52   -41304.936    3881.3143    -45186.25    594.41652   0.99693351 
   51100    287.92793   -20.291357    138108.32   -41248.342    3953.9968   -45202.339    595.85977   0.99810433 
   51200    293.18245   -242.26225    137862.93    -41129.97     4026.155   -45156.125     596.6309   0.99988098 
   51300    291.43662   -25.937218    137945.79   -41176.318    4002.1802   -45178.499    597.10955   0.99928035 
   51400    283.06535   -275.33582    137916.34   -41338.667    3887.2209   -45225.888    598.25063   0.99949372 
   51500    283.39824    78.008594    137982.61   -41367.245    3891.7924   -45259.038    599.77379   0.99901368 
   51600    286.22625    140.34455    137867.06   -41334.977    3930.6283   -45265.606    601.18522   0.99985096 
   51700    281.53484   -125.74537    138064.87   -41357.212    3866.2031   -45223.415    601.73219   0.99841849 
   51800    281.61141   -15.217633    138013.55   -41347.675    3867.2546    -45214.93    602.59428   0.99878971 
   51900    284.49793   -265.14598    137944.87   -41411.767    3906.8939   -45318.661    603.75298   0.99928704 
   52000    284.90925    115.54877     137979.3   -41311.354    3912.5425   -45223.897    604.52262   0.99903769 
   52100    285.59064   -52.905301     138061.8   -41365.843    3921.8997   -45287.743    606.57458   0.99844066 
   52200    284.51428    42.714883    137908.76   -41389.204    3907.1185   -45296.322     607.0217   0.99954869 
   52300     286.5803   -20.396701    137893.78   -41326.536    3935.4903   -45262.026    607.78336   0.99965724 
   52400    286.31755   -186.14719    137887.85     -41239.3    3931.8821   -45171.182    609.51047   0.99970025 
   52500    285.73283    -195.8148    137879.33   -41267.731    3923.8523   -45191.583    611.50886   0.99976204 
   52600    288.34172    107.16432    138025.72   -41315.266    3959.6791   -45274.945    613.14805   0.99870168 
   52700    285.72375   -251.42898    137951.53   -41330.202    3923.7276   -45253.929    614.81764   0.99923879 
   52800    279.33415    75.548255    137923.21   -41376.575    3835.9819   -45212.556    615.34066   0.99944398 
   52900    278.35264    203.32473    137778.31   -41429.055    3822.5032   -45251.558    615.67322     1.000495 
   53000    277.40784   -58.775267    137964.22   -41505.838    3809.5286   -45315.367    617.21172   0.99914686 
   53100    280.41118   -160.59172    138201.75   -41515.076    3850.7723   -45365.849    619.13506   0.99742958 
   53200    283.46252    146.62751    138372.08    -41331.42    3892.6752   -45224.095    620.29566   0.99620184 
   53300    283.89934    -98.14157    138377.58   -41315.797    3898.6738    -45214.47    621.06715   0.99616224 
   53400    289.30305   -295.21591    138253.16   -41216.953    3972.8807   -45189.834    621.10544   0.99705868 
   53500    287.34398   -19.663111    137970.33   -41232.267    3945.9777   -45178.245    621.22402    0.9991026 
   53600    284.89543    147.60655    138139.87   -41201.804    3912.3527   -45114.157    622.52446   0.99787643 
   53700    282.58376    16.412817    137978.53   -41311.867    3880.6074   -45192.475     623.9464   0.99904321 
   53800    283.21829   -195.12726    138041.22   -41338.658    3889.3211   -45227.979     625.2173   0.99858952 
   53900    287.83043    128.90847    137823.53   -41365.648    3952.6578   -45318.306    625.73642    1.0001668 
   54000    285.42373   -165.57656    137947.97    -41310.62    3919.6077   -45230.227    627.04295   0.99926454 
   54100    283.67113   -160.86789    137616.87   -41278.858    3895.5399   -45174.398    627.89363    1.0016688 
   54200    281.33003    166.83527    137575.95   -41317.699    3863.3905   -45181.089     628.3806    1.0019667 
   54300    283.83667    40.466696    137730.01   -41194.907    3897.8132    -45092.72     629.9539    1.0008459 
   54400     281.3928   0.83687109    137829.99   -41320.813    3864.2525   -45185.066    631.69265    1.0001199 
   54500    289.46982    168.08772    137704.87   -41304.705    3975.1709   -45279.876    633.01616    1.0010286 
   54600    288.84275    181.78294    137584.65    -41300.22    3966.5596    -45266.78    633.78913    1.0019033 
   54700    282.68252   -223.00581    137953.53   -41312.028    3881.9636   -45193.991    635.71858    0.9992243 
   54800    288.04121    66.891984    138077.84   -41289.391    3955.5524   -45244.943    637.50053   0.99832469 
   54900    286.78304    92.818803    138097.77   -41198.463    3938.2744   -45136.737    638.65996   0.99818064 
   55000    289.26769    37.122304    137955.05   -41123.091    3972.3951   -45095.487    638.88939   0.99921326 
   55100    290.33267   -164.68705    138022.41   -41133.619      3987.02   -45120.639    640.63565    0.9987256 
   55200    284.88252    287.65335    137915.96   -41162.813    3912.1754   -45074.988    642.19809   0.99949651 
   55300     292.8878    175.49109    137887.86   -41173.191    4022.1086     -45195.3    644.30541   0.99970014 
   55400    287.99349     240.2322    137969.13   -41159.491    3954.8971   -45114.388    645.81516   0.99911126 
   55500    291.96239    106.86732    138389.12   -41163.399    4009.4003   -45172.799    648.25875   0.99607913 
   55600    291.63037   -95.332413    138370.53   -41141.589    4004.8408    -45146.43    648.82152     0.996213 
   55700    289.55516    -394.8765    138468.44   -41179.202    3976.3428   -45155.545    650.51632   0.99550853 
   55800    280.16633    138.12991     137984.3   -41314.962    3847.4099   -45162.372    649.12361   0.99900149 
   55900    278.42497   -204.61979    138004.69    -41313.72    3823.4964   -45137.216    651.09934   0.99885389 
   56000    286.93157    -95.03763    137862.41   -41346.411    3940.3142   -45286.725    651.74957   0.99988472 
   56100    286.00745   -153.02819    137841.12   -41364.429    3927.6235   -45292.052    653.04771    1.0000392 
   56200    289.39551    56.625558    137950.99   -41294.918    3974.1504   -45269.068    653.98147   0.99924267 
   56300    287.71673   -91.516636    137950.33    -41218.86    3951.0965   -45169.956    655.38798   0.99924743 
   56400    293.89901    94.987913    138433.31   -41090.424    4035.9952   -45126.419    657.47216    0.9957612 
   56500    289.51915   -187.55245    138332.82   -41213.994    3975.8483   -45189.843    658.96826   0.99648454 
   56600    288.09917   -33.741257    138288.54   -41175.892    3956.3484    -45132.24    660.29207   0.99680365 
   56700    289.58347   -50.924066    138133.79   -41194.499    3976.7317   -45171.231    661.15133   0.99792034 
   56800    292.55114    -65.88656    138253.16   -41142.879    4017.4855   -45160.365    663.70663   0.99705867 
   56900     286.8257   -97.945368    138282.08    -41185.03    3938.8603    -45123.89    665.61795    0.9968502 
   57000    286.04393    -208.6429     138186.9   -41253.568    3928.1245   -45181.692     666.1358   0.99753676 
   57100    279.34119   -199.02029    138239.02   -41362.714    3836.0785   -45198.792    666.93056    0.9971607 
   57200    277.86325    16.907845    137945.02     -41423.3    3815.7826   -45239.083    667.44531   0.99928594 
   57300    281.91539   -42.425843    137483.06   -41373.806     3871.429   -45245.235    667.18278    1.0026437 
   57400      286.395   -153.37716    137472.16   -41342.293    3932.9457   -45275.239    667.69712    1.0027232 
   57500    285.22898    111.02043    137418.71   -41285.859    3916.9332   -45202.792    668.11361    1.0031132 
   57600    282.14057    153.21899    137560.91   -41434.557    3874.5213   -45309.078    669.15151    1.0020762 
   57700    285.37832    321.68646    137856.91   -41310.678    3918.9841   -45229.662    670.64316   0.99992464 
   57800    282.84497    97.910467    138260.04   -41282.286    3884.1946   -45166.481    672.91937   0.99700911 
   57900    282.66467   -87.791874    138390.37   -41342.965    3881.7185   -45224.684    673.87519   0.99607016 
   58000    287.50313   -151.52549    138018.58   -41317.605    3948.1631   -45265.768    674.49628   0.99875331 
   58100    283.66619   -54.839326    137997.54   -41229.212     3895.472   -45124.684    675.39765   0.99890563 
   58200    286.09313    236.93396    138378.51   -41342.182    3928.8002   -45270.982     677.5046   0.99615553 
   58300    288.38917   -61.965285    138574.08   -41326.595    3960.3308   -45286.926    679.16071   0.99474964 
   58400    287.07712   -39.012371    138215.99   -41292.834     3942.313   -45235.147    679.39507   0.99732686 
   58500    291.29374   0.19446715    138578.95   -41205.563     4000.218   -45205.781    681.38403   0.99471466 
   58600    288.19552    233.37344     138668.2   -41272.548    3957.6714   -45230.219    683.31201   0.99407445 
   58700     288.6601    324.87564    138335.07   -41250.453    3964.0514   -45214.504     683.6305   0.99646835 
   58800    291.84164    97.388566    138258.82   -41214.099    4007.7422   -45221.841    684.00388   0.99701786 
   58900    285.34401    48.102706    138043.77   -41178.098    3918.5128   -45096.611    684.39738   0.99857107 
   59000    287.82875    130.22627    137797.19   -41233.188    3952.6347   -45185.823    684.34121     1.000358 
   59100    279.95409    278.07336    137892.45   -41234.244    3844.4953   -45078.739    685.15883    0.9996669 
   59200    285.46503   -79.302702    137806.06   -41269.623    3920.1747   -45189.798    685.58342    1.0002936 
   59300    283.79471   -119.23478    137802.67   -41254.889    3897.2369   -45152.126    685.90287    1.0003182 
   59400    283.91887    146.01009     137608.3     -41244.4     3898.942   -45143.342    686.00413    1.0017312 
   59500    288.27117    49.532794    137695.71   -41240.682    3958.7103   -45199.392    687.80854    1.0010952 
   59600    291.65832    83.092571    138126.77   -41174.549    4005.2247   -45179.774    689.95614   0.99797101 
   59700     292.7311    16.208044    138082.93   -41204.738    4019.9568   -45224.694    690.92251    0.9982879 
   59800    284.60813     25.41266    138258.85    -41248.83    3908.4074   -45157.237    692.82965    0.9970177 
   59900    287.36184   -4.0395084    138114.96   -41234.603    3946.2228   -45180.826    693.67391   0.99805639 
   60000    290.81866    15.660851    138087.44   -41260.037    3993.6939   -45253.731    694.61388   0.99825531 
   60100     279.9662    113.75612    137939.49   -41337.565    3844.6616   -45182.227    695.65028   0.99932599 
   60200    283.63801     18.41061    138224.58   -41351.174     3895.085   -45246.259    698.21464   0.99726485 
   60300    286.45172    12.579996    138093.32    -41265.16    3933.7246   -45198.885    699.41316   0.99821277 
   60400    286.41529   -56.581993    138500.32   -41259.554    3933.2243   -45192.779    701.54673   0.99527941 
   60500    282.85621     130.3798    138188.44   -41355.757    3884.3489   -45240.106    701.55415   0.99752566 
   60600    287.58721   -34.936423    137835.65   -41267.426    3949.3177   -45216.743    701.73997    1.0000788 
   60700    284.70083    11.360457    137934.54    -41285.11    3909.6803    -45194.79    702.60883   0.99936183 
   60800    283.55024    136.70123     138044.4   -41298.248    3893.8798   -45192.127    704.47023   0.99856656 
   60900    290.38037    99.228276    138109.79   -41228.081    3987.6751   -45215.756    706.24859   0.99809375 
   61000    289.66204    302.76872    138275.39   -41214.007    3977.8105   -45191.818    707.71511   0.99689845 
   61100    285.48683    99.980443    138841.29   -41177.868    3920.4741   -45098.343    710.44077   0.99283518 
   61200      290.459   -182.59267    138795.63   -41218.613     3988.755   -45207.368    710.75886   0.99316177 
   61300    290.10895    119.56114    138695.81   -41195.878    3983.9479   -45179.826    711.74334    0.9938766 
   61400    290.54969    77.117913    138852.49   -41075.639    3990.0003    -45065.64     714.2525   0.99275511 
   61500    291.65815   -152.71327    138524.54   -41099.248    4005.2223   -45104.471    714.29264   0.99510539 
   61600     285.5561   -139.57133    138306.93   -41172.868    3921.4254   -45094.293    715.10405    0.9966711 
   61700    288.39225     19.00186    138436.29   -41193.178    3960.3731   -45153.551    716.39812   0.99573976 
   61800    283.49668    128.44712    138146.36   -41194.384    3893.1442   -45087.529    716.01686   0.99782955 
   61900    285.13893   -339.18793    138099.29   -41197.575    3915.6966   -45113.271    717.28219   0.99816966 
   62000    287.42846    176.48852    137784.92   -41182.168    3947.1377   -45129.306     718.3018     1.000447 
   62100    289.83835    -7.589649    137878.84    -41217.14    3980.2318   -45197.372    719.50945   0.99976557 
   62200       288.17   -87.483879    137685.43   -41237.161     3957.321   -45194.482    719.68501      1.00117 
   62300    283.91727    -41.84108    137505.45   -41292.248      3898.92   -45191.168    720.56072    1.0024804 
   62400    282.79486   -66.151375    137602.96   -41313.222    3883.5064   -45196.729    721.55725      1.00177 
   62500     285.7933   -84.409456    137655.69   -41289.607    3924.6828    -45214.29    723.16754    1.0013863 
   62600    286.08137    43.552756    137524.25   -41248.696    3928.6387   -45177.335    724.59837    1.0023433 
   62700    288.93889   -124.08799    137774.18   -41270.336    3967.8799   -45238.216    726.81108     1.000525 
   62800    285.30288    291.14443    137907.16   -41236.402     3917.948    -45154.35    729.67896   0.99956025 
   62900    281.04133     107.4404    137701.59    -41262.26    3859.4259   -45121.685    730.06335    1.0010525 
   63000    288.29703    18.527419     137700.6   -41262.043    3959.0655   -45221.109      732.024    1.0010596 
   63100    287.38447    177.70415    137612.06   -41270.864    3946.5337   -45217.398    733.36292    1.0017038 
   63200    290.35673   -52.657419    137777.37   -41279.746    3987.3504   -45267.096    735.73108    1.0005019 
   63300    283.72858   -159.34577    137473.13   -41370.739    3896.3288   -45267.068    736.03071     1.002716 
   63400    281.09077   -48.618497    137373.27   -41449.877    3860.1049   -45309.981    737.01694     1.003445 
   63500    283.89519     5.441724    137348.06   -41300.202    3898.6168   -45198.819    738.55588    1.0036292 
   63600    285.87097    61.228461    137468.49   -41271.407    3925.7493   -45197.157    739.59326    1.0027499 
   63700    283.33122    95.226305    137582.45   -41332.189     3890.872   -45223.061    740.03131    1.0019194 
   63800     284.1931    30.458962    137498.68    -41344.53    3902.7078   -45247.238    741.53086    1.0025297 
   63900    281.78276   -152.25972     137571.5   -41336.275    3869.6077   -45205.883    743.09907    1.0019991 
   64000    282.55919    110.75705    137522.03   -41390.166      3880.27   -45270.436    745.31139    1.0023595 
   64100    282.28357    43.914527    137700.04   -41355.591     3876.485   -45232.076    746.96601    1.0010638 
   64200    283.30111    222.69416    137789.96   -41367.231    3890.4585   -45257.689    749.01519    1.0004105 
   64300     282.6845   -35.559501    137977.13   -41403.986    3881.9909   -45285.977    751.05752   0.99905334 
   64400    284.49876   -220.68882    138267.41    -41424.04    3906.9054   -45330.946    753.20061   0.99695592 
   64500    283.39152   -9.8946627    138399.71   -41464.298    3891.7001   -45355.998    755.01588    0.9960029 
   64600    286.06319   -25.759645    138364.89   -41402.455    3928.3891   -45330.845    756.08266   0.99625359 
   64700    283.90836   -182.87185    138245.92   -41357.153    3898.7976   -45255.951    756.90801   0.99711093 
   64800    286.96687    128.13907    138460.86   -41276.393    3940.7989   -45217.192    758.44607   0.99556307 
   64900    284.10512    304.08326    138436.65    -41264.99    3901.4996   -45166.489    759.54694   0.99573715 
   65000     286.2694    30.163236    138481.45     -41250.9    3931.2208   -45182.121    762.09962     0.995415 
   65100    285.14332    115.04853    138577.56   -41326.225    3915.7568   -45241.982    763.67455   0.99472463 
   65200    280.26505    28.380462    138336.39   -41293.958    3848.7656   -45142.723    763.92446   0.99645881 
   65300    284.36291    213.94536    138274.88   -41318.454    3905.0398   -45223.493    765.15867    0.9969021 
   65400    281.49867    136.54537    138241.01   -41369.206    3865.7063   -45234.912    765.53498   0.99714633 
   65500    289.39914   -136.93537    138379.62   -41256.438    3974.2003   -45230.638     767.7265    0.9961475 
   65600    291.05802    44.702194    138617.69   -41182.676     3996.981   -45179.657    769.50783   0.99443665 
   65700    283.98927   -20.226681    138371.83   -41232.376    3899.9088   -45132.284    770.26173   0.99620358 
   65800    291.85334    -4.667953    138485.42   -41248.283    4007.9028   -45256.186    771.22417   0.99538651 
   65900    284.13703    20.380181     138247.2   -41272.691    3901.9379   -45174.629    771.02352   0.99710171 
   66000    284.50544   -29.388827    138313.42   -41327.802     3906.997   -45234.799     772.2824   0.99662432 
   66100    291.79536    207.74862    138468.15   -41268.095    4007.1067   -45275.202    773.98099   0.99551064 
   66200    288.00914    70.227508    138260.13   -41226.363     3955.112   -45181.475    774.44422   0.99700847 
[...]
   84600    283.35879   -112.24171    138247.74   -41310.327    3891.2506   -45201.577    993.82745    0.9970978 
   84700    282.24453    153.74883     137946.9   -41279.533    3875.9489   -45155.482    992.60393   0.99927231 
   84800    283.77147    -164.8316    138195.79   -41203.966    3896.9178   -45100.884    994.91146   0.99747265 
   84900     285.7758   -38.418762    137621.88   -41256.068    3924.4425    -45180.51    993.67497    1.0016323 
   85000    285.14632   -92.114248    137744.74   -41231.704     3915.798   -45147.502    994.90372    1.0007389 
   85100    285.48539   -166.62335    137351.08   -41246.941    3920.4543   -45167.395    994.20518    1.0036071 
   85200    287.93833  -0.98868287    137413.54    -41234.66    3954.1395   -45188.799     996.1766    1.0031509 
   85300    290.75735    130.85702     137224.3   -41206.989     3992.852   -45199.841    996.08192    1.0045343 
   85400    288.33352   -187.21575     137164.6   -41223.278    3959.5665   -45182.844    996.96395    1.0049715 
   85500    289.34094   -110.26183    137466.67   -41212.451     3973.401   -45185.852    999.62311    1.0027632 
   85600    289.86408    119.30521    137652.03   -41238.205    3980.5851    -45218.79    1002.7064    1.0014129 
   85700    286.51655  -0.18097138    137873.04   -41272.629    3934.6149   -45207.243    1004.5264   0.99980766 
   85800    286.61455   -7.7686021     137696.4   -41259.276    3935.9607   -45195.237    1006.3738    1.0010902 
   85900    283.42772   -96.047568     137572.6   -41284.848    3892.1972   -45177.045    1006.1328    1.0019911 
   86000    283.31897    63.894586    137467.19   -41311.377    3890.7038   -45202.081    1007.1217    1.0027594 
   86100    287.43497    33.853291    137438.63    -41236.62    3947.2271   -45183.848    1007.5901    1.0029678 
   86200    291.92974   -49.966577    137541.72   -41301.462     4008.952   -45310.414    1010.2814     1.002216 
   86300    287.72645   -66.884992    137307.49   -41340.937      3951.23   -45292.167    1009.9216    1.0039257 
   86400    281.23647   -131.21927    137645.87   -41361.868    3862.1056   -45223.974    1012.3068    1.0014577 
   86500    289.21025   -34.240459    137570.19   -41286.764    3971.6064   -45258.371    1012.8493    1.0020087 
   86600    284.37403   -92.955645    137676.87   -41269.122    3905.1924   -45174.314    1013.4091    1.0012322 
   86700    281.27687    352.70848    137998.58   -41271.421    3862.6604   -45134.081    1017.0731   0.99889809 
   86800    286.65191    15.978442    137949.76   -41205.589    3936.4737   -45142.062    1018.2712   0.99925156 
   86900    284.91041   -18.266426     138156.6   -41232.397    3912.5584   -45144.956    1019.9724   0.99775557 
   87000    279.88964    118.89651    137930.62   -41332.519    3843.6103    -45176.13    1019.6286   0.99939024 
   87100    285.63377   -52.507647    137840.34   -41306.629     3922.492   -45229.121    1020.4948    1.0000448 
   87200     284.3571   -7.7521945    138180.65   -41261.586      3904.96   -45166.546    1023.2997   0.99758191 
   87300    286.21604    218.69168     138670.1   -41161.114    3930.4881   -45091.602    1027.3536   0.99406086 
   87400    290.27775   -181.77224    138664.43   -41223.308    3986.2658   -45209.574    1028.7338    0.9941015 
   87500     288.4216    26.117002    138594.51   -41278.796    3960.7762   -45239.572    1028.8936   0.99460303 
   87600    290.89962    12.194106    138569.55   -41278.844    3994.8057    -45273.65    1029.9763   0.99478215 
   87700    286.72294    58.951084     138337.6   -41317.762    3937.4491   -45255.211    1029.3047   0.99645009 
   87800    287.73301    33.690287    138481.41   -41226.988    3951.3201   -45178.308    1029.9438   0.99541528 
   87900    289.84125   -60.884725    138307.14   -41182.064    3980.2716   -45162.336    1030.0174   0.99666954 
   88000    290.74009    112.42766    138140.53   -41255.532    3992.6151   -45248.147    1031.0139   0.99787167 
   88100    287.12646   -113.95477    138082.23    -41224.54    3942.9905   -45167.531    1033.3094   0.99829295 
   88200    292.03675    70.503154    137857.81   -41197.491    4010.4215   -45207.912    1034.0919   0.99991807 
   88300    287.33956   -39.715669    137977.85   -41191.374    3945.9169   -45137.291    1035.9567   0.99904815 
   88400     287.3468    37.231264    138057.08   -41306.853    3946.0163    -45252.87    1036.5983   0.99847482 
   88500    283.21432   -13.816777    137938.66   -41322.256    3889.2667   -45211.523    1036.7983   0.99933197 
   88600    286.13005    34.512619    138008.69   -41313.499    3929.3072   -45242.806    1038.4643   0.99882492 
   88700    289.88933    192.24484    137940.09   -41261.196    3980.9319   -45242.128    1039.0943   0.99932166 
   88800    286.84301    123.39845    137826.86    -41287.76     3939.098   -45226.858    1039.7414    1.0001426 
   88900    284.13654   -361.64628    137808.46   -41341.768    3901.9312   -45243.699    1039.6967    1.0002762 
   89000    286.89653   -36.368026    137805.42   -41244.797    3939.8329    -45184.63    1040.9068    1.0002982 
   89100    288.99089    159.16572    137948.16    -41196.38     3968.594   -45164.974    1042.9246   0.99926319 
   89200    288.43014    185.74303    138121.25   -41314.872    3960.8934   -45275.766    1046.2418   0.99801091 
   89300    289.94892   -16.306662    138030.66   -41285.544    3981.7501   -45267.294    1045.9214    0.9986659 
   89400     289.8217    167.72872     137931.9   -41261.649    3980.0032   -45241.653    1045.7275   0.99938097 
   89500    284.11857    92.907616    138297.19   -41346.296    3901.6844    -45247.98     1049.269   0.99674128 
   89600    283.49259    145.30297    138434.05   -41279.513     3893.088   -45172.601    1050.8082   0.99575587 
   89700    285.71022    33.777137    138429.54   -41322.947    3923.5418   -45246.489    1050.3765   0.99578831 
   89800    284.59998   -212.67468    138145.59    -41308.84    3908.2953   -45217.135    1050.3845   0.99783507 
   89900    288.68568    266.79613    138093.18   -41352.492    3964.4026   -45316.894    1051.3278   0.99821377 
   90000    289.11376   -90.636271    138117.28   -41316.572    3970.2812   -45286.853    1052.7275   0.99803958 
   90100    291.49111   -133.58962    138332.01   -41309.213    4002.9285   -45312.142    1054.8992   0.99649039 
   90200    283.59493   -168.07301     138090.1   -41434.047    3894.4934    -45328.54    1054.9083   0.99823607 
   90300    279.05244    47.447385    137890.71   -41435.794    3832.1133   -45267.908    1055.1946   0.99967947 
   90400    283.84951    256.25615    138011.91   -41303.853    3897.9895   -45201.843    1057.8154   0.99880158 
   90500    281.83646   -38.328957    137874.03   -41296.764    3870.3451   -45167.109    1057.5057   0.99980046 
   90600     291.7754   -53.691021    137922.13   -41264.873    4006.8325   -45271.706    1059.1906   0.99945177 
   90700    283.32586    45.850158    138064.09   -41265.825    3890.7984   -45156.623    1061.6484   0.99842412 
   90800    285.76086    107.67389    137800.49   -41288.235    3924.2373   -45212.472    1062.0177     1.000334 
   90900    286.87419   -292.83881    137522.36    -41371.53    3939.5262   -45311.056    1061.9534    1.0023571 
   91000    288.66705     -92.0774    137197.73   -41318.141    3964.1468   -45282.288    1061.0635    1.0047288 
   91100    287.07852   -67.525527    137498.32   -41283.033    3942.3321   -45225.365    1063.9683    1.0025324 
   91200    281.83969    28.089904    137523.22   -41301.384    3870.3894   -45171.773    1065.0626    1.0023508 
   91300    282.63835    69.433753    137484.29    -41352.36    3881.3572   -45233.717    1066.8772    1.0026347 
   91400    279.82297    282.00209    137486.99   -41326.121    3842.6947   -45168.816    1068.4853     1.002615 
   91500    285.43866    152.52222    137719.36    -41297.68    3919.8127   -45217.493    1070.8641    1.0009233 
   91600    284.94097   -40.062939    137788.96   -41296.186    3912.9781   -45209.164    1072.1945    1.0004177 
   91700    283.77345   -173.42831    137636.77   -41400.624    3896.9449   -45297.569    1072.7138    1.0015239 
   91800    285.07148    80.464702    137572.81    -41419.03    3914.7703     -45333.8    1071.7844    1.0019895 
   91900    283.91118    61.277703    137318.14   -41393.444    3898.8364   -45292.281    1070.0935    1.0038478 
   92000     283.8564    9.8943711     137689.5   -41334.205     3898.084   -45232.289    1073.5282    1.0011403 
   92100    288.25387    139.47286    138095.34   -41268.816    3958.4728   -45227.289    1077.0207   0.99819815 
   92200    284.43197    151.84304     138197.3   -41240.929    3905.9882   -45146.917    1078.0457    0.9974617 
   92300    287.76809    8.4333219     138311.2   -41273.345    3951.8018   -45225.147    1078.5835   0.99664028 
   92400    286.47489    103.35931    137928.61   -41255.818    3934.0427   -45189.861    1077.6485   0.99940483 
   92500    284.51338    93.700744    138135.01   -41220.639    3907.1062   -45127.745    1079.8164   0.99791154 
   92600    292.78073    72.811653    138081.32   -41199.794    4020.6383   -45220.432    1082.1423   0.99829952 
   92700    281.61804    6.8251313    138103.64   -41300.083    3867.3457   -45167.429     1082.511    0.9981382 
   92800    284.65567   -258.05979    138175.09   -41253.535    3909.0601   -45162.595    1082.8611   0.99762208 
   92900    289.25178    133.20815    137985.03   -41215.856    3972.1766   -45188.033    1083.7397   0.99899618 
   93000    287.06926     152.5034    137834.79   -41249.385    3942.2049    -45191.59    1084.0066    1.0000851 
   93100    286.17235    123.21179    138030.84   -41217.609    3929.8881   -45147.497    1085.9025   0.99866459 
   93200    292.51362    68.651022    138544.34   -41178.244    4016.9701   -45195.214    1090.1037   0.99496316 
   93300    291.55591   -220.58446    138550.71   -41151.668    4003.8184   -45155.487    1091.8279   0.99491742 
   93400    289.39103    109.93021    138286.69   -41251.676    3974.0889   -45225.765    1091.9512   0.99681695 
   93500    283.28251   -73.509604    138389.14   -41248.488    3890.2031   -45138.691    1094.6721   0.99607901 
   93600     285.0899   -227.50882    138627.17   -41347.468    3915.0232   -45262.491    1097.7215   0.99436867 
   93700    283.12652    209.16655     138624.3   -41353.567    3888.0609   -45241.628    1099.2159   0.99438928 
   93800       293.03   -172.60576    138566.18   -41259.597    4024.0615   -45283.658    1099.8772   0.99480633 
   93900    289.01659   -148.39547    138579.06   -41320.483    3968.9468    -45289.43    1101.2882   0.99471389 
   94000    285.61172   -291.96524    138335.65   -41396.275    3922.1892   -45318.464    1102.0503   0.99646417 
   94100    282.56347    156.88066    137788.85   -41387.459    3880.3288   -45267.788    1100.9078    1.0004185 
   94200    284.98815    -128.7801    138164.69   -41394.496    3913.6259   -45308.122     1103.541   0.99769717 
   94300    282.34685   -339.37725    137806.24   -41333.719    3877.3541   -45211.073    1102.9802    1.0002923 
   94400    287.15733    144.55363    137853.37   -41374.746    3943.4145    -45318.16    1104.3676   0.99995032 
   94500    283.87424    -11.98266     138335.7   -41400.866    3898.3292   -45299.195    1107.6088   0.99646377 
   94600    283.11627    86.770834    138540.91   -41455.181    3887.9202   -45343.102    1110.5231   0.99498781 
   94700    281.76447    19.245423    138514.92   -41296.424    3869.3565    -45165.78    1109.9399   0.99517454 
   94800    289.40163   -9.3293231    138458.75   -41231.729    3974.2345   -45205.963    1110.6403   0.99557826 
   94900    289.65713    4.5018155    138145.49   -41257.802    3977.7431   -45235.545     1110.261   0.99783582 
   95000    283.51132   -15.333103    137830.05   -41248.656    3893.3452   -45142.001    1109.4125    1.0001194 
   95100    284.31945    54.357464    137661.35   -41134.129    3904.4429   -45038.571    1109.4919    1.0013451 
   95200    286.93522    55.185422    137578.59   -41204.122    3940.3643   -45144.486    1111.6953    1.0019475 
   95300    285.85663     102.4769    137580.55   -41188.156    3925.5524   -45113.708    1113.4775    1.0019332 
   95400    291.60096   -55.855422    137659.26   -41200.359    4004.4369   -45204.796    1115.2112    1.0013603 
   95500    287.81711   -17.305179    137719.57   -41261.127    3952.4749   -45213.602    1117.3438    1.0009217 
   95600    286.32721    134.74018    138086.36   -41312.902    3932.0147   -45244.916     1119.919   0.99826309 
   95700    287.21586    -126.4351    137888.01   -41284.686    3944.2182   -45228.904    1120.4405    0.9996991 
   95800    286.34764    189.86659    137751.23   -41291.659    3932.2953   -45223.954    1121.0589    1.0006917 
   95900     286.2666    88.584279    137953.08   -41235.342    3931.1824   -45166.524    1123.5795   0.99922753 
   96000    288.91436    186.43022    137953.62   -41227.652     3967.543   -45195.195    1124.3352   0.99922361 
   96100    291.11657    10.056122    137920.46   -41239.637     3997.785   -45237.422    1124.9425   0.99946385 
   96200    286.66513    151.71599    137840.95   -41250.655    3936.6552   -45187.311    1125.3212    1.0000404 
   96300    287.53555   -164.27149    138012.25   -41272.679    3948.6083   -45221.288     1127.787   0.99879917 
   96400    287.64833   -109.87102    137928.96   -41268.661    3950.1571   -45218.818    1129.2057   0.99940229 
   96500    285.40164   -143.82099    138170.04   -41278.479    3919.3043   -45197.783    1130.8326   0.99765848 
   96600    292.69191   -23.019946    138011.48   -41229.461    4019.4186    -45248.88     1131.396   0.99880473 
   96700    291.14556    65.247229    137871.54   -41136.139    3998.1831   -45134.322    1132.5618   0.99981849 
   96800    287.34233    -144.2512    137975.76   -41133.864    3945.9549   -45079.819    1133.6045   0.99906331 
   96900    291.47471    126.61258    137991.84   -41197.386    4002.7033   -45200.089    1134.9996   0.99894684 
   97000    283.35392  -0.63632693    137960.85   -41201.695    3891.1837   -45092.879    1134.4365   0.99917123 
   97100    289.25175    322.30312     137903.3    -41238.87    3972.1762   -45211.046    1135.4147   0.99958822 
   97200    286.88359   -10.605744    138034.86   -41244.995    3939.6553    -45184.65    1137.1896   0.99863555 
   97300     282.8736   -43.885492     137840.8   -41308.167    3884.5877   -45192.755    1137.2331    1.0000415 
   97400    284.74743   -100.14819    138045.36   -41252.855    3910.3203   -45163.175         1139   0.99855958 
   97500    286.73442     208.7903    138007.27   -41217.607    3937.6068   -45155.214      1140.68    0.9988352 
   97600    287.60244   -120.33647    137927.01   -41272.116    3949.5269   -45221.643    1140.5213   0.99941639 
   97700    289.12862     306.1683     137781.1    -41263.56    3970.4853   -45234.045     1140.792    1.0004748 
   97800    282.69728    97.091131    137865.46    -41250.89    3882.1663   -45133.056    1143.5898   0.99986257 
   97900    291.42152   -115.87898    137915.46   -41147.196    4001.9729   -45149.169    1146.3362   0.99950014 
   98000    287.79673   -27.378231    137965.93   -41190.185    3952.1951    -45142.38    1147.6105    0.9991345 
   98100    287.44521    10.704098    137859.21    -41220.59    3947.3678   -45167.958    1148.9156    0.9999079 
   98200    287.36492   -108.12603    138244.37   -41189.046    3946.2651   -45135.311     1153.928   0.99712211 
   98300    289.08599    151.43119    138128.03   -41138.567    3969.8999   -45108.467    1155.4457   0.99796196 
   98400    282.41357    46.309265    137969.74   -41201.281    3878.2703   -45079.551    1154.7693   0.99910687 
   98500    288.05902   -238.87132    137998.33   -41175.593     3955.797    -45131.39    1156.8889   0.99889992 
   98600    290.11584   -194.15149    137899.34   -41209.642    3984.0424   -45193.685    1157.4371   0.99961696 
   98700    287.90863   -271.21413    137776.68   -41223.525    3953.7317   -45177.257    1158.7801    1.0005069 
   98800    284.02748    36.657513    137803.16    -41273.87    3900.4335   -45174.303    1160.3181    1.0003147 
   98900    291.32235   -166.47513    137861.24   -41160.276     4000.611   -45160.887    1162.1597   0.99989321 
   99000    286.16957    -56.11835    137909.35   -41146.581      3929.85   -45076.431    1164.7885    0.9995444 
   99100    287.23816   -166.14255    137794.31   -41204.964    3944.5244   -45149.488    1165.9666    1.0003788 
   99200    287.56044    86.460758    137739.27   -41202.141    3948.9502   -45151.091    1166.7695    1.0007786 
   99300    286.44984    125.29439    137857.05   -41181.047    3933.6988   -45114.746    1169.8932    0.9999236 
   99400    291.40145     186.5294     137972.7   -41155.449    4001.6972   -45157.146    1170.4188   0.99908542 
   99500    285.39745   -1.2369119    138191.56   -41203.235    3919.2467   -45122.482    1173.6225   0.99750314 
   99600    284.03046   -24.494873    138179.43   -41290.692    3900.4744   -45191.166    1175.0728   0.99759073 
   99700    285.90507   -198.84591     138123.4   -41277.776    3926.2176   -45203.993    1176.2534    0.9979954 
   99800    284.62565    217.53896    137942.07   -41279.609    3908.6479   -45188.256    1177.0711   0.99930728 
   99900    285.16456   -19.021213    138129.02   -41205.059    3916.0486   -45121.107    1179.0325   0.99795476 
  100000    292.11074    13.613986     138039.1   -41242.699    4011.4376   -45254.136    1179.6488    0.9986049 
  100100    283.48232    161.69383     137887.7   -41252.422     3892.947   -45145.369    1180.5675    0.9997013 
  100200    287.06202   -75.804147    138196.16   -41220.628    3942.1056   -45162.734    1183.0479   0.99746993 
  100300     288.3576   -9.8134572    138271.84   -41288.336    3959.8972   -45248.234    1185.2811     0.996924 
  100400    283.17381      323.858    138222.99    -41265.55    3888.7104   -45154.261    1186.5988   0.99727635 
  100500    284.75221   -3.7445058    138210.84   -41314.045    3910.3859   -45224.431     1186.592   0.99736399 
  100600    280.84677    260.73461    138464.23   -41288.867    3856.7541   -45145.621     1188.437   0.99553882 
  100650    287.03502   -40.225842    138533.62   -41246.794    3941.7348   -45188.528    1189.4679   0.99504017 
Loop time of 122.935 on 6 procs for 100000 steps with 4608 atoms

Performance: 351.405 ns/day, 0.068 hours/ns, 813.437 timesteps/s
99.1% CPU use with 6 MPI tasks x no OpenMP threads

MPI task timing breakdown:
Section |  min time  |  avg time  |  max time  |%varavg| %total
---------------------------------------------------------------
Pair    | 101.81     | 103.14     | 104.86     |  10.8 | 83.90
Neigh   | 7.054      | 7.1599     | 7.2656     |   3.2 |  5.82
Comm    | 7.9643     | 9.7954     | 11.202     |  37.7 |  7.97
Output  | 0.17613    | 0.17693    | 0.18052    |   0.4 |  0.14
Modify  | 1.8884     | 1.9612     | 2.0158     |   2.9 |  1.60
Other   |            | 0.697      |            |       |  0.57

Nlocal:        768.000 ave         780 max         760 min
Histogram: 1 1 0 1 1 1 0 0 0 1
Nghost:        1553.50 ave        1569 max        1535 min
Histogram: 1 0 0 0 2 1 0 0 1 1
Neighs:        0.00000 ave           0 max           0 min
Histogram: 6 0 0 0 0 0 0 0 0 0
FullNghs:      22172.3 ave       22581 max       21916 min
Histogram: 2 0 1 0 0 2 0 0 0 1

Total # of neighbors = 133034
Ave neighs/atom = 28.870226
Neighbor list builds = 6968
Dangerous builds = 0

undump              1
unfix               2
unfix               3
unfix               4


################################################
#######         Run Simulation         #########
################################################

reset_timestep      0
log                 log.run_${NAME}
log                 log.run_liq_287K_1atm_ML
