
# Define the lattice
#
variable	    lattice_constant equal 6.36339
lattice		    diamond ${lattice_constant}
lattice		    diamond 6.36339
Lattice spacing in x,y,z = 6.3633900 6.3633900 6.3633900

# Define region
# multiples of lattice spacing
#
region 		    simbox block 0 9 0 8 0 8

# Create Atoms
#
create_box          1 simbox
Created orthogonal box = (0.0000000 0.0000000 0.0000000) to (57.270510 50.907120 50.907120)
  3 by 1 by 2 MPI processor grid
create_atoms        1 box
Created 4608 atoms
  create_atoms CPU = 0.001 seconds
mass                1 18.015

# Define potential
#
pair_style          sw
pair_coeff          * * /data/emrosky-sim/Freezing_Simulations/Melting/MLmW_fancy/ML_mW.sw mW
Reading sw potential file /data/emrosky-sim/Freezing_Simulations/Melting/MLmW_fancy/ML_mW.sw with DATE: 2019-02-27

# Add velocity/set timestep
#
velocity            all create ${TEMP} 120598 rot yes dist gaussian
velocity            all create 287 120598 rot yes dist gaussian
timestep            5.0

# Define output
#
compute	            1 all msd
thermo              100
thermo_style        custom step temp press vol etotal ke pe c_1[4]

# Neighbor lists
#
neigh_modify        delay 0 every 1 check yes

# Set fixes
#
fix                 1 all momentum 10 linear 1 1 1 rescale
fix                 2 all nve
fix                 3 all temp/csvr ${TEMP} ${TEMP} 500.0 928347
fix                 3 all temp/csvr 287 ${TEMP} 500.0 928347
fix                 3 all temp/csvr 287 287 500.0 928347
fix                 4 all press/berendsen iso ${PRES} ${PRES} 1000.0 modulus 20000
fix                 4 all press/berendsen iso 1 ${PRES} 1000.0 modulus 20000
fix                 4 all press/berendsen iso 1 1 1000.0 modulus 20000

# Run 0.5 ns equilibration
#
dump		    1 all custom 1000 eq.${NAME}.dump id type x y z vx vy vz
dump		    1 all custom 1000 eq.ice_287K_1atm_ML.dump id type x y z vx vy vz
run                 100000
Neighbor list info ...
  update every 1 steps, delay 0 steps, check yes
  max neighbors/atom: 2000, page size: 100000
  master list distance cutoff = 6.0032907
  ghost atom cutoff = 6.0032907
  binsize = 3.0016454, bins = 20 17 17
  1 neighbor lists, perpetual/occasional/extra = 1 0 0
  (1) pair sw, perpetual
      attributes: full, newton on
      pair build: full/bin/atomonly
      stencil: full/bin/3d
      bin: standard
Per MPI rank memory allocation (min/avg/max) = 4.779 | 4.779 | 4.779 Mbytes
Step Temp Press Volume TotEng KinEng PotEng c_1[4] 
       0          287   -648.40282    148418.52    -51955.93    3941.2539   -55897.184            0 
     100    188.78437     117.8425    147719.29    -50361.53    2592.4987   -52954.029  0.094595342 
     200    219.38661     103.6043    147996.61   -49412.485    3012.7468   -52425.231   0.10755232 
     300    242.73817     51.28248    148192.87   -48811.407    3333.4242   -52144.831   0.12532434 
     400    258.67465    31.809928    148326.45   -48412.631    3552.2734   -51964.905   0.12965948 
     500    274.24563    43.836603    148424.96   -48135.159    3766.1033   -51901.263   0.12944136 
     600    283.99144    20.967337    148504.13   -47867.591    3899.9385   -51767.529   0.13971185 
     700    282.63045   -3.9508352    148559.37   -47821.466    3881.2486   -51702.714   0.13141814 
     800    280.76904   -36.167076    148575.61   -47727.231    3855.6866   -51582.918     0.145043 
     900    283.55166   -4.4622188    148580.24   -47708.823    3893.8993   -51602.722    0.1440006 
    1000    280.04747   -10.389596    148556.09   -47752.957    3845.7777   -51598.734   0.13802648 
    1100    281.25856   -14.421545    148579.91   -47697.495     3862.409   -51559.904   0.13630389 
    1200    287.56419    1.6774964    148576.57   -47689.591    3949.0016   -51638.592   0.14055354 
    1300    283.38619   -30.146595    148572.47    -47610.41    3891.6268   -51502.037   0.14356433 
    1400     280.8419   -13.412838     148588.8   -47710.114    3856.6872   -51566.801   0.14460532 
    1500    278.86051     17.72671     148543.5   -47732.705    3829.4776   -51562.183   0.13543494 
    1600    292.87728    33.060877    148563.96    -47671.53    4021.9641   -51693.494   0.14163015 
    1700    289.73649    10.056029    148567.72    -47699.95    3978.8329   -51678.783   0.13743921 
    1800    289.25307    48.713994     148540.8   -47692.756    3972.1944   -51664.951    0.1389736 
    1900    288.57413      -28.089     148564.2   -47604.911    3962.8707   -51567.781   0.14666805 
    2000    293.61499    17.215622    148618.58   -47556.248    4032.0948   -51588.343   0.13356056 
    2100    280.24039   -36.001105     148573.8   -47717.831    3848.4269   -51566.258   0.14534051 
    2200     293.0327    3.4255127    148564.58   -47650.421    4024.0985    -51674.52   0.12903678 
    2300    285.34093   -20.078989    148570.42   -47585.497    3918.4705   -51503.967   0.15153486 
    2400    291.97641    55.719296    148573.07   -47609.847    4009.5929   -51619.439   0.13821197 
    2500    294.67943 -0.036055932    148599.69   -47659.352    4046.7124   -51706.064   0.13226815 
    2600    282.53409   -10.907302    148591.91   -47691.365    3879.9254   -51571.291   0.14324042 
    2700    294.00781    43.473271    148574.19   -47663.663    4037.4892   -51701.152   0.12795385 
    2800    291.82574    28.304748    148583.27   -47562.409    4007.5239   -51569.933   0.14331785 
    2900    289.54731   -35.304891    148619.82   -47589.652     3976.235   -51565.887   0.14226739 
    3000      284.779   -7.0804456    148585.11   -47645.542    3910.7539   -51556.296   0.14618442 
    3100    291.85109   -1.9987639    148590.01   -47623.032    4007.8718   -51630.904   0.13800522 
    3200    288.50845    11.963094    148576.84   -47728.247    3961.9688   -51690.215    0.1379206 
    3300    289.89972    58.618092    148545.01   -47789.098    3981.0746   -51770.173   0.12236921 
    3400    284.34841   -29.739565     148551.2   -47720.701    3904.8406   -51625.541   0.14427557 
    3500    290.37415    32.554685    148557.09   -47686.726    3987.5896   -51674.315   0.13607893 
    3600    286.44636    19.567724    148548.83   -47695.338     3933.651   -51628.989   0.14031499 
    3700    288.82311   -46.791303    148559.54   -47656.291      3966.29   -51622.581   0.14528425 
    3800    288.12381    7.1723853     148559.8   -47642.074    3956.6866    -51598.76   0.14128294 
    3900      293.092   -8.9088252    148551.76   -47644.627    4024.9128   -51669.539   0.14220028 
    4000    284.56446   -21.133636    148536.07   -47692.914    3907.8076   -51600.721   0.13868439 
    4100    283.59325   -3.8243848    148553.11    -47712.16    3894.4704   -51606.631   0.14201521 
    4200    289.73655    16.351427    148562.12   -47667.388    3978.8338   -51646.222   0.13568276 
    4300    276.29877   -24.328483    148520.55   -47796.134    3794.2983   -51590.432   0.15029354 
    4400    287.22094    5.7888811    148563.04    -47690.58    3944.2879   -51634.868   0.13075028 
    4500    283.81751   -18.256467    148527.18   -47744.091      3897.55   -51641.641   0.14839938 
    4600    282.86031    1.7304008    148502.95   -47775.181    3884.4052   -51659.586   0.13694858 
    4700    283.72097    -5.877358    148528.49   -47680.662    3896.2243   -51576.886   0.14063446 
    4800    298.80509     67.76832     148557.7   -47581.365    4103.3684   -51684.733   0.13556602 
    4900    292.89627    4.4226667    148575.12   -47547.222    4022.2249   -51569.447   0.13977802 
    5000    287.79383   -4.3869445    148575.35   -47682.206    3952.1553   -51634.361   0.14186212 
    5100    287.63054    7.1326214     148578.3   -47606.608    3949.9128   -51556.521   0.14038355 
    5200    288.03419    17.317247    148561.89   -47675.002     3955.456   -51630.458   0.14270525 
    5300    283.35404    16.121028    148519.49   -47777.335    3891.1854    -51668.52    0.1377845 
    5400    284.45634  -0.17041679    148533.89   -47746.263    3906.3229   -51652.585   0.13896089 
    5500     286.5328    27.095734    148524.29   -47711.884     3934.838   -51646.722    0.1348366 
    5600    282.35087   -17.764802    148524.47   -47752.014    3877.4093   -51629.423   0.14231984 
    5700    282.57167   -22.565403    148531.61    -47738.58    3880.4415   -51619.022   0.13866507 
    5800    288.30599  -0.86258857    148556.58   -47685.159    3959.1885   -51644.347   0.14042302 
    5900    284.51053    1.2597487    148529.52   -47757.342    3907.0671   -51664.409   0.13510879 
    6000    283.16049   -5.7016156    148530.25   -47736.052    3888.5275   -51624.579   0.14096609 
    6100    283.52072    12.146872    148498.37   -47812.621    3893.4743   -51706.096   0.13386762 
    6200    283.42541    18.369133    148486.78   -47782.887    3892.1655   -51675.053   0.13839236 
    6300    281.77799   -55.499487    148530.51   -47669.079    3869.5421   -51538.621   0.14720171 
    6400    290.42868   0.39434028    148530.15   -47727.562    3988.3385     -51715.9   0.13570511 
    6500    287.15147   -12.926795     148502.1   -47740.542     3943.334   -51683.876    0.1412112 
    6600    284.76662    14.870582    148518.41    -47746.75    3910.5837   -51657.333   0.13252424 
    6700    285.28921   -2.0648724     148505.9   -47798.849    3917.7603    -51716.61   0.14120235 
    6800    287.61197   -5.2557799    148515.99   -47755.097    3949.6578   -51704.755   0.13603163 
    6900    286.07583     2.321215    148539.56   -47675.922    3928.5626   -51604.485   0.13291094 
    7000    288.28456    3.4207849    148544.04     -47672.1    3958.8942   -51630.995   0.14336114 
    7100      285.468    31.388734    148535.61   -47682.744    3920.2155    -51602.96   0.12917295 
    7200    283.96049  -0.22306123    148537.45   -47799.141    3899.5135   -51698.654   0.13893399 
    7300    285.62462    9.0493868    148517.82   -47848.619    3922.3664   -51770.985    0.1285678 
    7400    282.95056   -13.570112    148535.86   -47736.721    3885.6446   -51622.365   0.13751627 
    7500    289.21807     4.596474    148574.21   -47674.292    3971.7137   -51646.006   0.13597537 
    7600    286.78193   -6.2056238    148563.95    -47648.32    3938.2592   -51586.579   0.13736347 
    7700    283.37991   -6.2703393    148516.83   -47736.919    3891.5406    -51628.46   0.13903047 
    7800    283.45402   -20.426641    148518.27   -47804.072    3892.5584    -51696.63   0.14095919 
    7900    280.17409    3.9634664    148533.31   -47734.125    3847.5164   -51581.642   0.13648464 
    8000    285.58587    14.971582    148574.74   -47643.452    3921.8341   -51565.286   0.13933542 
    8100    295.43852    28.037826    148582.14   -47608.351    4057.1367   -51665.488    0.1345817 
    8200    294.28786  -0.61757204    148567.42   -47632.196    4041.3351   -51673.531   0.13367252 
    8300    290.95877    4.4046384    148571.41   -47591.952     3995.618    -51587.57   0.14301372 
    8400    293.30847     10.61929    148589.58   -47568.402    4027.8856   -51596.287   0.13798667 
    8500    291.72347   -11.876495    148565.24   -47657.511    4006.1194   -51663.631   0.14601321 
    8600     296.7932    7.5473036    148559.53   -47669.092    4075.7398   -51744.832   0.13160424 
    8700     293.7142    3.7554926    148525.89   -47637.736    4033.4572   -51671.193    0.1464034 
    8800    286.53992    20.266534    148521.19   -47678.695    3934.9358   -51613.631   0.13309182 
    8900    281.23365    -6.207612    148503.34   -47741.277     3862.067   -51603.344   0.14485745 
    9000    284.70965   -27.492172    148515.31   -47667.857    3909.8014   -51577.658   0.14179807 
    9100    285.33673   -25.650643    148519.36   -47720.376    3918.4129   -51638.789   0.13852684 
    9200    291.93404    10.528638    148512.93   -47608.502     4009.011   -51617.513   0.14475501 
    9300    285.37414    5.0711511    148527.97   -47761.356    3918.9266   -51680.283   0.13406076 
    9400    286.72077   -12.841118    148533.63   -47721.695    3937.4193   -51659.114   0.14128793 
    9500    280.94296   -5.9992534    148528.17   -47768.778    3858.0751   -51626.853   0.13912621 
    9600     284.5428   -8.4555822    148530.23    -47761.71    3907.5102    -51669.22   0.13667948 
    9700    285.62642    9.3661667    148533.26   -47634.041    3922.3911   -51556.432   0.14176383 
    9800    291.37866   -1.4625457     148568.8   -47593.877    4001.3842   -51595.261   0.14195841 
    9900    291.70886   -29.032501    148573.67   -47629.993    4005.9187   -51635.912   0.13783107 
   10000     288.0485   -35.037246    148546.59   -47683.053    3955.6525   -51638.706   0.14748942 
   10100    292.12459   -9.7960731    148559.15   -47636.507    4011.6278   -51648.134   0.13557905 
   10200    290.42695   -28.861482    148575.22   -47607.442    3988.3148   -51595.757   0.14474056 
   10300    288.99813    -5.986273    148566.02   -47600.438    3968.6934   -51569.131   0.14753055 
   10400    288.78204    6.9224779    148575.96   -47606.285    3965.7259   -51572.011   0.13879782 
   10500    287.71493    6.0300628    148563.71   -47653.125    3951.0718   -51604.197    0.1396948 
   10600    289.61555    51.111124    148542.76   -47674.641    3977.1722   -51651.814   0.13389487 
   10700    291.16964    16.112115    148542.93   -47696.776    3998.5139    -51695.29   0.13434376 
   10800    285.08588    28.371409    148530.48   -47828.236     3914.968   -51743.204   0.13484973 
   10900    282.95899   -4.5241366    148495.67   -47812.959    3885.7603   -51698.719      0.14045 
   11000     282.0345   -25.704164    148492.35   -47824.079    3873.0647   -51697.144   0.14430208 
   11100    287.47392   -18.356631    148538.91   -47734.876     3947.762   -51682.638   0.14342143 
   11200    284.87924    -5.147186    148539.46   -47842.168    3912.1303   -51754.299   0.13314004 
   11300    288.18916      9.22161    148541.46   -47761.322    3957.5842   -51718.906   0.13354677 
   11400    290.80933   -7.6604838    148547.04   -47738.162    3993.5658   -51731.727   0.14030628 
   11500    290.90724    1.5611999     148586.7   -47640.507    3994.9105   -51635.418   0.13265024 
   11600    288.20427   -6.6688008    148586.42   -47638.262    3957.7917   -51596.053   0.14809505 
   11700    290.26474   -2.3294098    148602.55   -47508.619    3986.0872   -51494.706   0.13952536 
   11800    292.31892   -17.464822    148574.93   -47580.496    4014.2965   -51594.793   0.14437669 
   11900    289.27122    1.2129776    148558.25   -47626.842    3972.4436   -51599.285   0.13887064 
   12000    287.16209   -11.741755    148554.71   -47584.345    3943.4798   -51527.825    0.1470003 
   12100    283.75897   -14.885388    148537.32   -47641.926    3896.7461   -51538.672   0.14305966 
   12200    286.96724    -25.51388    148544.31   -47650.014     3940.804   -51590.818   0.14416482 
   12300    286.31918    12.646503    148529.02   -47700.549    3931.9044   -51632.454   0.14217852 
   12400    284.96565    15.397836    148537.52   -47697.524     3913.317   -51610.841   0.14065113 
   12500    291.03449    4.0334691    148538.33   -47620.145    3996.6579   -51616.803   0.14616977 
   12600    293.39797    30.734064    148554.37   -47581.875    4029.1146    -51610.99   0.13379961 
   12700     287.8153    6.4752651     148550.3   -47662.034    3952.4501   -51614.484   0.14325068 
   12800    289.39132   -17.536338    148548.95   -47648.622    3974.0929   -51622.714   0.13712028 
   12900    283.67894    17.550158    148535.84   -47711.123    3895.6471    -51606.77   0.14131318 
   13000    285.89592    11.252687    148549.94   -47678.758    3926.0919    -51604.85   0.13810011 
   13100    287.93417    4.9733433    148524.11   -47756.146    3954.0824   -51710.228   0.14358192 
   13200    283.83997    13.683231    148509.67   -47781.128    3897.8584   -51678.986   0.13527506 
   13300    281.25197   -15.731209     148501.3   -47860.595    3862.3186   -51722.914   0.14074334 
   13400    278.81946   -22.603108    148482.33   -47845.139    3828.9139   -51674.053   0.14242456 
   13500    283.31933   -9.7548391     148517.7   -47762.472    3890.7087    -51653.18   0.13936535 
   13600    287.10954   -14.036421    148542.46   -47709.754    3942.7582   -51652.513   0.14632904 
   13700    285.20516   -7.9196469    148523.41   -47740.138    3916.6061   -51656.744   0.13519803 
   13800    289.01068     21.54328    148532.86     -47686.7    3968.8657   -51655.566   0.14309493 
   13900    287.74945    19.904086    148541.95   -47684.878    3951.5458   -51636.423   0.13832023 
   14000    291.01898    31.828386    148565.38   -47569.063    3996.4449   -51565.508   0.13949473 
   14100    285.45811   -1.9483707    148554.26   -47658.702    3920.0798   -51578.782    0.1437044 
   14200    288.40439    1.9743708    148589.33   -47670.368    3960.5399   -51630.908   0.13947696 
   14300    284.50097   -27.521407    148574.33   -47699.679    3906.9358   -51606.615   0.14268645 
   14400    282.09526   -32.843521       148554   -47756.507    3873.8991   -51630.406   0.14352106 
   14500    282.09417    6.9182813     148548.3   -47775.184    3873.8841   -51649.068   0.14061644 
   14600    285.26086   -40.932661    148557.71   -47732.204     3917.371   -51649.575   0.14110535 
   14700    284.24999    5.9801954    148550.26   -47681.495    3903.4892   -51584.984   0.14531337 
   14800    290.31933    36.737077    148565.51    -47660.41    3986.8369   -51647.246   0.13724555 
   14900     283.4656   -6.3993362    148557.47   -47671.391    3892.7174   -51564.109   0.14713749 
   15000    284.98874     -14.7742     148541.3   -47733.035    3913.6341   -51646.669   0.13951009 
   15100    280.25757      -17.209    148515.96   -47746.111    3848.6629   -51594.774   0.14261635 
   15200    284.68023     13.03473    148512.14   -47671.518    3909.3974   -51580.915   0.14376295 
   15300    284.85984    5.8708823    148501.38   -47754.649     3911.864   -51666.513   0.13911853 
   15400    283.51584   -10.259613    148509.17   -47747.755    3893.4073   -51641.162   0.14519229 
   15500     283.5067    30.529079    148518.26   -47682.516    3893.2817   -51575.797   0.14184369 
   15600    286.02319   -17.373542    148547.15   -47564.526    3927.8397   -51492.366   0.15405333 
   15700     290.9879  -0.13738256     148567.2    -47586.57    3996.0181   -51582.588    0.1389956 
   15800    288.00154   -10.495444    148549.78   -47585.351    3955.0076   -51540.359   0.15400892 
   15900     293.8298   -2.4492503    148544.48   -47610.981    4035.0447   -51646.026   0.14251709 
   16000    289.28792    31.874818    148545.98   -47654.378    3972.6729   -51627.051   0.14464318 
   16100    285.72724    -2.287226    148525.16   -47684.682    3923.7756   -51608.458   0.14303205 
   16200    286.18381    5.3278373    148536.15    -47698.44    3930.0455   -51628.485   0.14108684 
   16300     283.2187   -10.668103    148523.44   -47710.513    3889.3268   -51599.839   0.14739044 
   16400    287.63944    7.7520074    148554.85   -47728.195     3950.035    -51678.23   0.14343873 
   16500    284.76818    -2.890072    148545.87   -47640.524    3910.6052   -51551.129   0.14464029 
   16600    285.55048   -32.822184    148579.65   -47571.124    3921.3483   -51492.472   0.15110211 
   16700    289.49453   -13.547765    148546.23   -47609.802    3975.5102   -51585.312   0.14610149 
   16800    287.35806   -43.284502    148534.84   -47666.433     3946.171   -51612.604   0.14242805 
   16900    292.23454   -1.6046494    148522.59   -47690.194    4013.1376   -51703.332   0.14904468 
   17000    290.13442    29.520911    148541.57   -47737.892    3984.2976    -51722.19   0.13071902 
   17100    285.49061   -46.222945    148531.54   -47687.979     3920.526   -51608.505    0.1550199 
   17200     285.0121  -0.46893345    148531.17   -47750.368    3913.9549   -51664.323   0.13729221 
   17300    281.90086   -9.2127461    148531.34   -47846.075    3871.2295   -51717.305   0.13906784 
   17400    285.46274    5.1857304    148533.84    -47834.09    3920.1434   -51754.234   0.13837964 
   17500    289.30447    21.546652    148544.03   -47729.406    3972.9003   -51702.307   0.13942757 
   17600    284.31088   -23.849987    148529.17   -47740.838    3904.3252   -51645.163   0.14456069 
   17700    287.82446   -1.2570246     148519.8   -47802.789    3952.5758   -51755.365    0.1406647 
   17800    286.35647    26.028801    148510.54    -47746.88    3932.4165   -51679.296   0.14277764 
   17900    283.37886   -6.1431175    148532.12   -47700.588    3891.5262   -51592.114   0.14457424 
   18000    287.35803    -1.053366    148546.13   -47604.507    3946.1705   -51550.677   0.14942135 
   18100    288.83974   -20.659208    148561.22   -47614.405    3966.5183   -51580.923   0.14452712 
   18200    285.91165   -8.2898287    148559.01   -47664.405     3926.308   -51590.713   0.14595413 
   18300    291.46246    10.542403    148565.34   -47665.201     4002.535   -51667.736   0.13870812 
   18400    283.55277 -0.065790447    148531.69   -47760.678    3893.9145   -51654.592   0.14054011 
   18500    282.15423   -18.425223    148529.54   -47699.129    3874.7088   -51573.837    0.1441907 
   18600    286.58443    4.3174677    148533.18   -47649.487    3935.5471   -51585.034   0.14435831 
   18700    290.17242   -3.7637634    148546.13   -47668.087    3984.8194   -51652.907   0.13988864 
   18800    284.44882    -20.02907    148514.09   -47681.461    3906.2196   -51587.681     0.148132 
   18900    285.98763   -27.460175    148556.97    -47648.06    3927.3514   -51575.411   0.14790355 
   19000    286.32025   -20.336833    148551.66   -47678.978    3931.9191   -51610.898   0.14091617 
   19100    292.49659   -12.217002    148569.02    -47593.25    4016.7363   -51609.986    0.1510009 
   19200    285.70023    1.2872897     148548.6    -47620.41    3923.4046   -51543.815   0.13911507 
   19300    292.80747    17.112775    148589.04   -47513.939    4021.0055   -51534.945   0.14678891 
   19400    291.88042    17.804023    148563.93   -47572.742    4008.2747   -51581.016    0.1418427 
   19500    291.01671    28.087798    148585.68    -47576.26    3996.4137   -51572.674   0.13876986 
   19600    287.44153    9.6545835     148574.3   -47560.804    3947.3172   -51508.121   0.14914101 
   19700    290.28673   -3.4719189    148572.53   -47614.532    3986.3891   -51600.921   0.14053009 
   19800    290.99466    12.404153    148554.37   -47570.111    3996.1109   -51566.221   0.14646644 
   19900    283.10954    -3.439711    148563.59    -47652.82    3887.8277   -51540.648   0.14655288 
   20000    285.49026   -3.5739608    148588.12   -47681.537    3920.5213   -51602.058    0.1424176 
   20100    284.28832    45.718618    148569.63   -47718.908    3904.0155   -51622.924   0.13422415 
   20200    286.10204    5.5524429    148559.39   -47696.235    3928.9226   -51625.158   0.14830492 
   20300    287.78543   -8.4308303    148589.31   -47660.108    3952.0399   -51612.148   0.13647656 
   20400    283.90214    -14.88127    148597.97   -47729.681    3898.7122   -51628.393   0.14493461 
   20500    283.81942    17.989916    148568.44   -47760.704    3897.5763    -51658.28   0.14019611 
   20600    280.98738    4.0159336    148574.32   -47783.898     3858.685   -51642.583   0.13771321 
   20700    286.04768    7.5982652    148562.05   -47728.949    3928.1761   -51657.125   0.14369182 
   20800    290.20282    42.970678    148601.24   -47591.577    3985.2369   -51576.814   0.13604906 
   20900    284.98288   -14.542781    148599.08   -47697.288    3913.5536   -51610.841   0.14160847 
   21000    284.00727    10.480809    148580.64   -47706.105    3900.1559   -51606.261   0.13787574 
   21100    290.12593   -22.396791    148591.04   -47589.616    3984.1809   -51573.797    0.1472063 
   21200    294.93624   -4.9604326    148577.37   -47608.501     4050.239    -51658.74   0.13753294 
   21300    290.34509    -8.950392     148572.7   -47599.699    3987.1906    -51586.89   0.14859649 
   21400    285.61019   -19.223486    148552.71    -47636.04    3922.1682   -51558.208   0.14014137 
   21500    294.07109    39.798431    148566.47   -47546.219    4038.3583   -51584.577   0.14589001 
   21600    292.49456    11.227067    148578.12   -47550.813    4016.7084   -51567.521   0.13933211 
   21700    281.40131   -14.099887    148533.64   -47680.133    3864.3694   -51544.503   0.14486178 
   21800    284.88013   -32.564116    148524.03   -47712.917    3912.1426    -51625.06   0.14363952 
   21900     282.4853   -13.168122    148524.71   -47682.703    3879.2553   -51561.958   0.14133785 
   22000    286.39325   -3.4205591    148517.53   -47717.987    3932.9217   -51650.908   0.14237839 
   22100    283.88765     20.22006    148527.57   -47764.211    3898.5133   -51662.724   0.13753985 
   22200     281.5896   -33.210137    148495.67   -47842.123     3866.955   -51709.078   0.14368427 
   22300    284.72536     1.117353     148550.9    -47737.94    3910.0171   -51647.957   0.13504429 
   22400    284.22635    11.113075    148583.42   -47685.521    3903.1644   -51588.686   0.14505715 
   22500    289.31061   -29.598952    148582.38   -47637.379    3972.9846   -51610.363   0.14359315 
   22600    294.58867    32.933299    148575.35   -47677.601     4045.466   -51723.067    0.1359472 
   22700    288.16779    33.023661    148532.15   -47732.188    3957.2907   -51689.479    0.1378336 
   22800    289.36653   -4.9170662    148550.34   -47656.064    3973.7524   -51629.816   0.13809193 
   22900    279.83649   -26.283285    148530.59   -47689.995    3842.8804   -51532.875   0.14695691 
   23000    283.56743   -3.2984903    148496.68   -47760.855    3894.1157   -51654.971    0.1400199 
   23100    285.20884   -12.645929    148505.22   -47700.534    3916.6566    -51617.19   0.14292327 
   23200    287.13057   -4.1222273    148524.81   -47652.578     3943.047   -51595.625   0.14630802 
   23300    286.72901   -7.6732501    148524.79   -47646.197    3937.5325    -51583.73   0.14182841 
   23400    284.21547   0.50251937    148537.25    -47694.88     3903.015   -51597.895   0.13776156 
   23500     293.2064    21.836347    148552.35   -47582.651    4026.4838   -51609.135   0.14472009 
   23600    288.57537   -20.151636    148566.45   -47602.159    3962.8879   -51565.047   0.13731821 
   23700    291.14886   -17.696796    148544.28   -47592.519    3998.2285   -51590.747   0.14741694 
   23800    288.88462    8.2618073    148568.77   -47601.744    3967.1346   -51568.879   0.14536343 
   23900    285.56611   -82.215363    148533.91    -47693.04    3921.5629   -51614.603   0.14287175 
   24000    290.69566    14.484503    148535.56   -47639.248    3992.0049   -51631.253   0.14609165 
   24100    294.54691    22.384864    148550.27   -47567.905    4044.8925   -51612.797   0.13498785 
   24200    282.70831    -31.48359    148524.87   -47692.093    3882.3179    -51574.41    0.1491696 
   24300    284.41675   -15.420454    148520.86   -47734.893    3905.7792   -51640.672   0.13657792 
   24400    283.70028    30.391777    148494.63    -47758.97    3895.9401    -51654.91   0.14173399 
   24500     283.6516     7.643532    148484.82   -47711.965    3895.2716   -51607.237    0.1423561 
   24600     282.2124   -25.277961    148491.26   -47759.354    3875.5077   -51634.861   0.14636339 
   24700    284.66319    30.874514    148483.18   -47764.996    3909.1635   -51674.159   0.14098536 
   24800    289.91496    9.4330128    148506.79   -47708.505    3981.2839   -51689.788   0.13888518 
   24900     284.7669    9.6621632    148478.48   -47757.058    3910.5877   -51667.645   0.14453836 
   25000    284.28796   -43.798941    148490.04    -47747.95    3904.0105    -51651.96     0.141947 
   25100    285.85356    13.131205    148469.73   -47794.772    3925.5103   -51720.283   0.14317753 
   25200    275.36589   -28.755274    148449.76   -47926.429    3781.4874   -51707.916   0.13756083 
   25300    284.07896    21.969069    148468.43   -47769.061    3901.1405   -51670.201   0.14434264 
   25400    280.34445    1.9312896     148486.8   -47810.351    3849.8559   -51660.207   0.13701352 
   25500    287.51593     11.49624    148503.39   -47692.472     3948.339   -51640.811   0.14168179 
   25600    287.38666    15.406836    148553.47    -47615.65    3946.5637   -51562.214   0.14268143 
   25700     286.0765    6.3404355     148529.9   -47710.673    3928.5718   -51639.245    0.1462735 
   25800    291.61729   -3.1734109    148551.58   -47565.907    4004.6612   -51570.568   0.14321395 
   25900    290.26958   -35.872976    148566.84   -47599.043    3986.1537   -51585.196   0.14679891 
   26000    287.66218       19.852    148537.64   -47639.281    3950.3474   -51589.629   0.14631737 
   26100    291.14234   -4.8026706    148547.92   -47626.302    3998.1389   -51624.441    0.1358343 
   26200    286.83652    -1.707321    148525.33   -47729.277    3939.0088   -51668.286   0.14515517 
   26300    286.29768    11.802211    148526.63   -47689.362    3931.6092   -51620.971   0.13685337 
   26400    287.85392    20.955257    148508.38   -47746.405    3952.9804   -51699.386   0.13993975 
   26500    287.79541    16.415802    148531.29   -47660.535    3952.1769   -51612.712   0.14070579 
   26600    289.89994   -14.067978    148556.74   -47609.407    3981.0776   -51590.485   0.14158101 
   26700    293.29541   -13.284417    148566.75   -47609.361    4027.7062   -51637.067   0.14257349 
   26800    286.29996   -44.432925    148559.55   -47659.741    3931.6405   -51591.381   0.14629731 
   26900    290.66092    9.0915319    148580.61   -47601.281    3991.5277   -51592.809   0.14045694 
   27000    288.33543   -36.285573    148559.12   -47632.627    3959.5927   -51592.219   0.14697824 
   27100    291.17139   -7.5637973    148566.69   -47578.579    3998.5379   -51577.117   0.14733247 
   27200    286.38549   -16.875786    148565.04   -47648.132     3932.815   -51580.947   0.13973836 
   27300    291.11653    11.346423    148596.74   -47483.047    3997.7845   -51480.832   0.14833562 
   27400     289.8526   -16.058132    148578.09   -47602.338    3980.4275   -51582.766   0.14312265 
   27500    285.52758    4.8231002    148568.69    -47706.95    3921.0337   -51627.983   0.13876904 
   27600    283.96256   -24.178644    148533.07   -47759.688    3899.5419    -51659.23    0.1404317 
   27700    289.28827    4.2712164    148548.37   -47652.375    3972.6778   -51625.053   0.13940105 
   27800    288.40035    6.8649354    148549.06   -47633.697    3960.4843   -51594.181   0.14418907 
   27900     286.3801   -23.129974    148532.42   -47694.539     3932.741    -51627.28   0.14441257 
   28000    283.69539   -6.8003793    148527.87   -47766.857     3895.873    -51662.73   0.14123098 
   28100    287.30162    16.035927    148504.83   -47740.388    3945.3959   -51685.783   0.14022208 
   28200    285.60804    32.468288    148501.17   -47701.782    3922.1387   -51623.921   0.14504047 
   28300    286.33299    4.2517098    148509.56   -47728.008    3932.0941   -51660.102   0.13926687 
   28400    282.50016   -17.796772    148521.76   -47660.421    3879.4594    -51539.88   0.14609011 
   28500    282.43744    3.1505876     148523.3   -47689.585    3878.5981   -51568.183    0.1413899 
   28600    286.39096    15.192678    148510.47   -47697.821    3932.8902   -51630.711   0.14222602 
   28700    287.19938  -0.42661971    148509.21   -47692.975    3943.9918   -51636.966   0.14171525 
   28800    286.92684    1.2089485    148512.42   -47740.478    3940.2492   -51680.727   0.13876169 
   28900    283.57149   -11.897845    148515.74   -47705.627    3894.1716   -51599.798   0.14255088 
   29000    284.54152    11.508218    148522.53   -47651.713    3907.4926   -51559.206   0.14575526 
   29100     284.9246   -14.300353    148524.69    -47646.01    3912.7533   -51558.763   0.14439802 
   29200    289.01888  -0.11656994    148547.03   -47584.736    3968.9783   -51553.714   0.14352204 
   29300     285.9068     -9.02601    148542.67   -47588.151    3926.2414   -51514.393   0.15193897 
   29400    288.61236    24.229155     148556.9   -47602.525    3963.3957    -51565.92    0.1373456 
   29500     288.9538    4.4686593     148547.2   -47650.022    3968.0846   -51618.107   0.14771546 
   29600    289.70622   -5.8074441    148542.55    -47618.83    3978.4173   -51597.247   0.14158687 
   29700     282.8117   -4.7475742    148524.78   -47692.789    3883.7377   -51576.526    0.1438362 
   29800    284.25019    15.650245    148469.88   -47781.112    3903.4919   -51684.604   0.14117088 
   29900    285.50945   -11.282358    148508.28   -47762.986    3920.7848    -51683.77   0.14121538 
   30000     282.1739    18.562575    148488.42   -47719.138     3874.979   -51594.117   0.14157882 
   30100    284.03131   -40.216641    148537.96   -47703.003     3900.486   -51603.489   0.14902495 
   30200    287.03759    18.426197    148530.47    -47704.85      3941.77    -51646.62   0.13892244 
   30300    286.25225   -15.322794    148523.04   -47701.238    3930.9853   -51632.223   0.14916728 
   30400    288.06373   -13.131884    148524.56   -47733.752    3955.8616   -51689.613    0.1442649 
   30500    285.54164   -10.697777    148505.05   -47832.767    3921.2268   -51753.994   0.13128005 
   30600    286.77951     19.85066    148519.65   -47712.653     3938.226   -51650.879   0.14248696 
   30700    285.61498    8.9046282    148509.48   -47735.106    3922.2339    -51657.34   0.13689399 
   30800    291.72684    17.364138    148538.86   -47671.843    4006.1657   -51678.008   0.14149803 
   30900    289.42219    27.482744    148552.07   -47647.939    3974.5168   -51622.456   0.13869943 
   31000     282.6256   -45.263801    148560.69   -47683.022    3881.1821   -51564.204    0.1449339 
   31100    286.96103   -22.985281    148548.31   -47693.524    3940.7187   -51634.242    0.1437666 
   31200    284.80858   -16.825891    148531.14   -47637.695    3911.1601   -51548.855   0.14499203 
   31300    291.43144    11.157226    148579.05   -47579.664    4002.1091   -51581.773   0.14427346 
   31400    284.99045   -25.870249     148546.9   -47689.401    3913.6575   -51603.058   0.14313391 
   31500     289.4895   -42.004276    148543.92   -47641.537    3975.4411   -51616.978   0.14533114 
   31600    288.45845   -4.9434531    148529.63   -47663.292    3961.2821   -51624.575   0.13954826 
   31700    289.55951    8.7741995    148555.57   -47640.057    3976.4026   -51616.459   0.14227094 
   31800    284.07903   -4.8898666     148556.6   -47702.045    3901.1414   -51603.187   0.14194296 
   31900     288.1193   -15.550762    148545.37   -47695.337    3956.6248   -51651.961   0.14039633 
   32000    289.35756    25.594306    148536.58    -47644.54    3973.6293   -51618.169   0.14091959 
   32100    285.71882   -15.041555       148545   -47682.581      3923.66   -51606.241   0.14119646 
   32200    283.05957     2.070882    148525.48   -47800.315    3887.1415   -51687.456     0.137257 
   32300    280.90239    9.9898926    148513.52   -47743.773    3857.5179   -51601.291   0.14184959 
   32400    280.18886   -8.1419929    148512.32     -47838.3    3847.7193   -51686.019    0.1405693 
   32500    287.40684    18.955499    148536.41   -47698.539    3946.8409    -51645.38    0.1398569 
   32600    286.36919   0.99588635    148545.67   -47653.458    3932.5913   -51586.049   0.14657187 
   32700    285.50729    34.397498     148547.9   -47744.641    3920.7552   -51665.396   0.13108242 
   32800    287.06269   -20.771207    148524.07   -47613.537    3942.1147   -51555.652   0.15007601 
   32900    290.68044   -4.2372716    148530.82   -47680.423    3991.7959   -51672.218   0.13935991 
   33000    288.25698    28.982303    148530.04   -47668.205    3958.5155    -51626.72   0.13752884 
   33100    287.32849    31.165209    148523.57   -47696.543    3945.7649   -51642.308   0.14048773 
   33200    286.93717    21.119749    148507.89   -47673.232     3940.391   -51613.623   0.13910297 
   33300    289.69865    10.925923     148525.6   -47680.051    3978.3134   -51658.364   0.14302503 
   33400    283.44349   -0.8974549    148509.61   -47700.279    3892.4138   -51592.692   0.14031735 
   33500    284.13807   -7.5944691    148492.09   -47723.099    3901.9522   -51625.051   0.14166881 
   33600    286.37941   -27.113066    148496.61   -47735.399    3932.7316   -51668.131   0.14110146 
   33700    291.36571    7.0548106    148522.81   -47633.348    4001.2065   -51634.555    0.1430377 
   33800    296.48608   -25.738388    148548.73   -47530.811    4071.5224   -51602.333   0.14297613 
   33900       291.58    21.678942    148551.64   -47555.535    4004.1491   -51559.684   0.14637242 
   34000    287.38778   -14.251573    148522.95   -47693.158    3946.5791   -51639.737   0.13886334 
   34100    285.52287    -7.818341    148554.68   -47717.248    3920.9691   -51638.217   0.13685033 
   34200    291.41251    29.362989    148538.87   -47716.161    4001.8491    -51718.01   0.13538777 
   34300     289.9556   -3.9128012    148533.49   -47748.939    3981.8419   -51730.781   0.14019022 
   34400    286.17809    31.619665    148546.31   -47672.803    3929.9669    -51602.77    0.1405752 
   34500    288.04357    22.933351    148579.67   -47602.898    3955.5848   -51558.483   0.14363264 
   34600    287.99041   -43.603405    148620.52    -47606.17    3954.8548   -51561.025    0.1438761 
   34700    287.52077   -52.696241    148568.43   -47721.969    3948.4054   -51670.374   0.14038272 
   34800    283.63562   -5.5982801    148535.93   -47710.258    3895.0522   -51605.311    0.1423489 
   34900    285.71125    11.277293    148540.67   -47693.695    3923.5561   -51617.251   0.13676512 
   35000    287.59382    44.171088    148521.86       -47669    3949.4086   -51618.408   0.14307141 
   35100     286.7073    15.810166    148543.81    -47684.19    3937.2344   -51621.425   0.13770193 
   35200     291.7491    21.597114    148557.94   -47623.451    4006.4714   -51629.923   0.14227228 
   35300    285.14496    8.1416354    148553.28   -47701.492    3915.7793   -51617.272   0.14389241 
   35400    288.92314     -14.7981    148541.51   -47705.584    3967.6636   -51673.248   0.14134328 
   35500    284.17189   -4.9447403    148554.12   -47691.227    3902.4166   -51593.643   0.13985722 
   35600    292.97265    4.9563572    148557.03   -47663.863    4023.2739   -51687.137   0.13685493 
   35700    290.90063    35.811187    148574.69   -47678.659    3994.8196   -51673.478   0.13751255 
   35800    292.25649    24.036247    148603.21   -47513.772    4013.4391   -51527.211   0.14432611 
   35900    287.56796   -17.794869    148588.47   -47629.778    3949.0534   -51578.832   0.14408654 
   36000    282.80081   -17.986676     148527.5   -47680.523    3883.5881   -51564.112   0.14370461 
   36100    285.37819    1.3624954    148519.43   -47727.425    3918.9822   -51646.408   0.14339149 
   36200     287.0992   -26.500249    148527.74   -47764.518    3942.6162   -51707.134   0.14221729 
   36300    287.09631    33.853253    148530.24    -47693.97    3942.5765   -51636.546   0.13638486 
   36400    285.46808    25.270905    148520.36   -47749.431    3920.2166   -51669.647   0.14524907 
   36500    286.66274    5.3772993     148534.4   -47722.127    3936.6224   -51658.749    0.1390362 
   36600    283.62807   -18.095245    148537.73   -47720.984    3894.9486   -51615.933   0.14529849 
   36700    285.95606   -23.291246    148518.86   -47758.688    3926.9178   -51685.606   0.14175556 
   36800    279.57784    29.563182    148502.32   -47828.913    3839.3284   -51668.241   0.13837967 
   36900    282.45733    9.6484025    148520.46   -47753.473    3878.8713   -51632.345   0.14472558 
   37000    284.58364    49.047545    148529.83   -47735.639    3908.0709    -51643.71   0.13996301 
   37100    281.77644    27.587051    148514.89   -47780.248    3869.5209   -51649.768   0.13783427 
   37200    282.87694   -10.173425    148537.01   -47790.603    3884.6336   -51675.236   0.14404245 
   37300    278.49731   -15.105402    148512.13   -47779.232      3824.49   -51603.722   0.14153824 
   37400    286.71621    15.855461    148524.84   -47791.301    3937.3568   -51728.658   0.13482873 
   37500    284.14807    30.559331    148524.74   -47760.104    3902.0895   -51662.193   0.14396705 
   37600    281.84755   -3.2302796    148499.56   -47810.102    3870.4974     -51680.6   0.13593098 
   37700     279.3029    21.140923    148476.06   -47886.072    3835.5528   -51721.624   0.14017825 
   37800    280.94189     19.73956     148483.2   -47905.485    3858.0604   -51763.546   0.13213246 
   37900    283.36015      5.27639    148518.96   -47810.536    3891.2693   -51701.806   0.14161736 
   38000    287.16506   -26.900664    148553.62   -47752.821    3943.5206   -51696.342   0.13577048 
   38100    289.16741    24.832131    148538.81   -47684.081     3971.018   -51655.099   0.14010667 
   38200    291.11794   -38.190064    148542.58   -47654.628    3997.8038   -51652.432   0.14299509 
   38300    282.22959   -27.615734    148545.83    -47708.87    3875.7437   -51584.614   0.14434832 
   38400    290.21844   -16.328864    148539.91   -47640.348    3985.4514   -51625.799   0.14489411 
   38500    285.55642     16.63874    148516.73     -47696.7    3921.4298    -51618.13   0.14054516 
   38600    292.61254    32.673125    148507.64   -47652.779    4018.3285   -51671.107   0.14582466 
   38700    289.94464    9.9770801    148552.24   -47624.317    3981.6914   -51606.009    0.1395165 
   38800    285.60612   -0.4564195    148528.01   -47663.373    3922.1123   -51585.486   0.13914312 
   38900    288.67212   -19.755839     148541.5   -47603.795    3964.2164   -51568.012    0.1451172 
   39000    287.70575    23.135364    148559.14   -47664.303    3950.9457   -51615.249   0.13911975 
   39100    284.70988    19.790703    148560.02   -47685.076    3909.8046   -51594.881   0.14045032 
   39200    284.02411   -17.759478    148532.16   -47811.014    3900.3872   -51711.401   0.13935339 
   39300    285.41833    32.664894    148497.03   -47821.043    3919.5334   -51740.577   0.13179579 
   39400    288.74956   -51.582531    148532.81   -47697.774    3965.2799   -51663.054   0.14567195 
   39500    289.37631    7.1383029    148554.86    -47681.61    3973.8867   -51655.497   0.13627551 
   39600    292.19766   -11.009997    148545.47    -47678.38    4012.6312   -51691.011   0.13936284 
   39700     290.1932   -13.878502    148526.47   -47656.679    3985.1047   -51641.784   0.14776729 
   39800    288.73232    4.5623363    148525.75   -47679.087    3965.0431   -51644.131   0.13465965 
   39900    294.10484    24.302268    148531.75   -47643.616    4038.8218   -51682.438   0.14340399 
   40000    286.13842    10.513699    148532.63   -47716.329    3929.4221   -51645.751   0.13549885 
   40100    281.24367    4.3437418    148520.24   -47725.734    3862.2046   -51587.938   0.13735057 
   40200    281.85854    19.277738    148524.58   -47702.092    3870.6483   -51572.741   0.14082559 
   40300    288.67306    26.505481    148524.85    -47713.13    3964.2293    -51677.36   0.13520989 
   40400    279.93254    -41.22004    148506.54   -47796.476    3844.1993   -51640.675   0.14627803 
   40500    290.03618    8.0688973     148545.8    -47658.67    3982.9485   -51641.619   0.13802777 
   40600    281.54045    -1.958652    148567.87   -47733.181    3866.2801   -51599.461   0.14262846 
   40700    287.28652    44.016681     148534.5   -47737.979    3945.1885   -51683.168   0.13502561 
   40800    283.83812   -29.424304    148545.53    -47708.76    3897.8331   -51606.593   0.14432434 
   40900    290.16337    1.3262862    148545.71   -47700.735    3984.6951    -51685.43   0.13904798 
   41000    279.65119   -44.227612    148527.99   -47764.807    3840.3357   -51605.143   0.14092609 
   41100    285.99822   -24.928052    148520.62   -47732.749    3927.4968   -51660.246   0.14344875 
   41200    291.89255    38.879037    148544.14       -47619    4008.4413   -51627.441   0.13944736 
   41300    286.75511    5.1838812    148545.55   -47701.533    3937.8909   -51639.424   0.14064321 
   41400    287.91743  -0.68177045    148556.26   -47645.332    3953.8526   -51599.184   0.14225124 
   41500    284.63615   -22.536244    148560.03   -47661.823     3908.792   -51570.615   0.14385182 
   41600      287.531    11.955638    148546.95   -47663.389    3948.5459   -51611.935   0.14231845 
   41700    284.39618   -11.036524    148535.16   -47767.862    3905.4967   -51673.359   0.14030244 
   41800    290.25595   -11.516524    148557.79   -47687.931    3985.9665   -51673.897   0.14181055 
   41900     277.0059   -27.225541    148541.91   -47765.525     3804.009   -51569.534   0.15319302 
   42000    287.46294   0.54191014    148560.63   -47740.033    3947.6112   -51687.644   0.13264061 
   42100    283.51392    36.399646    148527.31   -47808.934    3893.3809   -51702.315   0.14227477 
   42200    283.06566   -3.2413626    148533.68   -47766.026    3887.2252   -51653.251   0.13749116 
   42300    285.02523    27.466746    148546.17   -47728.874    3914.1352   -51643.009   0.14318809 
   42400    281.28832   -65.750657     148536.9   -47758.629    3862.8177   -51621.446   0.14810788 
   42500    283.52171   -41.389069    148529.42   -47718.581     3893.488   -51612.069   0.14593478 
   42600    285.62048    -1.388822    148512.16    -47755.55    3922.3094   -51677.859   0.14425439 
   42700    284.52862    17.678524    148510.59   -47822.909    3907.3154   -51730.225   0.13843238 
   42800    287.10638   -4.3164151    148496.36   -47731.879    3942.7148   -51674.594    0.1430733 
   42900     283.8223   -47.522677    148512.92   -47750.945    3897.6158   -51648.561   0.14736621 
   43000    282.34892    10.979722    148526.57   -47772.043    3877.3825   -51649.425   0.14245835 
   43100    286.25062     15.70706     148554.1   -47694.118    3930.9629   -51625.081   0.14379573 
   43200    288.46659   -35.801918    148528.48   -47708.237     3961.394   -51669.631   0.14542624 
   43300    288.15666    5.7708291    148534.44   -47705.281    3957.1378   -51662.419    0.1420833 
   43400      292.478    39.743052    148555.25   -47636.755    4016.4811   -51653.236    0.1388672 
   43500    288.71903   -33.700622    148561.95   -47694.475    3964.8606   -51659.335   0.14437906 
   43600    282.74672    -58.86743    148536.09    -47733.31    3882.8453   -51616.156    0.1444645 
   43700    285.71204    9.1652562    148542.36   -47781.078    3923.5668   -51704.644   0.13857766 
   43800    280.97405   -14.628187    148532.45   -47812.947     3858.502   -51671.449   0.14536061 
   43900    287.89218    15.873509    148539.63   -47728.759    3953.5058   -51682.265   0.13913566 
   44000    277.38551   -40.578789    148517.55   -47812.486     3809.222   -51621.708   0.14684281 
   44100    286.16272    22.571813    148529.18   -47766.663    3929.7559   -51696.419   0.14345856 
   44200     282.2069    27.270627    148549.17   -47723.671    3875.4322   -51599.103   0.13741161 
   44300    282.82273    25.972696    148528.88   -47728.817    3883.8892   -51612.706   0.14649187 
   44400    287.39833    51.782155    148550.44   -47744.678    3946.7239   -51691.402   0.13893244 
   44500    283.91978   -4.9014473     148564.1   -47754.276    3898.9545    -51653.23   0.13762144 
   44600    281.02332   -16.229694    148550.85   -47760.201    3859.1786    -51619.38   0.14651663 
   44700    286.14679    21.596741    148553.36   -47745.734    3929.5371   -51675.271   0.13263639 
   44800    287.53895    8.7945273    148553.78   -47704.695    3948.6551    -51653.35   0.14412367 
   44900    287.97735   0.79248553    148549.89   -47692.097    3954.6754   -51646.772   0.14041783 
   45000    284.99147    13.947249     148550.4   -47739.657    3913.6715   -51653.329   0.14265734 
   45100    285.52761   -8.3500619    148562.18   -47627.268    3921.0342   -51548.302   0.14549723 
   45200    286.77253   -11.248028    148578.38   -47664.441    3938.1301   -51602.571   0.14310684 
   45300     288.4538     9.288605    148565.17   -47685.574    3961.2183   -51646.792   0.13664966 
   45400    282.74835    12.778574    148557.91   -47747.478    3882.8677   -51630.346   0.14029093 
   45500     287.8884    2.8386638    148554.18   -47682.227    3953.4539   -51635.681   0.13983074 
   45600    287.63087   -15.835308    148582.93   -47687.041    3949.9174   -51636.958   0.13828783 
   45700    287.85791   -12.063331    148574.79   -47637.909    3953.0352   -51590.944     0.143455 
   45800    283.61795   -24.258429     148571.3   -47714.513    3894.8096   -51609.323   0.14364487 
   45900    292.20259    30.198234    148593.22   -47577.372    4012.6989   -51590.071   0.14259052 
   46000    289.65498     -10.5036    148575.12   -47642.097    3977.7137   -51619.811    0.1459236 
   46100    291.93733   -1.5979649    148606.88    -47549.53    4009.0563   -51558.586   0.14196714 
   46200    291.26873    41.219555    148585.26   -47601.223    3999.8746   -51601.097    0.1391265 
   46300    290.43316   -8.7666369    148577.32   -47590.136    3988.4001   -51578.536   0.14736787 
   46400    294.42146    1.8803437    148571.37   -47637.021    4043.1698   -51680.191   0.13500902 
   46500     286.1991   -3.8511334    148553.55   -47600.915    3930.2554   -51531.171   0.15414317 
   46600    287.76552    16.831544    148563.67   -47660.763    3951.7665    -51612.53   0.13752919 
   46700    292.22742   -5.9870981    148592.01    -47601.72    4013.0399   -51614.759   0.14493591 
   46800    291.97148   -11.546618     148599.4   -47607.977    4009.5251   -51617.502   0.14213874 
   46900    287.88936   -2.0049771    148590.67    -47662.96    3953.4671   -51616.427   0.14108503 
   47000     283.0927    22.241482    148582.54   -47691.349    3887.5966   -51578.946   0.14423152 
   47100    289.90768   -39.295592    148598.38   -47705.358    3981.1839   -51686.542   0.14361704 
   47200    287.83107    3.5853001    148572.21   -47665.524    3952.6666    -51618.19   0.14061218 
   47300    282.71326    11.588229    148553.72   -47787.269    3882.3858   -51669.655   0.14194022 
   47400     284.7043   -23.110298    148551.69   -47720.225     3909.728   -51629.953   0.14386937 
   47500    288.37218   -3.6848942    148516.47   -47722.077    3960.0975   -51682.174   0.13955122 
   47600    281.36236   -12.317091    148530.13   -47718.499    3863.8345   -51582.333    0.1486249 
   47700    290.54349    32.476181     148544.3   -47642.944    3989.9152   -51632.859   0.14276138 
   47800    285.55785    20.104754    148532.02   -47700.331    3921.4494    -51621.78    0.1460399 
   47900     287.7208    19.825999    148513.93    -47750.16    3951.1523   -51701.313   0.13992772 
   48000    283.70751    31.473534    148515.32   -47708.257    3896.0394   -51604.296   0.14391149 
   48100    287.73982   -3.0580487    148520.34   -47755.401    3951.4135   -51706.815   0.13889863 
   48200     286.5719    42.071477    148488.03   -47736.272     3935.375   -51671.647   0.13968041 
   48300    287.25695    9.8626956    148505.41   -47691.563    3944.7824   -51636.345   0.13954399 
   48400    283.03428   -43.398298     148510.5   -47733.025    3886.7943   -51619.819   0.14305983 
   48500    286.10355   -1.9278722    148501.09   -47822.534    3928.9432   -51751.477   0.13985219 
   48600    287.19362    13.598329     148506.3   -47815.164    3943.9128   -51759.077   0.13181139 
   48700    287.93715   -3.8095399    148505.58   -47710.114    3954.1234   -51664.238    0.1470665 
   48800    287.36286    41.939047    148528.58   -47700.578    3946.2369   -51646.814   0.13705142 
   48900    284.58902    16.895897    148527.92   -47724.888    3908.1449   -51633.033    0.1369584 
   49000    284.07564   -23.592523    148517.99   -47758.618    3901.0949   -51659.713   0.14643772 
   49100     287.8505   -5.4163762    148535.87    -47675.87    3952.9334   -51628.803   0.13905489 
   49200    285.87382   -38.512987    148543.07    -47715.91    3925.7886   -51641.698   0.14764085 
   49300    284.36271    1.5853035    148518.55   -47771.244     3905.037   -51676.281   0.13757022 
   49400    285.43813   -19.686506    148537.19   -47796.426    3919.8053   -51716.231   0.13823691 
   49500    289.00887    -5.641705    148546.14   -47736.967    3968.8409   -51705.808   0.13887697 
   49600    287.97425    4.6172879    148548.86   -47734.104    3954.6328   -51688.737   0.13769635 
   49700    286.11616   -12.079898    148536.33   -47736.056    3929.1165   -51665.173   0.14063644 
   49800    278.00175    -2.678877     148509.5   -47742.212    3817.6845   -51559.897   0.14665889 
   49900    288.91837    10.343764    148534.22   -47723.646    3967.5981   -51691.244   0.13674939 
   50000    286.63704   -1.6539214    148519.85   -47729.585    3936.2695   -51665.854   0.14276515 
   50100    291.18411   -30.329108    148553.97   -47592.146    3998.7125   -51590.859   0.14616169 
   50200    285.65763    4.2799541     148555.8   -47667.458    3922.8196   -51590.278   0.14239447 
   50300    282.41158    8.5125298    148529.17   -47676.063     3878.243   -51554.306   0.14568225 
   50400    287.99346     17.13983    148551.42   -47700.051    3954.8967   -51654.948   0.13951447 
   50500    289.26464    7.5777474    148554.29   -47612.414    3972.3532   -51584.768   0.14585156 
   50600    294.08007    7.8539879    148582.92   -47542.107    4038.4816   -51580.588   0.14152313 
   50700    286.47887   -3.9672387    148522.34   -47775.933    3934.0974    -51710.03   0.14423483 
   50800    285.64837   -16.417773    148503.39   -47757.577    3922.6925   -51680.269   0.13632378 
   50900     284.3675   -11.144133    148488.08   -47784.235    3905.1028   -51689.338   0.14994719 
   51000    283.63651    40.693888    148495.99   -47731.055    3895.0645    -51626.12   0.14065058 
   51100     282.3615   -13.807012    148500.74   -47743.803    3877.5553   -51621.358    0.1432075 
   51200    282.85662   -9.6110291    148495.31   -47799.479    3884.3546   -51683.834   0.14594346 
   51300    286.12049     25.73554    148481.33   -47808.864    3929.1759    -51738.04   0.13171224 
   51400    289.41346    47.087162    148486.73   -47745.728    3974.3969   -51720.125   0.14357289 
   51500    278.68254   -13.434344    148462.12   -47799.879    3827.0336   -51626.912   0.14544764 
   51600    288.85843    11.337541    148498.65   -47718.105    3966.7749    -51684.88   0.13837031 
   51700     287.4381     18.58676     148521.9   -47616.747    3947.2701   -51564.017   0.14983895 
   51800    285.00188   -48.239261    148512.48   -47663.597    3913.8145   -51577.412   0.14563915 
   51900    281.43413    -8.912263    148506.57   -47728.272      3864.82   -51593.092   0.14549905 
   52000    289.58836     14.60103    148490.75   -47709.444    3976.7988   -51686.243   0.14560634 
   52100    280.79624   -9.4930606     148474.5   -47785.844    3856.0601   -51641.904   0.14212693 
   52200    278.05516   -44.665773    148454.68   -47843.122     3818.418    -51661.54   0.14814353 
   52300    283.54439   -5.7250321    148441.04   -47818.416    3893.7994   -51712.215   0.14273478 
   52400    280.41565   -13.265903    148444.96   -47904.825    3850.8337   -51755.658    0.1391457 
   52500     283.5473   -18.278498    148477.93    -47753.48    3893.8393   -51647.319   0.14381338 
   52600    282.40972   -3.8439284    148488.16   -47718.662    3878.2175   -51596.879   0.14632043 
   52700    285.68852    6.0752524    148504.83   -47653.896    3923.2439    -51577.14   0.14374789 
   52800    288.96721    9.8782949    148522.08   -47626.028    3968.2688   -51594.297   0.14390898 
   52900    285.53999   -38.902933    148520.69   -47653.237    3921.2042   -51574.441   0.15037042 
   53000    290.45824     5.128111    148529.31    -47603.88    3988.7444   -51592.624   0.14249588 
   53100    288.45213    23.975578    148512.57   -47741.018    3961.1954   -51702.214   0.14228785 
   53200    281.74036    -16.87665     148486.8   -47788.371    3869.0255   -51657.396   0.14467485 
   53300    285.39196    25.808693     148489.6   -47751.588    3919.1714    -51670.76   0.13333428 
   53400     283.1607   -38.085951    148492.57   -47684.205    3888.5303   -51572.735   0.15348941 
   53500    290.12674    26.464814    148500.95   -47675.392    3984.1922   -51659.585   0.13686338 
   53600    284.00825   -19.862032    148480.95   -47749.453    3900.1694   -51649.622   0.14694631 
   53700     288.2385   -34.740989    148488.71   -47728.721    3958.2617   -51686.983   0.14571431 
   53800    284.64613   -30.669878     148474.2   -47755.834    3908.9291   -51664.763   0.13988559 
   53900    284.81088   -3.8464467    148465.47   -47759.038    3911.1916   -51670.229   0.14477563 
   54000    284.65304    13.392267    148479.08   -47766.073     3909.024   -51675.097   0.13667206 
   54100    284.50303    10.867462     148505.5   -47740.992     3906.964   -51647.956   0.14112968 
   54200     290.7635    -9.148587    148494.92   -47693.156    3992.9364   -51686.093    0.1452113 
   54300    295.78061    40.724384    148501.59   -47611.798    4061.8344   -51673.632   0.14004559 
   54400    290.51192   -25.995153    148533.61   -47538.291    3989.4817   -51527.773   0.14712491 
   54500    290.64393   -13.527364     148524.8   -47610.251    3991.2944   -51601.545   0.14634386 
   54600    290.53849   -8.6381307    148509.27   -47626.833    3989.8465   -51616.679   0.14531045 
   54700    287.10856     2.985946    148516.64   -47687.393    3942.7447   -51630.138   0.14646714 
   54800    288.95711   -23.166669    148527.63   -47618.782      3968.13   -51586.912   0.14517634 
   54900    288.80186   -8.5665889    148528.92   -47633.445    3965.9981   -51599.443   0.14615387 
   55000    287.00642   -12.436718    148542.57   -47665.909     3941.342   -51607.251   0.14234004 
   55100     283.2464   -38.236453    148504.86   -47680.608    3889.7072   -51570.316   0.15056397 
   55200    282.65178   -12.132429    148487.95    -47793.84    3881.5416   -51675.381    0.1409856 
   55300    283.29239    3.0984708    148466.49   -47838.676    3890.3387   -51729.015   0.14130933 
   55400    284.86729   -13.057008    148479.57   -47798.445    3911.9663   -51710.411   0.14216889 
   55500    284.87026   -11.382255    148491.21   -47761.718     3912.007   -51673.725   0.13953297 
   55600    288.02604   -7.7634734     148514.6    -47658.37    3955.3441   -51613.714   0.14919094 
   55700    289.61466   -3.3081405    148539.25    -47621.64    3977.1599     -51598.8   0.14311791 
   55800    287.87467    6.8147892    148533.33   -47607.077    3953.2654   -51560.342   0.14637016 
   55900    291.06019    6.1690739    148505.19   -47618.236    3997.0108   -51615.246   0.14754491 
   56000    288.68165    1.3015626    148514.68   -47630.666    3964.3473   -51595.013   0.14115618 
   56100    285.67241    5.6865074    148505.91   -47615.621    3923.0227   -51538.643   0.15258718 
   56200    286.84811   -1.5357916    148534.97   -47655.698     3939.168   -51594.866   0.14420344 
   56300    285.67527   -2.2399042    148501.16   -47727.137    3923.0619   -51650.199   0.14253694 
   56400    281.06363   -16.041371    148468.73    -47772.61    3859.7321   -51632.342   0.14808625 
   56500    281.50984    -10.18547    148447.64   -47817.964    3865.8598   -51683.824   0.13795003 
   56600    280.26569   -38.149986    148443.69   -47876.074    3848.7744   -51724.848   0.14577235 
   56700    283.23775   -3.2613935    148456.28   -47850.108    3889.5885   -51739.697   0.13942399 
   56800    287.17343   -35.624124    148479.63   -47738.761    3943.6356   -51682.397   0.14333109 
   56900    282.47709    5.3946739    148459.95   -47831.288    3879.1426   -51710.431   0.14191176 
   57000    283.89379    38.592328    148428.71   -47811.932    3898.5976   -51710.529   0.14108581 
   57100    284.66546   -8.4561082    148476.84   -47736.452    3909.1946   -51645.647   0.14748373 
   57200    286.35311    4.1817625    148489.96   -47689.597    3932.3704   -51621.967    0.1430204 
   57300    286.62937   -42.567008    148472.55   -47828.322    3936.1642   -51764.487   0.14492877 
   57400    284.92063    23.425425    148484.33   -47707.311    3912.6988    -51620.01   0.14187228 
   57500    284.82569    38.214468    148481.44   -47673.074     3911.395   -51584.469   0.14440439 
   57600    286.73374   0.37759967    148455.09   -47783.347    3937.5974   -51720.944   0.14368784 
   57700    283.85526    5.6332434     148453.3   -47697.185    3898.0685   -51595.253   0.14364714 
   57800    288.54231   -15.688996    148483.69   -47648.076    3962.4338    -51610.51   0.15409207 
   57900    289.89867    19.169166    148512.76   -47686.912    3981.0601   -51667.972   0.13836495 
   58000    287.87005   -47.320598    148509.58    -47646.56    3953.2019   -51599.762   0.14828623 
   58100    287.68285   -28.464092    148493.41   -47695.327    3950.6312   -51645.958   0.14960565 
   58200    288.64542    6.2735284    148523.57   -47591.672    3963.8497   -51555.521   0.14540622 
   58300    286.95292    3.0625297    148496.27   -47656.626    3940.6074   -51597.233   0.15027574 
   58400    287.45268    25.269983    148488.83   -47698.798    3947.4704   -51646.268    0.1379299 
   58500    284.67489   -2.1159915    148498.62   -47708.205    3909.3241   -51617.529   0.14456669 
   58600    287.49438  -0.99072891    148471.51   -47740.314     3948.043   -51688.357   0.14277516 
   58700    287.85392   -10.978591    148506.06   -47699.725    3952.9805   -51652.706   0.14361868 
   58800    290.20543   -32.433463    148478.14   -47738.117    3985.2728   -51723.389   0.14606577 
   58900    285.43141   -6.3083953     148487.1   -47654.019    3919.7131   -51573.732   0.14805491 
   59000    287.98353    18.087973    148500.28   -47619.228    3954.7603   -51573.988   0.14365395 
   59100    289.35304    -2.177559    148498.61   -47583.061    3973.5672   -51556.628   0.14976477 
   59200    286.06885    -13.35807    148506.33   -47705.038    3928.4668   -51633.505   0.14231238 
   59300    288.95121    21.820945    148500.29   -47687.394    3968.0491   -51655.444   0.14531608 
   59400      293.937   -20.706921    148529.51   -47675.697    4036.5169   -51712.214   0.14052726 
   59500    284.17516   -3.0860041    148494.24    -47776.13    3902.4615   -51678.591    0.1432887 
   59600    285.76325    4.4158591    148515.81   -47748.251    3924.2702   -51672.521   0.14209308 
   59700    290.06961   -1.5237705    148517.15   -47675.916    3983.4076   -51659.323   0.14531982 
   59800    288.46125    12.546329    148514.13   -47792.358    3961.3207   -51753.679   0.14077088 
   59900    283.74513   -18.607292    148501.33   -47787.609    3896.5561   -51684.165   0.13724814 
   60000    282.17531    16.670728    148508.54   -47751.979    3874.9983   -51626.978   0.14625191 
   60100    285.54456    10.147861    148531.21   -47720.416    3921.2669   -51641.683   0.13953869 
   60200    288.46501    1.8947902    148502.01   -47682.662    3961.3722   -51644.034   0.14530895 
   60300    287.27285   -37.041409    148522.21   -47649.827    3945.0008   -51594.827   0.15057524 
   60400    285.02955    2.5542372    148531.93   -47596.169    3914.1944   -51510.363   0.14622897 
   60500    285.50897   -2.4251728    148535.35   -47626.691    3920.7781   -51547.469   0.14824844 
   60600    288.55753    23.393571     148528.8   -47685.953    3962.6429   -51648.596   0.13903942 
   60700    294.89906    14.310733    148553.27   -47514.409    4049.7284   -51564.137   0.14516302 
   60800    289.81707   -10.116119    148551.49   -47542.496    3979.9395   -51522.436   0.14712118 
   60900    288.15108    13.775014    148530.73   -47631.592    3957.0612   -51588.653   0.14119806 
   61000    285.94849   -4.5339462    148509.34   -47672.841    3926.8139   -51599.654    0.1474046 
   61100    288.11205   -35.055406    148514.98    -47658.31    3956.5252   -51614.835   0.14342208 
   61200    286.92073   -6.6245192    148522.08   -47598.765    3940.1653    -51538.93   0.14746477 
   61300    282.26895    2.9039585    148509.93   -47687.557    3876.2843   -51563.841   0.14552588 
   61400    285.98517   -13.568727    148529.08   -47744.185    3927.3176   -51671.503   0.14104807 
   61500    288.08954    17.728158    148524.22   -47683.213    3956.2161   -51639.429   0.14206743 
   61600    287.26526    7.2278979    148521.43   -47728.076    3944.8966   -51672.972   0.13964317 
   61700    283.19719   -9.3747999    148504.26   -47789.287    3889.0314   -51678.318   0.14229929 
   61800    283.36824    8.2876159    148480.51   -47775.132    3891.3804   -51666.512   0.14293361 
   61900    288.21822    19.156625    148518.52   -47666.125    3957.9832   -51624.108   0.14241454 
   62000    290.21936    20.811332    148518.86   -47680.975     3985.464   -51666.439    0.1436305 
   62100    284.12912   -19.760092    148494.16   -47748.644    3901.8293   -51650.474   0.14178622 
   62200    287.52315    3.0215665    148519.81   -47647.646    3948.4381   -51596.084   0.14776092 
   62300    283.77078    3.3609787    148517.58   -47692.954    3896.9083   -51589.863   0.14622675 
   62400    284.96706   -24.127802    148517.13   -47743.025    3913.3363   -51656.361   0.14496094 
   62500    280.53982   -10.307283    148497.06   -47725.885    3852.5389   -51578.424   0.14929024 
   62600    288.33706   -14.107734    148498.58   -47756.715    3959.6151    -51716.33   0.14037086 
   62700    281.99361   -26.142537     148480.2    -47799.07    3872.5031   -51671.573   0.14714432 
   62800    287.49759    23.664297    148490.12   -47766.908    3948.0871   -51714.995   0.13462443 
   62900    288.79615   -3.4494389    148519.62   -47677.064    3965.9197   -51642.984   0.14254445 
   63000     284.6552   -14.273975    148517.81    -47706.92    3909.0538   -51615.974   0.14298443 
   63100     283.5493    10.548565    148506.46   -47774.877    3893.8668   -51668.744    0.1378839 
   63200    295.04213   -22.071223    148516.47   -47657.182    4051.6932   -51708.876   0.14750732 
   63300    284.92885   -13.878802    148511.98   -47751.756    3912.8117   -51664.568   0.13900368 
   63400    281.07371   -34.042394    148487.62   -47840.838    3859.8706   -51700.709   0.14465341 
   63500    281.86328     14.83559    148503.78   -47817.078    3870.7134   -51687.791   0.13902819 
   63600    275.65902    -45.54036    148487.33   -47865.782    3785.5128   -51651.295   0.14187951 
   63700    281.92898   -1.5179206    148480.64   -47831.124    3871.6157   -51702.739   0.14323033 
   63800    281.19108    29.501236    148472.44   -47898.105    3861.4823   -51759.588   0.13511602 
   63900    283.32363    9.2997114    148496.78   -47793.065    3890.7678   -51683.833   0.14322417 
   64000    283.47829    2.6899469    148532.57   -47709.781    3892.8916   -51602.673   0.14211005 
   64100    288.58023     2.675346    148549.88   -47664.936    3962.9545   -51627.891   0.14420685 
   64200    286.53945   -26.235206    148535.83   -47651.477    3934.9294   -51586.406   0.14638717 
   64300    290.44878   -21.854167    148554.43   -47694.534    3988.6145   -51683.148   0.14000793 
   64400    282.48429   -23.591103    148513.09   -47749.681    3879.2414   -51628.922   0.14512862 
   64500    283.29908  -0.36818602    148483.16   -47734.509    3890.4307    -51624.94   0.14159919 
   64600    283.55619   -1.7020373    148482.56   -47771.522    3893.9614   -51665.484   0.14298541 
   64700     280.7914   -5.1604529    148487.25   -47775.384    3855.9937   -51631.378   0.14522155 
   64800    285.81569    25.209737     148486.2    -47722.67    3924.9903    -51647.66    0.1433038 
   64900    289.79852    19.122421    148516.91   -47633.281    3979.6849   -51612.966   0.14508966 
   65000    287.37974    13.150952    148528.39   -47623.394    3946.4686   -51569.863   0.14565327 
   65100    290.86781   -12.782523    148522.44   -47695.128    3994.3689   -51689.496   0.13867564 
   65200    285.76577    17.283733    148507.43   -47710.469    3924.3047   -51634.773   0.14364203 
   65300    287.19833    8.6074656    148530.72   -47647.954    3943.9774   -51591.931   0.14160372 
   65400    283.59238    24.839634    148505.51   -47684.799    3894.4584   -51579.258    0.1504328 
   65500    289.38142    31.293506     148520.7    -47618.76     3973.957   -51592.717   0.13892177 
   65600    285.52742    15.589777    148507.55   -47632.712    3921.0315   -51553.743   0.14332433 
   65700     290.9565    13.020932       148526   -47596.029    3995.5868   -51591.616   0.14459238 
   65800    287.61947   -12.459998    148522.41   -47667.597    3949.7608   -51617.358   0.14114494 
   65900    284.92461   -12.226374    148522.43   -47675.201    3912.7535   -51587.955   0.14863537 
   66000    287.31219    35.556324    148522.19   -47683.904     3945.541   -51629.445   0.13718909 
   66100    288.64541    52.453265    148512.13   -47653.768    3963.8496   -51617.618   0.14500454 
   66200    282.79041    10.063273    148493.73    -47789.93    3883.4453   -51673.376   0.14134832 
   66300    287.58284    52.025608    148493.09   -47717.126    3949.2578   -51666.384   0.14107765 
   66400    286.82523    14.205554    148513.52   -47721.817    3938.8539   -51660.671    0.1431775 
   66500    286.40876   -6.8062257     148515.5   -47761.701    3933.1346   -51694.836   0.13983993 
   66600    286.49149   -9.7567184    148492.89   -47760.194    3934.2707   -51694.465   0.14102646 
   66700    287.99175    9.9227482    148496.25   -47746.482    3954.8732   -51701.355   0.14082161 
   66800    284.38011    9.2815176    148502.36   -47768.041     3905.276   -51673.317   0.14038276 
   66900    277.79854   -42.907017    148481.64   -47776.842     3814.894   -51591.736   0.14642562 
   67000    282.46426    16.286157    148466.28   -47883.542    3878.9664   -51762.508    0.1380326 
   67100    288.84681   -7.7527648    148506.45   -47720.251    3966.6154   -51686.866   0.14489051 
   67200    285.22641   -6.7654052     148520.2   -47824.038    3916.8978   -51740.936   0.13899415 
   67300    283.96994   -16.774537    148529.46   -47742.195    3899.6433   -51641.838   0.14283927 
   67400    285.49353   -35.972321    148515.45   -47721.989    3920.5661   -51642.555   0.14641463 
   67500    287.21917   -4.4795228    148538.37   -47712.724    3944.2637   -51656.988   0.14033117 
   67600    292.35305    4.9935623    148574.07   -47572.657    4014.7651   -51587.423   0.14541113 
   67700    292.54364   0.63755605    148569.33   -47648.808    4017.3824    -51666.19   0.13812393 
   67800    286.22607    11.572464    148567.04   -47692.588    3930.6258   -51623.214   0.14192687 
   67900    282.70276    -7.235171    148534.38   -47719.718    3882.2416   -51601.959   0.14642959 
   68000    289.18217   -7.0295925    148518.09   -47755.392    3971.2208   -51726.613    0.1360391 
   68100    283.43073    25.056162    148503.72   -47755.403    3892.2385   -51647.641   0.14427649 
   68200    289.89195     23.37365    148523.62   -47723.384    3980.9679   -51704.352    0.1351977 
   68300    283.95781   -18.291695    148508.08   -47671.796    3899.4767   -51571.273    0.1486772 
   68400    286.33172   -6.5730486    148519.46   -47636.197    3932.0767   -51568.273   0.14909615 
   68500    285.89076    18.781798    148503.91   -47630.803    3926.0211   -51556.824   0.14512874 
   68600    284.68978    8.7172538    148493.04   -47722.171    3909.5285     -51631.7    0.1495196 
   68700    290.77904   -3.1065549    148491.23   -47700.426    3993.1499   -51693.576   0.13724533 
   68800    288.61169   -7.9485389    148504.76   -47697.337    3963.3865   -51660.724   0.14838839 
   68900    288.82003    3.5678942    148522.04   -47694.762    3966.2477   -51661.009   0.14040537 
   69000     289.3976   -25.899814    148520.92   -47696.884    3974.1791   -51671.063   0.14413949 
   69100    285.93412    22.657246    148482.02   -47755.629    3926.6165   -51682.246   0.14090483 
   69200    285.72098   -5.4011007    148478.44    -47765.12    3923.6897   -51688.809   0.14029817 
   69300    283.93321   -34.299237     148468.5   -47800.363     3899.139   -51699.502   0.14668328 
   69400    283.64389    14.403611    148453.01   -47845.783    3895.1657   -51740.949   0.13943081 
   69500    285.67754    10.053638    148444.78   -47707.738     3923.093   -51630.831   0.14808439 
   69600    284.98351   -22.343706    148490.81   -47606.773    3913.5623   -51520.336    0.1536646 
   69700    287.02341    7.3458049    148488.01   -47698.209    3941.5753   -51639.784   0.14215037 
   69800    291.52146    48.678191    148462.29   -47694.865    4003.3452    -51698.21   0.14400171 
   69900    285.27839   0.96921608    148454.27   -47794.242    3917.6117   -51711.854   0.14215032 
   70000    283.27081    -5.870533    148464.36   -47719.203    3890.0425   -51609.245   0.14509209 
   70100    281.26846   -10.476143    148447.19   -47842.653     3862.545   -51705.198   0.14159848 
   70200    289.70848    13.637788    148510.92   -47686.177    3978.4483   -51664.626   0.13745087 
   70300     286.6153    10.619502    148487.89   -47690.524    3935.9709   -51626.495   0.14814726 
   70400    289.55802    23.925421    148506.02   -47580.977    3976.3822   -51557.359   0.14420857 
   70500    291.69295     26.66569    148509.82   -47659.263    4005.7003   -51664.964   0.14314449 
   70600    286.85525   -24.669102    148486.37   -47718.037     3939.266   -51657.303   0.14809365 
   70700    283.63953    3.2748351    148466.44   -47682.238     3895.106   -51577.344   0.14325892 
   70800    285.81755   -14.045437    148465.08   -47718.348    3925.0157   -51643.364   0.15083214 
   70900    287.42642   -34.568779    148454.33   -47713.693    3947.1097   -51660.803   0.14532652 
   71000     289.3931    9.5283256    148443.88   -47729.861    3974.1173   -51703.978   0.14640516 
   71100    289.90138    11.451796    148432.63   -47716.881    3981.0974   -51697.978   0.14557544 
   71200    282.17337    14.981501    148454.18   -47754.986    3874.9717   -51629.958   0.13929362 
   71300    281.75146    11.427339    148424.94   -47806.171    3869.1778   -51675.349   0.14387652 
   71400    285.31547    6.3573376    148459.02   -47744.466    3918.1209   -51662.587   0.13807971 
   71500    283.74906   -10.409161    148455.15   -47697.275      3896.61   -51593.885   0.14894037 
   71600    285.69258   -9.9014439    148469.97   -47716.872    3923.2996   -51640.172    0.1436303 
   71700    281.92204   -9.2161877    148480.03   -47705.472    3871.5203   -51576.993   0.14885836 
   71800    282.69448   -27.887016    148450.02    -47876.95    3882.1279   -51759.078   0.14467219 
   71900     282.5415    11.376828     148456.1   -47818.875    3880.0272   -51698.903   0.14168011 
   72000    284.37118    26.313115    148456.15    -47783.15    3905.1533   -51688.304   0.14497904 
   72100     286.5425   -3.5258827    148509.65   -47658.062    3934.9712   -51593.033    0.1397176 
   72200    290.64107   -22.160644    148516.33   -47550.804    3991.2552   -51542.059   0.15070978 
   72300    297.05552   -25.557201    148533.08    -47526.74    4079.3423   -51606.082   0.14976214 
   72400    293.16717    9.2303317    148516.53   -47647.285    4025.9451    -51673.23   0.13961603 
   72500    286.36116    2.1454786    148487.55     -47639.2    3932.4809    -51571.68   0.14865451 
   72600    287.37306    4.9734005    148497.56   -47579.851     3946.377   -51526.228   0.14968701 
   72700    283.76213    -5.807488     148471.9    -47742.66    3896.7895   -51639.449    0.1421816 
   72800    283.60437   -29.478455    148445.33   -47662.489     3894.623   -51557.112   0.15583292 
   72900    287.41675   -1.7207994    148466.51   -47675.077    3946.9769   -51622.054   0.14494551 
   73000    284.68281    4.6681767    148478.01   -47686.144    3909.4329   -51595.577   0.15062877 
   73100    288.85077    30.734083    148482.42   -47639.282    3966.6698   -51605.952   0.14379943 
   73200    289.14234   -7.4895419    148527.04    -47630.36    3970.6738   -51601.034   0.14535264 
   73300    290.77439    27.311328    148531.11   -47607.884     3993.086    -51600.97   0.14730879 
   73400    290.14659    18.087468    148548.65   -47593.955    3984.4647    -51578.42   0.14126023 
   73500    285.72231   -24.421187    148547.47   -47599.029    3923.7079   -51522.737   0.14923899 
   73600    285.63026    8.0707149    148533.37   -47638.695    3922.4438   -51561.139   0.14173355 
   73700    282.84239    17.705426    148513.56   -47695.178    3884.1592   -51579.337   0.14351159 
   73800    287.00349   -13.281397    148515.47   -47790.374    3941.3019   -51731.676   0.14179504 
   73900    282.68087    -17.99429    148514.71   -47773.707     3881.941   -51655.648   0.14176131 
   74000    287.47784     14.38498    148519.59   -47693.883    3947.8159   -51641.699   0.14717963 
   74100    293.51881    33.247815    148575.41   -47534.883     4030.774   -51565.657   0.14232395 
   74200    286.38545   -1.6765585    148544.95   -47698.698    3932.8146   -51631.512   0.14435352 
   74300    288.58083    4.3095278    148523.77   -47694.647    3962.9628    -51657.61   0.14300272 
   74400    285.71461   -4.6079391    148513.73   -47733.913    3923.6021   -51657.515   0.14387062 
   74500      284.271    47.379277    148515.41   -47744.249    3903.7776   -51648.026   0.14070167 
   74600    290.54963   -1.9486002    148511.83   -47749.915    3989.9995   -51739.915    0.1356997 
   74700     285.7606    20.146511    148522.44    -47658.51    3924.2337   -51582.744   0.14688099 
   74800    290.70659   0.26024287    148505.32   -47717.432     3992.155   -51709.587   0.14138637 
   74900    285.01366   -30.759092    148511.59   -47721.014    3913.9763    -51634.99   0.14526719 
   75000    286.16651   -18.984243    148470.73   -47698.562    3929.8078    -51628.37   0.15132126 
   75100     288.5465     10.10797    148503.35   -47632.059    3962.4914    -51594.55   0.14527179 
   75200    284.33097    24.412786    148481.72   -47676.322    3904.6012   -51580.923   0.14619286 
   75300    281.91813   -31.388445    148477.01   -47722.966    3871.4666   -51594.432   0.14765134 
   75400    287.95505     51.65237    148492.52   -47736.314    3954.3692   -51690.683    0.1349609 
   75500     284.9556   -1.7064462    148466.21   -47730.361     3913.179    -51643.54   0.14845227 
   75600    291.01314    13.470627    148510.86   -47664.754    3996.3647   -51661.119   0.13956239 
   75700    287.42542   -3.8081995    148524.72   -47620.134     3947.096    -51567.23   0.14783228 
   75800    286.44632   -31.305264    148536.24   -47645.731    3933.6503   -51579.382   0.14721017 
   75900    285.48901    7.8270689    148500.17   -47656.655    3920.5041    -51577.16   0.14610933 
   76000    288.06085    5.6466206    148524.47   -47669.028     3955.822    -51624.85   0.14506893 
   76100    290.45725    14.331579    148493.97    -47761.88    3988.7309   -51750.611   0.13852288 
   76200     285.1187    26.917469    148505.51   -47805.857    3915.4187   -51721.275   0.14187911 
   76300    282.89831   -54.348752    148506.81   -47747.336    3884.9271   -51632.263   0.14341886 
   76400    280.15939   -10.160966    148527.59   -47742.686    3847.3146       -51590   0.14719652 
   76500     286.9968    4.2455163    148515.41   -47729.253      3941.21   -51670.463   0.13982385 
   76600    286.20743    1.0635637    148498.79   -47765.839    3930.3698   -51696.208   0.14188456 
[...]
   81900    286.47964   -26.140071    148508.26   -47763.764     3934.108   -51697.872   0.14003626 
   82000    287.21902   -21.815538    148533.84   -47680.567    3944.2616   -51624.828   0.14423294 
   82100    287.26302    4.3943254    148548.14   -47629.568    3944.8658   -51574.434   0.14356751 
   82200    290.38465    12.830886    148551.21   -47640.638    3987.7339   -51628.372   0.13928525 
   82300    282.65777   -6.1833604    148531.17     -47711.9    3881.6238   -51593.523   0.14586735 
   82400     287.0912   -11.735771    148546.19   -47594.167    3942.5063   -51536.674   0.14371619 
   82500    291.24982    34.711405    148592.65   -47495.391    3999.6149   -51495.006   0.14535086 
   82600    285.78033   -30.015501    148593.77   -47601.239    3924.5046   -51525.744   0.14481685 
   82700    285.52446    -1.511978    148576.74   -47683.493    3920.9909   -51604.484   0.13781628 
   82800    288.86554   -10.977406    148572.83   -47695.781    3966.8726   -51662.653   0.13963325 
   82900    289.23525    9.0054156    148588.86   -47649.472    3971.9496   -51621.421   0.14292778 
   83000     289.7429    5.5534898    148596.13   -47589.456     3978.921   -51568.377   0.14416246 
   83100    286.64945   -46.793165    148566.44   -47630.709    3936.4399   -51567.149   0.14696582 
   83200    284.69441   -10.026961    148552.58   -47661.276    3909.5921   -51570.868   0.14326515 
   83300    289.06138   -10.918819    148540.33   -47646.707    3969.5619   -51616.269   0.14722896 
   83400    282.99281    16.634149    148551.99   -47726.084    3886.2247   -51612.308   0.14190638 
   83500    284.53887    30.811135    148509.26   -47831.322    3907.4562   -51738.778   0.14028418 
   83600    283.43355    11.179362    148504.55   -47771.091    3892.2773   -51663.368   0.13822118 
   83700    286.71438   -18.061632     148536.6   -47806.949    3937.3316   -51744.281   0.13902131 
   83800    282.77338   -11.586283    148552.41   -47766.871    3883.2114   -51650.082   0.13999841 
   83900    283.87119    23.737399    148552.87   -47763.489    3898.2872   -51661.776   0.13787369 
   84000    283.46989   -18.003717    148535.53   -47778.282    3892.7763   -51671.059   0.14455079 
   84100    288.21052   -5.3353672    148541.98   -47701.312    3957.8775   -51659.189   0.14098854 
   84200    291.62752     14.92928     148577.1   -47659.656    4004.8017   -51664.458   0.13740891 
   84300    282.73724   -31.771416    148548.12   -47708.122    3882.7152   -51590.837   0.14747437 
   84400    288.36752    21.146647    148569.53    -47703.62    3960.0335   -51663.653   0.14015097 
   84500    284.54502   -36.061057    148544.03   -47761.883    3907.5406   -51669.424   0.14523724 
   84600    288.48776    8.6646044    148568.41   -47675.831    3961.6847   -51637.516   0.14114541 
   84700    289.40045   -2.2286363    148561.75   -47682.858    3974.2183   -51657.076    0.1417509 
   84800    288.54978   -4.7161705    148548.73   -47675.994    3962.5363    -51638.53   0.14448677 
   84900    288.27456    39.042363    148570.04   -47598.379    3958.7569   -51557.135   0.14492386 
   85000    289.14019      -1.4611    148550.51   -47668.841    3970.6443   -51639.485   0.14429786 
   85100    285.09658   -29.755516    148538.01   -47688.525     3915.115    -51603.64   0.14449287 
   85200    285.95178   -7.5076865    148548.97   -47735.633    3926.8591   -51662.492   0.14273385 
   85300     283.6751   -4.3941536    148528.83   -47745.597    3895.5944   -51641.192   0.14003066 
   85400    281.29607   -26.301641       148518   -47776.555    3862.9241   -51639.479   0.14572314 
   85500    282.23075   -22.922435     148510.2   -47722.205    3875.7597   -51597.965   0.14517255 
   85600    285.34937    27.319661    148535.49   -47755.848    3918.5865   -51674.434   0.13871785 
   85700    287.61621   -19.818081    148527.27   -47697.358     3949.716   -51647.074   0.14426082 
   85800    286.72388      2.66167    148545.19   -47685.713     3937.462   -51623.175   0.14086852 
   85900    289.12727    28.492162    148557.35   -47662.988    3970.4668   -51633.455   0.14479242 
   86000    288.07783   -25.194736    148534.42   -47711.718    3956.0553   -51667.773   0.14203233 
   86100    286.76839    3.5899464    148554.63    -47680.06    3938.0732   -51618.133   0.14021615 
   86200    288.03426    25.465425    148538.61   -47644.899    3955.4569   -51600.356   0.14642888 
   86300    287.13283     39.03703    148522.16   -47688.787     3943.078   -51631.865   0.13863792 
   86400    283.29247   -1.9511722    148497.36   -47751.067    3890.3399   -51641.407   0.14442273 
   86500    280.85218   -21.230633    148497.97   -47781.171    3856.8284   -51637.999   0.14277688 
   86600    295.51685    57.943101    148547.81   -47625.186    4058.2123   -51683.399   0.13751723 
   86700     291.2933   -17.068348    148538.81   -47625.283     4000.212   -51625.495   0.14678331 
   86800     282.2618 -0.077214274    148514.87   -47743.085    3876.1861   -51619.271   0.14299358 
   86900    288.99875    8.2852715    148515.28   -47734.294    3968.7018   -51702.995   0.14319114 
   87000    286.38159    15.347588    148516.12   -47703.086    3932.7615   -51635.847   0.14341748 
   87100    288.58743    12.762806    148538.72   -47682.219    3963.0534   -51645.273   0.13901595 
   87200    289.00955    -17.89775    148523.94   -47610.994    3968.8502   -51579.844   0.14876108 
   87300    288.09771   -41.444502    148543.38   -47624.039    3956.3283   -51580.367   0.14474549 
   87400     289.0385   -10.042415    148522.37   -47679.614    3969.2478   -51648.862   0.14774909 
   87500    290.90917    36.305687     148511.2   -47644.315     3994.937   -51639.252   0.14250805 
   87600    293.33591    26.170269    148511.87   -47675.657    4028.2623    -51703.92   0.14056847 
   87700    287.61364     30.78063    148522.82   -47646.149    3949.6807    -51595.83   0.14642674 
   87800    285.91771   -17.557933    148504.41   -47731.535    3926.3912   -51657.926   0.13949461 
   87900    279.01347    7.8543233    148506.26   -47755.195    3831.5782   -51586.773   0.14980259 
   88000    285.32383    7.2233413    148527.78   -47721.012    3918.2357   -51639.248   0.13900315 
   88100    285.44097     -5.34685    148553.77   -47694.188    3919.8443   -51614.032   0.14185941 
   88200    285.11999    -13.32163    148526.17   -47791.702    3915.4365   -51707.139   0.14079729 
   88300    285.42794     3.238902    148547.36   -47739.271    3919.6654   -51658.936   0.13897592 
   88400    290.18136    21.920923    148531.07   -47664.257    3984.9422     -51649.2   0.14599255 
   88500    284.61813   -22.902067     148549.4   -47743.517    3908.5446   -51652.062   0.13995872 
   88600    291.60749   -9.0467685    148529.12   -47726.774    4004.5266     -51731.3   0.14014426 
   88700    287.77987    4.3142102    148523.06   -47699.202    3951.9636   -51651.165   0.14488229 
   88800    287.40528    8.8302588     148538.1   -47764.309    3946.8194   -51711.129   0.13688887 
   88900    287.55461    7.8526842     148533.5   -47700.537    3948.8702   -51649.407   0.14398363 
   89000    287.58813    7.8359648    148565.56    -47667.02    3949.3304    -51616.35   0.13835504 
   89100    284.69881    15.315162    148543.33   -47718.011    3909.6525   -51627.664   0.13641452 
   89200    287.13588    41.928551    148550.75   -47669.835    3943.1198   -51612.955    0.1415673 
   89300    284.34123    8.4049358     148531.7   -47791.234    3904.7421   -51695.977   0.13353951 
   89400    293.27321    19.763521    148546.96   -47694.754    4027.4013   -51722.155   0.14179955 
   89500    285.35246     25.59484    148556.75   -47792.837    3918.6289   -51711.466   0.13257895 
   89600    286.08614    14.926169    148524.06   -47813.827    3928.7042   -51742.531   0.13665865 
   89700    280.75618    32.528406    148526.84   -47724.511    3855.5101   -51580.021   0.13953847 
   89800    285.70948   -18.906849     148538.9   -47668.956    3923.5317   -51592.488   0.14204243 
   89900    281.94726    22.077691     148529.9   -47647.355    3871.8666   -51519.222   0.14812025 
   90000    287.60262   -3.1487259    148554.15   -47673.922    3949.5293   -51623.452    0.1354161 
   90100    288.06256    -9.146865    148556.19   -47659.037    3955.8456   -51614.883   0.14465966 
   90200    282.73088   -6.5625496    148544.35   -47731.403    3882.6277   -51614.031   0.14075155 
   90300    282.89757   -22.187004    148513.17   -47703.847    3884.9168   -51588.764    0.1447706 
   90400     284.9979    23.492907    148526.39   -47692.101    3913.7598   -51605.861   0.14332951 
   90500    286.29569   -22.977788    148533.78   -47705.944    3931.5819   -51637.526   0.13947883 
   90600    286.96295    13.919203    148562.81   -47735.746    3940.7451   -51676.492   0.14022098 
   90700    288.20697      25.4211    148538.65   -47756.639    3957.8287   -51714.467   0.13474602 
   90800    277.37368   -28.276151    148528.94   -47777.039    3809.0596   -51586.099   0.14177891 
   90900    286.80877   0.46381928    148551.85   -47754.102    3938.6278    -51692.73   0.13686664 
   91000    282.87842   -12.032815    148541.79   -47768.301    3884.6539   -51652.955   0.13759852 
   91100    284.34183    10.282707    148537.14   -47877.118    3904.7503   -51781.868   0.13420568 
   91200    284.94369    9.1508784    148511.08   -47818.575    3913.0154    -51731.59   0.13420019 
   91300    287.65704    43.216466    148526.66   -47751.384    3950.2767    -51701.66   0.13819723 
   91400    287.83917    16.701458    148549.09   -47720.687    3952.7779   -51673.465   0.13766416 
   91500    292.27074    3.8311429    148573.47   -47561.105    4013.6348    -51574.74   0.14328473 
   91600    293.29676    23.690039    148577.13   -47626.069    4027.7248   -51653.794   0.13989332 
   91700    289.18447   -5.3991265    148569.67   -47699.787    3971.2522   -51671.039   0.13734653 
   91800    286.81004    -31.42776    148588.25   -47670.971    3938.6452   -51609.616   0.14021963 
   91900    288.29269    11.657068    148559.67   -47656.788    3959.0059   -51615.794   0.14119459 
   92000    287.37589    -4.258105    148583.52   -47705.084    3946.4158     -51651.5   0.13805361 
   92100    288.38953   -17.643429     148558.3   -47687.402    3960.3357   -51647.738   0.14450386 
   92200    282.34505   -10.476516    148573.29   -47722.295    3877.3293   -51599.624   0.13838249 
   92300    290.39089    1.6879467    148575.12   -47596.254    3987.8195   -51584.073   0.14323849 
   92400    286.57235   -25.676535    148566.93   -47641.443    3935.3811   -51576.824   0.13924744 
   92500    288.61844    20.797814    148584.49   -47641.811    3963.4793    -51605.29   0.13881667 
   92600    292.08421    39.512035    148584.61   -47553.595    4011.0732   -51564.668    0.1442864 
   92700    285.96634   -6.2628099    148564.69   -47678.747     3927.059   -51605.806   0.13784256 
   92800    286.74414   -10.394541    148535.59    -47688.34    3937.7402    -51626.08   0.14673756 
   92900    283.99491   -1.9821329    148541.48   -47725.911    3899.9862   -51625.897   0.13471863 
   93000    284.91875    26.126003     148520.7   -47733.106     3912.673   -51645.779    0.1425023 
   93100    281.63953   -6.3988171    148534.58   -47652.683    3867.6408   -51520.323    0.1425246 
   93200    284.34493   -3.1392978     148534.3   -47713.126    3904.7929   -51617.919    0.1374416 
   93300    287.25098   -9.0235065     148528.3   -47761.603    3944.7005   -51706.303   0.13924065 
   93400     283.8517     6.644378    148518.48    -47816.74    3898.0196    -51714.76   0.13257088 
   93500    274.47013   -37.791677    148506.38   -47815.344    3769.1863    -51584.53   0.14389841 
   93600    281.25285   -13.135736    148499.41   -47765.626    3862.3306   -51627.956   0.13923554 
   93700    283.90038    22.412904    148532.16    -47741.38     3898.688   -51640.068   0.13735645 
   93800    285.79482    29.578459    148520.09   -47737.611    3924.7036   -51662.314    0.1405142 
   93900    277.83144   -16.067646    148504.74   -47808.361    3815.3458   -51623.707   0.13740705 
   94000    283.33532    5.4359253    148502.93   -47776.274    3890.9283   -51667.203   0.14224181 
   94100    288.88725    28.281263    148519.91   -47658.265    3967.1707   -51625.436   0.13957509 
   94200    290.99019    14.322264    148541.42   -47656.083    3996.0496   -51652.133   0.13934405 
   94300    288.70979   -11.333568    148546.39   -47676.383    3964.7337   -51641.117   0.14098862 
   94400    293.19291    52.543521    148544.96   -47668.177    4026.2986   -51694.476   0.13402048 
   94500     285.7836    -2.655735    148558.26   -47675.451    3924.5496   -51600.001   0.14355468 
   94600    286.97926    5.6953986    148546.11   -47680.813     3940.969   -51621.782   0.13841928 
   94700    286.79984    29.733857     148555.7   -47722.744    3938.5051   -51661.249     0.135122 
   94800    285.15399    8.0105351    148528.29   -47760.049    3915.9033   -51675.952   0.13916749 
   94900     289.1324    5.7670643     148524.8   -47781.648    3970.5373   -51752.186   0.13121134 
   95000    284.03197    19.919812    148507.13   -47743.212    3900.4952   -51643.707   0.14241719 
   95100     285.5461   -4.7472501    148552.33   -47706.876    3921.2881   -51628.164   0.13807795 
   95200     284.8084   -37.780489    148532.33   -47737.933    3911.1576   -51649.091   0.14038724 
   95300     284.6993    -26.67847    148516.27    -47686.28    3909.6593   -51595.939   0.14366378 
   95400    290.34909    26.114693     148561.2   -47661.801    3987.2456   -51649.046   0.13186447 
   95500    289.67871   -35.038192    148538.45   -47678.803    3978.0395   -51656.843   0.14587872 
   95600     294.2117    32.812936    148544.39   -47663.648    4040.2891   -51703.938   0.13178613 
   95700     288.4694    2.9143251    148537.94   -47700.243    3961.4326   -51661.676   0.14024122 
   95800    289.96662    22.367444    148560.13   -47648.553    3981.9933   -51630.546   0.13431183 
   95900    288.68002    27.313552    148533.39   -47664.344    3964.3249   -51628.668   0.13806555 
   96000    289.39073     -37.6718    148553.03   -47633.992    3974.0848   -51608.077   0.14541571 
   96100    292.96017    6.4557288    148577.76   -47588.719    4023.1025   -51611.821   0.13586928 
   96200    287.60381   -6.7474292    148585.88   -47610.766    3949.5458   -51560.312   0.14376902 
   96300    291.04954    39.201958    148577.45   -47625.962    3996.8645   -51622.827   0.13359718 
   96400    287.27406    1.5070459     148559.3   -47676.955    3945.0174   -51621.972   0.13968895 
   96500     287.7769    10.852137    148546.15    -47667.48    3951.9227   -51619.403   0.13867502 
   96600    288.92166   -3.1346124    148550.12   -47726.802    3967.6432   -51694.445   0.13547561 
   96700    285.37814    1.7083142    148556.02   -47690.316    3918.9816   -51609.298   0.13878598 
   96800      285.349    40.821588    148559.19   -47711.366    3918.5814   -51629.948   0.13399138 
   96900    290.47764    27.037501    148553.41   -47720.285    3989.0109   -51709.296   0.13390783 
   97000    284.87541   -12.301184    148529.31   -47787.364    3912.0777   -51699.441    0.1380702 
   97100    285.18373    -2.508051    148539.64     -47761.4    3916.3118   -51677.711   0.13827391 
   97200    284.59372   -34.935288    148558.61   -47704.168    3908.2094   -51612.377   0.13977842 
   97300    288.60756    12.204238    148592.95     -47596.5    3963.3298    -51559.83    0.1400326 
   97400    289.75317   -21.481666    148582.51   -47691.532     3979.062   -51670.594   0.13712623 
   97500    288.32715    15.172232    148574.83   -47662.744     3959.479   -51622.223   0.14252375 
   97600    291.67879    1.5828253    148581.23   -47599.932    4005.5057   -51605.437   0.13723391 
   97700    289.86297   -11.568986    148583.06   -47562.402    3980.5699   -51542.972   0.14628169 
   97800    289.84111    21.349513    148569.25   -47668.389    3980.2696   -51648.659   0.13402731 
   97900     287.3644   -11.120478    148563.24   -47625.441    3946.2581     -51571.7   0.14103325 
   98000    288.23636   -32.124357     148541.8   -47714.504    3958.2323   -51672.736   0.13936092 
   98100    289.23857   -2.9354302    148559.96   -47699.882    3971.9953   -51671.878   0.13422667 
   98200    286.93137    3.6070999    148537.55   -47689.323    3940.3114   -51629.635   0.14314262 
   98300    286.42523    5.3297295    148571.83   -47631.443    3933.3608   -51564.804   0.13509178 
   98400     289.0366    8.2371008    148566.52   -47673.982    3969.2217   -51643.203   0.13940353 
   98500    290.22105    20.480176    148567.11   -47651.544    3985.4872   -51637.031   0.13445929 
   98600    284.45944    3.5576801     148540.6    -47655.51    3906.3654   -51561.876   0.13949668 
   98700    289.03726   -5.2480759    148529.73   -47619.634    3969.2308   -51588.865   0.14131018 
   98800    291.63489   -21.275284     148516.8   -47630.008     4004.903   -51634.911   0.13905022 
   98900    288.61181   -18.494974    148516.17   -47691.578    3963.3882   -51654.966   0.14189579 
   99000    283.13243    23.305682    148517.93   -47678.536    3888.1421   -51566.678   0.14107429 
   99100    285.01883   -3.7586485    148524.35   -47744.306    3914.0473   -51658.353   0.14097555 
   99200    282.98617   -30.538878    148513.92   -47744.152    3886.1336   -51630.286   0.13739099 
   99300    286.97432    5.2900853    148541.91   -47668.753    3940.9013   -51609.654   0.14148702 
   99400    283.90614    7.7456057    148543.71   -47713.846    3898.7672   -51612.613   0.13514774 
   99500    287.38405   -1.2371126     148555.2   -47666.476    3946.5278   -51613.003   0.14103695 
   99600    291.94453    24.281861    148563.69   -47662.476    4009.1551   -51671.631   0.13579083 
   99700    282.19715    16.510599    148556.11   -47714.589    3875.2983   -51589.888   0.13668426 
   99800    286.76981   -17.692084    148545.93   -47729.281    3938.0928   -51667.374   0.14066166 
   99900     281.4203   -22.494924    148523.46   -47783.966    3864.6301   -51648.596   0.13977855 
  100000    283.22001   -7.8852201     148532.9   -47697.639    3889.3449   -51586.984   0.14230589 
Loop time of 57.918 on 6 procs for 100000 steps with 4608 atoms

Performance: 745.882 ns/day, 0.032 hours/ns, 1726.578 timesteps/s
97.9% CPU use with 6 MPI tasks x no OpenMP threads

MPI task timing breakdown:
Section |  min time  |  avg time  |  max time  |%varavg| %total
---------------------------------------------------------------
Pair    | 39.234     | 39.69      | 40.512     |   6.3 | 68.53
Neigh   | 6.1747     | 6.2782     | 6.4242     |   3.6 | 10.84
Comm    | 8.217      | 9.0142     | 9.3301     |  13.2 | 15.56
Output  | 0.17497    | 0.17606    | 0.18036    |   0.5 |  0.30
Modify  | 1.9917     | 2.0518     | 2.0858     |   2.1 |  3.54
Other   |            | 0.7077     |            |       |  1.22

Nlocal:        768.000 ave         779 max         760 min
Histogram: 1 0 2 0 1 1 0 0 0 1
Nghost:        1394.17 ave        1405 max        1384 min
Histogram: 2 0 0 0 0 1 2 0 0 1
Neighs:        0.00000 ave           0 max           0 min
Histogram: 6 0 0 0 0 0 0 0 0 0
FullNghs:      21910.7 ave       22272 max       21685 min
Histogram: 2 0 1 1 0 1 0 0 0 1

Total # of neighbors = 131464
Ave neighs/atom = 28.529514
Neighbor list builds = 6147
Dangerous builds = 0

undump              1
unfix               2
unfix               3
unfix               4




################################################
#######         Run Simulation         #########
################################################

reset_timestep      0
log                 log.run_${NAME}
log                 log.run_ice_287K_1atm_ML
