LAMMPS data file via write_data, version 29 Oct 2020, timestep = 50000

1539 atoms
1 atom types

-0.019884063787571904 50.120564791450505 xlo xhi
-0.012622753488718885 31.817416240055856 ylo yhi
-0.012622753488718885 31.817416240055856 zlo zhi

Masses

1 18.015

Atoms # atomic

229 1 5.3428481084718085 1.1311756947496643 2.7657220134294174 0 1 0
622 1 6.399507748563335 2.5514421253860937 0.7190860985812343 0 0 0
230 1 11.13812050905163 1.175084722327059 2.686369484288 0 1 0
387 1 12.967057111554583 2.4361682773375803 1.144396988493831 0 0 0
231 1 17.415866666610334 1.0843831292723256 2.6855169573998796 0 1 0
383 1 22.290885853784413 31.493770265211673 1.126998862671151 0 0 0
233 1 23.769980783049775 1.2608725765478388 3.0270202352812654 0 1 0
3 1 1.8205628767970463 4.160413195342014 2.348796038182887 0 0 0
196 1 3.4722544790642766 5.865716570892787 1.0061653803920083 0 0 0
429 1 9.355117950754575 5.341836279172299 0.7866764597730066 0 0 0
7 1 7.881704168015082 3.9955395862027183 2.5449396778920716 0 0 0
8 1 14.525535541825226 4.104623360407221 3.0337198478243166 0 0 0
191 1 18.79632993400311 2.9031625957482974 1.0990512841347648 0 0 0
44 1 15.697690045616538 5.8788736521556295 1.042578660912288 0 0 0
11 1 20.721222815020976 4.3413980456064944 2.854653229514802 0 0 0
42 1 6.205950135662109 9.041683473858276 1.1501191008523968 0 0 0
15 1 10.946947328829228 6.929322715245879 2.3422150872516467 0 0 0
185 1 12.390397562466097 9.034098119560566 1.0680302042771261 0 0 0
16 1 17.141360855107017 7.569720641667875 2.7382058771543973 0 0 0
578 1 21.72941463403334 6.128691188462722 0.8651268435210613 0 0 0
18 1 23.61727758215635 7.44603743046305 2.675567062618555 0 0 0
19 1 1.3402315698583804 10.731917973409164 2.5077303019642776 0 0 0
576 1 2.945032273427586 12.190225761704644 0.7853147047854265 0 0 0
20 1 7.759243585298723 10.771800790126033 2.5077210574762594 0 0 0
397 1 9.23210901828249 12.081390576195469 0.6717190364423244 0 0 0
22 1 13.969391780631604 10.58761259356933 2.734689484969614 0 0 0
188 1 18.606910278214933 9.365680385406794 1.344651732345692 0 0 0
189 1 15.726676926390365 12.201424012851673 1.4124938695011287 0 0 0
23 1 20.326042671301842 10.857161978478501 2.8003344608458414 0 0 0
27 1 4.543220947278659 13.934300992171027 2.1453540036012173 0 0 0
584 1 6.5701328332936875 15.45526342517184 0.9060592442153148 0 0 0
29 1 10.72393463259192 13.81748426689808 2.4722916095566765 0 0 0
186 1 12.709123082407311 15.38539600851937 1.2074141051028224 0 0 0
32 1 17.67100730069195 13.94079009705871 2.8172688781068147 0 0 0
14 1 22.140671293394792 12.345185017398979 1.1397255797072179 0 0 0
33 1 23.68720023548136 14.069860700079019 2.602009430406171 0 0 0
34 1 1.6111810493797005 16.714992093908982 2.2575685933902028 0 0 0
195 1 3.494104766667493 18.378915016634224 1.0420809711624697 0 0 0
36 1 8.14661078328981 17.33784323558408 2.074855749933739 0 0 0
39 1 14.307261651958928 17.19725912222175 2.6808222685647984 0 0 0
582 1 18.912084733751524 15.539289420496816 0.8144244545413881 0 0 0
41 1 20.423918548710187 17.40011420720986 2.6717635266741473 0 0 0
197 1 4.629101529557897 20.267897390473713 2.474302255751963 0 0 0
766 1 9.620552159029502 18.95971663016808 0.6116592395455797 0 0 0
199 1 11.276081349019035 20.449672944081804 2.4485582052482626 0 0 0
364 1 15.815798692449702 18.901370817389846 1.1111035990806786 0 0 0
200 1 17.15159949888626 20.6589745011322 2.5758655281026797 0 0 0
759 1 22.36047827392411 18.748431457867177 0.8095340932681809 0 0 0
202 1 23.975805818714758 20.023679566464573 2.5352105475290783 0 0 0
203 1 1.649708649727313 23.726445910569673 2.6028155645963977 0 0 0
776 1 3.1555266800344044 24.96948014494803 0.8004308368784349 0 0 0
771 1 6.3691665213844395 21.925514515793353 0.8565475850428542 0 0 0
205 1 8.269820280425812 23.436913268039426 2.1579525188963 0 0 0
769 1 9.653269138115483 25.01277154080814 0.8119784402682704 0 0 0
772 1 13.001489808473568 22.03183534483597 0.9346396807209191 0 0 0
207 1 14.348359646068538 23.724790633678786 2.5444136427561266 0 0 0
1 1 19.126392902628364 21.929341111590382 0.9957758734709379 0 0 0
209 1 20.720534947751627 23.596424353044114 2.4698555782766145 0 0 0
212 1 4.783102565396615 26.627512697885855 2.434365299906696 0 0 0
213 1 11.218819642784853 26.60412141471069 2.6642942398480063 0 0 0
392 1 12.986372071603135 27.90871955719151 0.746934337721356 0 0 0
777 1 16.083499742157635 25.207881678876646 0.7297503883165654 0 0 0
216 1 17.73447028452267 26.32302685578854 2.7146901344116254 0 0 0
767 1 22.53064883071673 25.0911068188404 0.8118966532490914 0 0 0
218 1 23.67357720066235 27.06285740451078 2.440481019200824 0 0 0
778 1 0.2187057152751499 28.555789263309478 0.961672153749938 0 0 0
220 1 1.803468548350495 29.89574862394766 3.0370021986722837 0 0 0
2 1 3.461058733728747 31.33074347072459 1.1027496910070338 0 0 0
621 1 6.4473889440875 28.32967277893387 0.7615033096400734 0 0 0
222 1 8.09796339942392 29.800169539694807 2.5268648976976404 0 0 0
661 1 9.820218557163104 31.357960112860972 0.8752888374787507 0 0 0
225 1 14.351223129593134 29.45514493216806 2.834192764665822 0 0 0
390 1 15.889999773044629 31.364070582799492 1.2309898178233574 0 0 0
770 1 19.343155430164348 28.479099403156624 0.9198929860505302 0 0 0
227 1 20.575838649331953 29.948364694453375 2.6513660810194972 0 0 0
264 1 1.4920245810871438 1.312694339851987 5.566900684164278 0 1 0
352 1 3.4122874909119116 2.7164639931938006 4.187579300734678 0 0 0
266 1 8.007554807118453 0.9590449149069303 5.769514665173092 0 1 0
224 1 12.877999192075238 31.50769431911047 4.2276533929211615 0 0 0
268 1 14.244813582570547 1.1498452130716494 6.165434489672485 0 1 0
270 1 15.934160580367271 2.56879168068397 4.609650671416452 0 0 0
232 1 19.220672384676405 31.55213725828522 4.268667505743708 0 0 0
269 1 20.617154791528066 1.4625485703087688 6.049471703233016 0 1 0
4 1 0.09582525316293736 5.856921077779827 3.952066480531623 0 0 0
43 1 4.943140877218032 4.261102486195355 6.165570932487654 0 0 0
55 1 6.7083349452345615 5.729039047872403 4.262305655842906 0 0 0
10 1 9.479737080802535 2.8333119981626536 4.153765401354825 0 0 0
57 1 12.500816045754648 5.515851911741689 4.315938585245722 0 0 0
45 1 11.020368467125476 4.203620873023956 6.099463589598523 0 0 0
47 1 17.443527358596928 4.5055600824852755 5.874961873342672 0 0 0
17 1 19.02311349434515 5.860831133481088 4.424897121604329 0 0 0
129 1 22.385034274832805 2.8949602140862085 4.687479568241766 0 0 0
50 1 24.141077069035028 4.77061019238438 6.143996713324124 0 0 0
52 1 1.7588756854937875 7.3503451074333155 5.615481713131823 0 0 0
13 1 4.837248300123334 7.402003893593301 3.1442353024288163 0 0 0
56 1 8.133612191151983 7.520567608590591 5.6647856779340175 0 0 0
64 1 15.459045313703912 9.049565970968988 4.350939156616722 0 0 0
58 1 14.017063688513817 7.359693684733038 5.735280012120639 0 0 0
60 1 20.606849903338958 7.601594008026662 6.045108483557352 0 0 0
54 1 3.092655379061865 9.231496410887006 4.056097339680439 0 0 0
28 1 6.1496405622408385 12.21318122829922 4.049809456762021 0 0 0
61 1 4.617799597064633 10.742289255431938 5.747391007201858 0 0 0
21 1 9.687634551370737 9.179687302674587 3.803944234912476 0 0 0
63 1 11.006175986093213 10.669465795663303 5.920817157111134 0 0 0
73 1 18.78188754647013 12.111063492738102 4.7920677928053665 0 0 0
65 1 17.17877987861991 10.330257408169825 5.932881188808644 0 0 0
24 1 22.09734886033266 9.356767507003932 4.320023407496469 0 0 0
66 1 23.89561338492669 10.80722454944541 5.808151794081184 0 0 0
75 1 3.139514224822295 15.35917088285677 3.973065647290751 0 0 0
68 1 1.5992209812897604 14.193052604715733 5.817422626345313 0 0 0
70 1 7.56482989512661 13.880514243456052 5.581434343491142 0 0 0
30 1 12.427560221224123 12.433816135335489 4.195810949269682 0 0 0
72 1 14.300071847614308 13.751923131914205 5.585776900195393 0 0 0
74 1 20.46232148130071 13.789686822507592 6.202756030500003 0 0 0
76 1 4.833353622126205 17.04815763867157 5.404499265577925 0 0 0
37 1 9.158396939616924 15.51765301169267 4.024610052657798 0 0 0
77 1 10.872756470823738 17.102657203940034 5.714927951906191 0 0 0
38 1 15.954110587085752 15.58827190305701 4.223466240575491 0 0 0
80 1 17.218382184001786 17.406033669982605 5.966392260999594 0 0 0
81 1 22.069581028395973 15.815945045334594 4.197801779244334 0 0 0
82 1 23.715913649707627 17.243646686203775 5.961323807839006 0 0 0
235 1 1.4733018675769083 20.021516956629867 5.511098125610699 0 0 0
385 1 6.7401607541958155 18.659845281907323 3.8673181893225346 0 0 0
236 1 8.024061742044042 20.629293643594977 5.5718435537241495 0 0 0
274 1 12.481609997261767 18.75845959516157 4.271893667056427 0 0 0
237 1 13.90359296241416 20.758558774698123 5.938889554761754 0 0 0
386 1 18.65365826101624 19.09349736721677 4.228518494891389 0 0 0
238 1 20.619051265445606 20.413853058465094 5.732045257224728 0 0 0
210 1 22.111141092633467 21.560352090392264 3.990891478070151 0 0 0
240 1 3.2157134469524573 21.85787478702475 4.185679097590384 0 0 0
241 1 5.038164605308872 23.489509312181568 5.675197452554608 0 0 0
206 1 9.717999664020102 22.1216682946052 4.180702125791432 0 0 0
243 1 11.088695193918808 23.588172467048288 5.855918550036111 0 0 0
208 1 15.590618251174027 22.04758901085713 4.300434025780807 0 0 0
214 1 12.662501111897784 25.009891124825543 4.24383877508612 0 0 0
245 1 17.246248482243647 23.449603491199305 6.024455195188768 0 0 0
254 1 19.096195334631762 24.898900227929985 4.420985322477223 0 0 0
211 1 24.885976432679865 24.93662557067298 3.854149485857265 -1 0 0
246 1 23.66466214132669 23.404295524715806 5.803717760532769 0 0 0
247 1 1.3789192345211903 26.203045082422264 5.541372255953595 0 0 0
248 1 3.0974715799067685 27.807394146622627 4.433589815605768 0 0 0
204 1 6.406496594936589 25.074677950861712 3.968048930884189 0 0 0
249 1 7.727798313736714 26.709630048410027 5.7224073153440695 0 0 0
252 1 14.191958573152213 26.97948394212826 5.781957700598487 0 0 0
255 1 20.9013705414237 26.505125452667905 5.739333927728388 0 0 0
256 1 4.743895054952025 29.643254340031014 5.683925696769525 0 0 0
265 1 6.46418630152179 31.196475551671412 4.383982168708542 0 0 0
223 1 9.655092356052549 28.39334010857906 4.1469212983197625 0 0 0
258 1 11.421019018581635 29.715920735041443 5.848584773510384 0 0 0
259 1 16.36633938093082 28.280617787546497 4.144694938963749 0 0 0
260 1 17.54311211185383 29.991950869783764 5.901595410179133 0 0 0
261 1 22.252947130810856 28.390180388296784 4.450703641572308 0 0 0
262 1 23.640316871801648 29.842804323469636 6.122207316206292 0 0 0
300 1 4.622664916638728 0.8323558998702618 8.921879332800916 0 1 0
382 1 6.3678202215249335 2.3474485565586813 7.4211673097948045 0 0 0
302 1 11.141177977720186 1.1229337961996217 8.812539213708465 0 1 0
305 1 17.67905644547887 1.1248404835803947 8.93186324718167 0 1 0
307 1 22.21565554291511 31.47905588365016 7.63310208346339 0 0 0
308 1 23.955194662789093 1.1067424238266708 9.358492060973518 0 1 0
84 1 3.023174398173219 5.745358556268565 7.370535925617559 0 0 0
83 1 1.5408034199279885 4.283007226407576 8.95955902961283 0 0 0
85 1 8.066987371556328 4.280490493345622 9.0419389244311 0 0 0
190 1 12.610253798665099 3.0245325644815204 7.691836871074383 0 0 0
89 1 14.475151573449008 4.403302050226056 8.99497427068113 0 0 0
9 1 18.87938132069948 3.1053010401425167 7.626782668238315 0 0 0
92 1 20.814041892760123 4.362221648585629 9.278808029472897 0 0 0
96 1 4.76731266446399 7.36895606692184 8.725430760324176 0 0 0
102 1 6.238139349662042 8.854882483809241 6.917497012694701 0 0 0
97 1 9.431016693554325 6.006217753933946 7.542039513776024 0 0 0
98 1 10.963739523567382 7.395106709715007 9.180035343603901 0 0 0
59 1 15.769224426588046 6.175077890338147 7.378455531779575 0 0 0
99 1 17.32671263405458 7.569495829866131 9.224374342227339 0 0 0
107 1 18.87848209989421 8.71213070144487 7.678307606123376 0 0 0
51 1 22.281521314844177 6.136360504445134 7.765328431839602 0 0 0
100 1 24.24965693906161 7.724631568326664 9.050806206437677 0 0 0
53 1 0.16061175450054746 9.132848510351725 7.094590138344506 0 0 0
101 1 1.7390484196624623 10.664785004347085 8.908116440761743 0 0 0
103 1 7.885574816002204 10.412680811281001 8.551885608692807 0 0 0
62 1 12.203171869748578 9.236539075695745 7.508901166004448 0 0 0
105 1 14.136326286888918 10.725668354230988 8.64017315412577 0 0 0
108 1 20.525092964036492 10.71236119336555 9.263870091969212 0 0 0
67 1 3.183568101726311 12.489335437574224 7.3531445890424125 0 0 0
111 1 5.02396712729099 13.825933000717251 8.935184499218035 0 0 0
112 1 9.447709590674847 12.343512604695494 7.145465377345507 0 0 0
113 1 10.718662777765891 14.042934598409591 8.408519707866624 0 0 0
121 1 12.758019233825019 15.44729359273564 7.032947696272261 0 0 0
71 1 15.934266295688497 12.577195228378395 7.4022859198308915 0 0 0
114 1 17.349093697768954 13.93129616943654 9.319599066402194 0 0 0
116 1 22.366633155370685 12.328578259191453 7.825717758603723 0 0 0
117 1 24.00076806023525 13.768963976883432 9.124993531021538 0 0 0
118 1 0.10119402446796534 15.591713648489389 7.399893380400908 0 0 0
119 1 1.5974363137071834 17.37118263680386 8.930492479810137 0 0 0
69 1 6.228875506381641 15.591821797557007 7.326174176938131 0 0 0
120 1 7.965045178950987 17.081012722305793 8.812104144619381 0 0 0
123 1 13.908461156093013 17.10546777279042 8.88029582540679 0 0 0
79 1 18.97335805878045 15.697285531360698 7.713694783874983 0 0 0
124 1 20.580471350815845 17.15400404069551 9.14655533663642 0 0 0
313 1 3.407116115963566 18.838262080409905 6.974308513860203 0 0 0
271 1 4.531959377292027 20.60583815910777 9.226749740915709 0 0 0
363 1 9.42734401790389 18.841394650127455 7.239994753542592 0 0 0
273 1 11.027416439488217 20.479448334089895 8.918594875009806 0 0 0
198 1 15.148542221261428 18.739804779763503 7.24194273102837 0 0 0
275 1 17.18529421099737 20.1041797964036 8.577591735433517 0 0 0
283 1 18.935527391030163 21.831436593537333 7.359691771512157 0 0 0
239 1 22.248791834927168 18.894290741359185 7.438653793538378 0 0 0
276 1 23.733139661774253 20.21605691070193 9.187495093302195 0 0 0
277 1 1.3388164370644993 23.413419816682527 8.87262993307042 0 0 0
278 1 3.183628199368093 24.749385276485654 6.99922586547033 0 0 0
242 1 6.506214383078084 21.924097231924492 7.546049149038639 0 0 0
280 1 8.202558456671309 23.448904781222502 9.038326219491417 0 0 0
244 1 12.635505493856698 22.320961676185043 7.4793404439332205 0 0 0
282 1 14.247625593055075 23.632195679718656 9.133308092235035 0 0 0
284 1 20.53293974587432 23.01836991154841 8.912998158845765 0 0 0
357 1 0.0033929498365976828 21.50443430190908 13.783762760746404 0 0 0
286 1 4.522306379373676 26.272483217643213 8.734117155029072 0 0 0
294 1 6.042826431334194 28.023573781203652 7.325259141251483 0 0 0
250 1 9.427074098787871 25.137390887788314 7.165301678865332 0 0 0
289 1 11.201793988639059 26.446868753699924 8.900451151293467 0 0 0
251 1 12.841199755611681 28.118535479657318 7.623320059159517 0 0 0
253 1 15.929845833254097 25.341866077785795 7.621910470616376 0 0 0
290 1 17.805031915189282 26.770430139658828 9.202707758724884 0 0 0
298 1 19.067089450837596 28.184574841870997 7.172920226619675 0 0 0
285 1 22.251721874938983 25.051172954864178 7.540707938868174 0 0 0
292 1 23.974606956473092 26.69804901143587 8.79273733345801 0 0 0
257 1 2.937913014008136 31.369132709095588 7.180042041361147 0 0 0
293 1 1.309608746930842 29.619652263447485 8.900413693496217 0 0 0
295 1 8.118321802852355 29.586278073374856 8.939819576619975 0 0 0
301 1 9.768262033154485 31.098182777370518 7.444699782310803 0 0 0
297 1 14.26858682366641 29.755871867734747 9.068483288338706 0 0 0
303 1 15.806757843065963 31.253451403692544 7.455046145204979 0 0 0
299 1 20.795965629448187 29.587204023727438 8.855136028858887 0 0 0
391 1 3.1100392100021588 2.617696688142912 10.478381345972718 0 0 0
343 1 1.409372206036539 1.1647025752545592 12.258639584367735 0 1 0
345 1 7.667398087392807 0.7891612283153289 12.21066172995274 0 1 0
367 1 9.449676555517387 2.5147314866692336 10.493983214820796 0 0 0
304 1 13.105408587527887 31.63781807283577 10.421143497827675 0 0 0
347 1 14.32382797373949 1.39936710978549 12.17666151470759 0 1 0
388 1 16.015994800303964 2.668257098071851 10.714695218523113 0 0 0
348 1 20.581218321307567 0.9569978650442177 12.160347700874405 0 1 0
221 1 22.125178356809226 2.580354640129856 10.69195196698382 0 0 0
94 1 0.19120474047619135 5.874343577848007 10.648184209813099 0 0 0
126 1 4.408280668019066 4.466500013785334 11.844804349084622 0 0 0
86 1 6.377289849337147 5.8463981857001786 10.59065008635208 0 0 0
127 1 11.181260074974437 4.205323561898605 11.722696502324691 0 0 0
128 1 17.537573096851954 4.486177577037345 12.260873923225969 0 0 0
130 1 23.83673568587907 4.046744427255298 12.08859183793376 0 0 0
132 1 1.6597243544111469 7.679161948087077 12.04448588269035 0 0 0
95 1 3.2759536786966548 8.881791182329426 10.154313446027762 0 0 0
133 1 7.945479140482242 7.547270061162936 12.145138666711938 0 0 0
90 1 12.947017763850916 6.2268848719764724 10.851402708973225 0 0 0
134 1 14.036059821789253 7.985989490854179 12.346241971990072 0 0 0
135 1 19.00837746913134 5.998757121280959 10.5633792952016 0 0 0
136 1 20.528458365054725 7.491732087455032 12.482674758635229 0 0 0
109 1 22.211791762781488 8.9866962651054 10.801090893458253 0 0 0
110 1 0.27893407288683464 12.107233734310354 10.492257148182308 0 0 0
138 1 4.556741665343426 10.728448379230779 11.867560865032143 0 0 0
104 1 9.40209498986663 9.11229736068661 10.613946210350198 0 0 0
148 1 6.494031125617628 12.044691764875298 10.363687728491152 0 0 0
140 1 11.041427215347987 11.059817050580179 12.024513027432116 0 0 0
106 1 15.822920666444748 9.375364367357731 10.582450928299014 0 0 0
142 1 17.76154528069394 10.810043950099416 12.07775174392193 0 0 0
145 1 24.06780120857992 10.477062698502309 12.176838556835841 0 0 0
146 1 1.4540903005150636 13.953748167900786 12.0095859597659 0 0 0
149 1 7.840854775037562 13.689712513328876 12.061805012793243 0 0 0
156 1 9.36563075871549 15.185085422339466 10.617236220615482 0 0 0
141 1 12.58202956418696 12.55550023909736 10.07070073886478 0 0 0
158 1 15.596784579508462 15.35875450665541 10.692891600257665 0 0 0
150 1 14.194732129915305 13.617390495140098 12.11356476739305 0 0 0
115 1 19.046742145497777 12.690707304523416 10.7022915065304 0 0 0
151 1 20.291160871683616 13.941904827371054 12.515003997057919 0 0 0
152 1 22.192735955329187 15.180799798081027 11.014982541503677 0 0 0
131 1 0.0743461575152236 18.60088810806753 10.683557191640583 0 0 0
147 1 3.240149523604263 15.627166803620437 10.490518711708523 0 0 0
154 1 5.050245720254231 17.172223196870455 12.064406042124165 0 0 0
157 1 11.191880853155329 17.077125744006963 12.22940459527709 0 0 0
12 1 12.553540182591114 18.598592319688144 10.518203529401278 0 0 0
159 1 17.204645614702812 17.136752003298405 12.069707372330567 0 0 0
31 1 18.667379916407338 18.56343793800417 10.441664697263757 0 0 0
160 1 23.952143483378336 16.962830921914346 12.393542822693547 0 0 0
309 1 1.4528339635299363 20.129464525931056 12.34977811204798 0 0 0
342 1 6.498284582481635 18.7675537655538 10.431547999155168 0 0 0
310 1 7.9337325616867584 20.006156095821183 12.269554090586412 0 0 0
311 1 14.011913982907062 20.25489575768036 12.173577307558958 0 0 0
320 1 15.943625456739957 21.671819174826098 10.45790364818785 0 0 0
314 1 20.6156184989596 19.927981672369377 12.198942698534584 0 0 0
322 1 21.997486485603062 21.552137809962893 10.641940632809257 0 0 0
279 1 2.960136237727772 22.069162881639713 10.909245968520269 0 0 0
315 1 5.1723217925720455 23.064168354696022 12.15828277897036 0 0 0
316 1 9.399954268304787 21.872846540208634 10.77115496822427 0 0 0
281 1 6.457498063345607 24.908028570505437 10.601375302542442 0 0 0
317 1 11.116035803836187 23.23332488614333 12.341474171309068 0 0 0
321 1 17.42246998815975 23.273953557945667 12.098321626691737 0 0 0
328 1 18.980739368790704 24.849786457244058 10.695052257644589 0 0 0
323 1 23.550797624353773 22.951345432432994 12.276336878755517 0 0 0
324 1 1.4148149729534822 26.260049564137624 11.809103949117171 0 0 0
287 1 2.9103454235959 28.065617816397967 10.30862446930914 0 0 0
326 1 8.33445119916105 26.386798627810435 11.917633640223498 0 0 0
319 1 12.684522252959129 25.10180483836851 10.609537625701883 0 0 0
327 1 14.700835604761341 26.37365716651304 12.068563921500715 0 0 0
329 1 15.707297170334416 27.99917460153467 10.249239473751537 0 0 0
331 1 20.664553167687355 26.31359202998125 12.188774751226633 0 0 0
291 1 22.265806313034254 27.974110716604372 10.630603565947759 0 0 0
333 1 0.05265226016077022 31.27360050849299 10.831585158643044 0 0 0
334 1 4.605041292200328 29.575841515599436 11.828469834052424 0 0 0
296 1 6.421458949718843 31.127577427935492 10.552952079830158 0 0 0
336 1 11.632087966088852 29.843153259694134 12.175896160019432 0 0 0
288 1 10.000755121208492 28.237685781040938 10.5844985393291 0 0 0
339 1 17.390472445712284 29.82991096692996 12.21957672723128 0 0 0
306 1 19.105037887310647 31.229123672445205 10.546980969129603 0 0 0
341 1 23.679723190496734 29.508867299562574 12.327957009137396 0 0 0
365 1 4.643589902830854 1.0967830464024069 14.874846255895399 0 1 0
346 1 10.999054604606302 1.1975164672273393 14.976683376121764 0 1 0
344 1 17.58482099378215 1.2793409209015267 15.131400511000425 0 1 0
355 1 15.792263252590514 31.46837999405095 13.807694232085854 0 0 0
219 1 19.12400019368422 2.708986093411589 13.616056226309153 0 0 0
267 1 23.660225689848808 1.0572925058418938 15.45228437398293 0 1 0
340 1 22.298897411999228 31.45342313910629 13.728060120372229 0 0 0
161 1 1.2417727312240319 3.982850495484047 15.305416072489173 0 0 0
162 1 2.944381502208204 5.914850335739644 13.810605987584065 0 0 0
5 1 5.888286009135211 2.8115320820412237 13.286123070214598 0 0 0
163 1 7.72050717019427 4.104632059662054 14.982489681327753 0 0 0
169 1 9.252627611380206 5.4272347978386986 13.215277851886054 0 0 0
164 1 14.377460602369798 4.643435695923828 15.035928603780635 0 0 0
93 1 12.819089811915958 2.8505849097139664 13.778058836513203 0 0 0
166 1 20.484180653951494 3.855319415047722 15.264775067287761 0 0 0
137 1 22.111232459403297 5.533565027090157 13.659232367748585 0 0 0
168 1 4.577833269072709 7.666132721222439 15.120193128046926 0 0 0
177 1 5.961663566720664 9.082621076194739 13.45103192886729 0 0 0
171 1 10.906864930447414 7.4812047322410855 14.822826961131124 0 0 0
173 1 15.85983853693574 6.326638620455059 13.487186899272723 0 0 0
174 1 17.554783028634645 7.493208169766587 15.25686702600157 0 0 0
143 1 19.12575397231101 9.091562094759135 13.918362896607146 0 0 0
175 1 23.855435886632105 6.929971073492889 15.39374330298762 0 0 0
176 1 1.6111793305163804 10.61133025161414 15.236677055536482 0 0 0
179 1 7.500045797774144 10.786784290307256 15.008099850229726 0 0 0
172 1 12.350613416783798 9.586462154364199 13.933782446579725 0 0 0
139 1 9.470305598578113 12.241172769157375 13.85055007251096 0 0 0
180 1 14.404087061269786 11.091125095538507 15.093714512288322 0 0 0
182 1 20.964660831112734 10.772628229931913 15.458851127192494 0 0 0
226 1 -0.0014855569882260208 22.09384979792989 0.9859297877378023 0 0 0
155 1 4.771792615916808 13.68941263520583 15.278536395790566 0 0 0
178 1 3.2502597026392053 12.568188302327812 13.547777242405152 0 0 0
125 1 6.332662995148098 15.343678813079585 13.503596602900936 0 0 0
91 1 10.968321330468568 14.028485459588095 15.14681497772071 0 0 0
49 1 12.688282985135324 15.245410385089347 13.797908394555286 0 0 0
183 1 17.47897996000462 13.81803735121838 15.327220567585442 0 0 0
181 1 16.117164774221976 12.46096909149982 13.423165130341836 0 0 0
360 1 14.166399279943565 23.44568541178699 15.78742309096702 0 0 0
144 1 22.561561454526014 12.409118794280507 13.609926896296304 0 0 0
378 1 20.50109242653215 29.640054381320482 15.143235321768532 0 0 0
165 1 1.775355583884809 16.864131298565738 15.191713564409886 0 0 0
35 1 7.874787614066927 16.773084584576623 15.260406964947961 0 0 0
184 1 9.436197058266128 18.499470456237823 13.72825285252877 0 0 0
87 1 14.25159471512442 17.04818524670126 15.39007190084598 0 0 0
48 1 18.808218439962552 15.682575872019363 13.934725766062837 0 0 0
78 1 20.663571121316743 17.02039418219173 15.66538430017199 0 0 0
25 1 22.29608556650357 18.625113780769375 13.986925329039435 0 0 0
349 1 4.942677910112945 20.074543853512125 15.169412886272909 0 0 0
217 1 3.2800751287052496 18.709094066707806 13.698440801976405 0 0 0
351 1 11.17504175784575 20.158267238718793 15.330431472831956 0 0 0
353 1 17.37447475313146 20.206571952372997 15.191809660542216 0 0 0
215 1 15.739440220747834 18.703603321989966 13.546651846471258 0 0 0
361 1 18.95623139493463 21.470883292438664 13.624162016261366 0 0 0
354 1 23.93133230363294 19.870121028033743 15.407188985109723 0 0 0
356 1 1.604615390987804 23.212844083154785 15.208123150801516 0 0 0
325 1 3.063601734314146 24.758984641796147 13.511398827038738 0 0 0
359 1 8.217915019099177 23.456424020730466 15.609365278565829 0 0 0
358 1 6.7364064861583435 21.86713689252352 13.977619133720395 0 0 0
318 1 9.696146456284552 24.982963233143778 13.854661645977476 0 0 0
312 1 12.826047055783786 21.850790212747626 14.08397933893237 0 0 0
88 1 -0.015334821591223987 18.288099375630566 4.011649190771911 0 0 0
370 1 16.231643481642354 24.827682893190392 13.802758407038482 0 0 0
362 1 20.341439742409502 23.241359964517336 15.195158554461745 0 0 0
372 1 22.079185973193457 24.7706364597543 13.798322338304494 0 0 0
350 1 0.06390722879880978 27.828876578987995 13.510756984429841 0 0 0
366 1 4.431540744848826 26.482329342821735 14.931112064101555 0 0 0
335 1 6.208319957074365 27.924549817984484 13.229982067674127 0 0 0
369 1 11.482163444932038 26.733163200267015 15.160715506751039 0 0 0
371 1 17.2144559596618 26.61815349020057 15.35530266935813 0 0 0
330 1 18.72734317467574 27.999399283129954 13.535063188633261 0 0 0
373 1 23.846676157881504 26.479134428909283 15.508588642942792 0 0 0
374 1 1.430282608011335 29.573978169373177 15.05587858833603 0 0 0
332 1 3.103053612078874 31.35109710506199 13.518254128522859 0 0 0
376 1 7.769887339159768 29.684425773747947 15.002559600960957 0 0 0
337 1 9.592988567489645 31.335252284517487 13.36505539428147 0 0 0
377 1 14.358164462109219 29.95731859334726 15.554202287453064 0 0 0
338 1 13.253221799235448 28.308368337480246 13.709940302539195 0 0 0
263 1 -0.010214245689263627 28.049308317669137 7.279205081770209 0 0 0
167 1 23.737802959928644 13.882371534580127 15.656662199808677 0 0 0
785 1 0.016840907905334455 14.956056525247094 0.6899991668763085 1 1 2
907 1 0.5819963027343268 20.870950597214268 7.975565509961429 0 1 -2
895 1 0.14331995654404409 8.281623026952845 1.7198381964039717 1 -1 0
1103 1 25.00814776004081 17.682538264494994 9.768758190915385 0 2 2
614 1 1.1432205694751094 0.9193108705826313 18.157290402657026 0 1 0
234 1 3.1475438471657986 2.4305914582262806 16.45734994350186 0 0 0
616 1 7.648941300082023 1.0318477708921534 18.28713351889222 0 1 0
368 1 9.46780776314281 2.553884329197983 16.73599655159559 0 0 0
765 1 12.58058037775421 0.011344655469603934 17.05710080952084 0 1 0
618 1 14.600118010680466 1.4006723280388251 18.311668662348417 0 1 0
380 1 19.131963540893967 31.38608803451583 16.838468474447275 0 0 0
620 1 20.353649899675354 1.008173744926261 18.535885403715426 0 1 0
612 1 22.103120335841343 2.539536996023334 17.345934246826495 0 0 0
721 1 -0.0038358325855204316 28.07963461056535 26.445502073903263 0 0 0
394 1 4.617043980897778 4.11029414331045 17.814197534335797 0 0 0
153 1 6.172054445989494 5.7801609865493955 16.435792639034837 0 0 0
396 1 11.083472428577435 4.262417047188712 18.19518653731776 0 0 0
193 1 12.64328062466384 5.847634559246587 16.480346968913608 0 0 0
6 1 16.13330526401829 2.9200655900239454 16.770300306108403 0 0 0
398 1 17.665029102202574 4.4331882793821515 18.48765556634867 0 0 0
46 1 19.194129853368818 5.720967633663849 16.748402056757854 0 0 0
400 1 23.9269501496265 4.418570578714135 18.765088418518815 0 0 0
401 1 1.1944463302661608 7.322010005460867 18.464695518402557 0 0 0
404 1 7.5686639199020345 7.490111248362646 18.377103473882734 0 0 0
192 1 9.119974507075097 9.024521860428855 16.518137625772773 0 0 0
405 1 14.255603725433735 7.313372806720129 18.12341374249185 0 0 0
408 1 20.689371187377223 7.585071461152249 18.3959065910422 0 0 0
579 1 22.648576749586415 8.907808259854347 17.067845163784128 0 0 0
568 1 3.2950452712427154 9.133377710734216 17.083293338093164 0 0 0
583 1 6.240387304139014 12.222976318757675 16.98184253370382 0 0 0
409 1 4.919381502079672 10.77575416268143 18.657962917928934 0 0 0
412 1 10.786452488458629 10.53206857677669 18.226513517241884 0 0 0
26 1 16.0840695953629 9.177654154930101 16.794670651421633 0 0 0
414 1 17.38000467996092 10.771801349488975 18.459151204693747 0 0 0
466 1 19.273410664433065 12.250871629416693 16.903670137437658 0 0 0
580 1 24.92466328253072 11.967314347637236 17.036745302508223 -1 0 0
40 1 2.767163892503978 15.018045255859416 16.773137877874824 0 0 0
418 1 1.1386946520282686 13.839174772945578 18.597705842270656 0 0 0
419 1 7.785957455851127 13.784550787903438 18.722276630960756 0 0 0
187 1 12.47024819022187 12.47629892052839 16.600781380383168 0 0 0
471 1 9.429940456283605 15.252631914434412 16.90476553676315 0 0 0
421 1 14.152780215523444 13.936000488282687 18.235241108418336 0 0 0
473 1 15.920131187044325 15.409683918402276 16.999072271560657 0 0 0
423 1 20.789683311488673 13.675009969358618 18.571788311418082 0 0 0
122 1 6.019749097530891 18.34778929237116 16.791178793756416 0 0 0
426 1 4.139337298736045 16.741464190276048 18.472440490592916 0 0 0
428 1 11.194039766879474 16.81637604282529 18.32068808138238 0 0 0
572 1 12.877377127527703 18.51505291652871 17.097331783519053 0 0 0
431 1 17.75367067512303 16.98804818302917 18.663966813386374 0 0 0
194 1 18.82997731598552 18.56469144720063 16.806003368830325 0 0 0
575 1 22.06381740501579 15.500419709513094 17.204217154672726 0 0 0
433 1 23.727797013834213 17.1758496877759 18.875981668471454 0 0 0