LAMMPS data file via write_data, version 29 Oct 2020, timestep = 100000

11553 atoms
1 atom types

-0.03755165385081938 113.76773573487098 xlo xhi
-0.03129821795023702 57.301808217946096 ylo yhi
-0.03129821795023702 57.301808217946096 zlo zhi

Masses

1 18.015

Atoms # atomic

1351 1 1.6315581254803668 0.008321269578943122 1.594710154585065 0 1 0
170 1 3.390794478181312 1.8818530510296245 0.388140896774332 0 0 0
1352 1 8.028907485003458 0.010978048168041508 2.179512688616061 0 1 0
1476 1 9.47235631944995 1.5521632097438476 0.42497203943518524 0 0 0
1353 1 14.351103892384137 0.16307852020207628 1.9771642320261793 0 1 0
99 1 15.914543457832398 1.8424401296595823 0.1315334349631274 0 0 0
1355 1 20.66595744147138 0.14062952148051205 2.0852202343272577 0 1 0
1012 1 22.618782433774765 1.41700706207753 0.6003689137444972 0 0 0
1357 1 27.385563133623325 57.19340537091311 2.0997331684353076 0 0 0
85 1 28.856349529979262 1.8176742453265748 0.8358033308473741 0 0 0
1359 1 33.30921324410244 0.11009224646824489 2.006584934861975 0 1 0
338 1 35.021225624873466 1.7832477154316 0.597024483739363 0 0 0
489 1 5.07980466050256 3.402515833121563 2.0272067699060066 0 0 0
340 1 6.644036974620008 5.041424097988286 0.29004050646556795 0 0 0
490 1 11.315992869635155 3.037721146866148 1.9559363333715203 0 0 0
509 1 13.223327955632854 4.862593841259167 0.3601472916037262 0 0 0
491 1 17.644935412924607 3.198893331771198 1.8033353217750778 0 0 0
511 1 19.05229299286828 5.096405355369373 0.4286536769023459 0 0 0
493 1 24.21937341090102 3.4578384313006985 2.021469155882154 0 0 0
494 1 25.804173460440865 4.817383713423 0.3731680898818364 0 0 0
496 1 30.566375869352974 3.4596767865078943 2.2030221416415654 0 0 0
495 1 32.24375596277578 5.035305102917872 0.9159789142863716 0 0 0
498 1 36.62073843696049 3.5920108537463427 2.190296621426709 0 0 0
504 1 1.5852355069026716 6.332459196517794 2.202846271002336 0 0 0
3110 1 35.01358467995123 52.40983335469277 25.58524716872772 0 0 0
506 1 3.2821587878048324 7.9859296635835975 0.7513727925907396 0 0 0
507 1 8.150491957762553 6.4435051704355235 1.8620866927556061 0 0 0
525 1 9.371522598834254 8.182110935722964 0.42755990970093566 0 0 0
510 1 14.539817119002112 6.254241383129268 2.0740111943144957 0 0 0
358 1 15.860513935783 8.275865306385288 0.6541651319214572 0 0 0
512 1 20.75488546299453 6.3433100740097155 2.320093279135544 0 0 0
359 1 22.45835958506334 7.784227799715246 0.8552889146536758 0 0 0
513 1 26.987972576193233 6.444878636302968 2.2781260868176645 0 0 0
514 1 28.790447899303473 7.8776816515830435 0.5613336140339721 0 0 0
515 1 33.60313829648869 6.828448209702573 2.5381964249565048 0 0 0
365 1 35.28299883595103 8.08172263160166 0.35952362170796104 0 0 0
540 1 0.09827321676209308 11.43577650823428 0.6152079221504051 0 0 0
543 1 6.150499344333267 11.214639615239538 0.4718741811084194 0 0 0
524 1 4.893687063884064 9.432224854336933 2.340514278115556 0 0 0
390 1 12.390615273794449 11.504518730259267 0.11770373489507868 0 0 0
526 1 11.070730585152166 10.026517974399784 2.0499890019708746 0 0 0
528 1 17.594405529018378 9.604854826594282 2.1911454565565016 0 0 0
529 1 19.340202717467278 11.285239009758856 0.5590964876598323 0 0 0
530 1 24.049745055692732 9.255089922125277 2.31485728518972 0 0 0
551 1 25.391582267815345 11.002639882719823 0.286105807494738 0 0 0
531 1 29.970418882202377 9.756685772531574 2.0266135605638986 0 0 0
378 1 32.014367921750875 11.040438878804363 0.16662667841688522 0 0 0
533 1 36.492798445748456 9.910433739847615 2.265168327719388 0 0 0
541 1 1.7890378056273109 12.767162347689636 2.1910630208494246 0 0 0
403 1 3.082368450405808 14.484084784373314 0.6980050635369095 0 0 0
405 1 9.33400676714067 14.538348981334487 0.2352932175525156 0 0 0
544 1 7.752620870166247 12.961587852445932 1.9239910757184975 0 0 0
546 1 13.8272251170557 12.863286915065187 2.067262125642163 0 0 0
548 1 15.736484858752204 14.535684330388788 0.6728391849519497 0 0 0
549 1 21.072571074631146 12.759948272105367 2.3497538747074294 0 0 0
550 1 22.410962288533423 14.21249970813101 0.20094300281041474 0 0 0
553 1 28.178021389203998 14.35404952377739 0.46393746778134803 0 0 0
552 1 26.510677054943514 12.859029152951269 2.0927100128648384 0 0 0
555 1 33.54027481062513 12.684285197274656 1.774729763555001 0 0 0
4663 1 0.18614648629246883 10.622507497925186 6.967708612499633 1 1 0
11318 1 1.2465472470885293 13.05431350358243 18.03225072100247 1 -1 1
566 1 5.9566632790929805 17.51288918628355 0.30432858067041363 0 0 0
565 1 4.461317485198108 16.06486967495243 2.2336105488003786 0 0 0
567 1 10.815206555734637 16.15237229914263 1.8254146569248748 0 0 0
568 1 12.645049593735274 17.896073887163485 0.4713319576287055 0 0 0
569 1 17.52038240641182 15.998489434443798 1.6106812847694618 0 0 0
571 1 23.750569495636782 15.861025151210733 1.6425586529643934 0 0 0
422 1 25.225827602482063 17.494284945997784 0.31107490578512426 0 0 0
572 1 30.170158858404285 15.632576346477322 1.909480548785866 0 0 0
426 1 31.77274686758988 17.486465633462448 0.3296503004008469 0 0 0
576 1 36.32346105770871 16.05336733674578 1.5445370988808786 0 0 0
584 1 1.4241767954541733 19.530257945797338 1.921277078149275 0 0 0
435 1 3.334304593562816 20.918314662417437 0.5123957082335842 0 0 0
586 1 7.681136975810301 19.177493049811495 2.3013159749406773 0 0 0
587 1 9.304428235051885 20.76224667445055 0.3740457082201187 0 0 0
588 1 14.414701761606972 19.34050479343482 2.024978602782507 0 0 0
408 1 19.230434404618073 18.166545380993036 0.534671615395986 0 0 0
590 1 20.71426049791454 19.152701770935067 2.2672305598932927 0 0 0
421 1 22.298234778271464 20.860163144808006 0.6991821570876229 0 0 0
591 1 26.75472615569367 18.980961783869116 1.945984060932163 0 0 0
593 1 28.5309492816175 20.655129331442403 0.08448186079016475 0 0 0
594 1 33.274503878060685 19.051042154970002 1.633037816554105 0 0 0
445 1 34.76784089273346 20.884662475625536 0.4463806123325613 0 0 0
604 1 4.643389351709993 22.554089435451043 2.2496619531683693 0 0 0
606 1 10.823088696044046 22.632545130465118 1.5858293215565797 0 0 0
626 1 13.042588894811683 23.962637461512116 0.13506061028680627 0 0 0
589 1 15.994017364026135 20.991584872253945 0.46417846770188514 0 0 0
607 1 17.547498103690472 22.290944561233736 2.1339834408164697 0 0 0
610 1 23.902627558834336 22.389585331584872 2.165839614218176 0 0 0
612 1 30.180836027314136 22.267264705946275 1.7113605368856661 0 0 0
616 1 31.928640390342345 23.835830955364965 0.4088347023421135 0 0 0
614 1 36.763037426245845 22.518613581430433 2.0648263194803707 0 0 0
603 1 0.028019702603919686 24.340861228312725 0.43807202631677783 0 0 0
621 1 1.809604130489439 25.81586729768241 1.9924106470843541 0 0 0
453 1 6.246145713762474 24.022849957657836 0.33466109646883724 0 0 0
624 1 7.973214510689811 25.78570951086157 1.794412819634126 0 0 0
627 1 14.3904771112364 25.671094667788115 1.7382516407623294 0 0 0
441 1 19.01850976970793 24.0624646855567 0.47898687022168895 0 0 0
620 1 20.323951554264173 26.103358995384614 1.8962861956442842 0 0 0
442 1 25.45575777875765 23.984191367912125 0.5743036993951742 0 0 0
618 1 27.038409615045076 25.644982840013906 2.0837941741995705 0 0 0
615 1 33.795014026760725 25.438136296044785 2.046483804184082 0 0 0
623 1 3.465005333418926 27.337779530814416 0.2483525244575983 0 0 0
602 1 4.821401402402946 28.681254475431608 2.1930075426506406 0 0 0
625 1 9.746983563028296 27.29889206237707 0.154317022654125 0 0 0
600 1 11.204626792463731 29.006934012501553 1.7381021210592762 0 0 0
628 1 16.18203286785482 27.231969265880892 0.09138438745987722 0 0 0
598 1 17.45137265700252 29.06902682672976 1.8221237933249204 0 0 0
619 1 22.288803796858083 27.020295089510157 0.3715701286470415 0 0 0
596 1 23.585323693137294 28.96144896018477 1.7823947743641329 0 0 0
483 1 28.87814399334581 27.10828065106099 0.5775393230702097 0 0 0
582 1 30.825494657198696 28.469595468324147 1.954160900429506 0 0 0
581 1 35.17834112504349 27.350666885792467 0.5520141163541129 0 0 0
580 1 36.78625052795609 29.11740397299495 1.8971221998979029 0 0 0
1267 1 1.5677081507278798 31.676978236847408 1.8032237239138698 0 0 0
150 1 6.124321284970957 30.053722476311755 0.10880634510119591 0 0 0
1268 1 7.3003671490705635 31.7032951645803 2.101035538397739 0 0 0
160 1 12.95863365881425 30.245930164303996 0.010309224662414143 0 0 0
1269 1 13.927512670796622 32.23532411013487 1.5493997682391791 0 0 0
1039 1 19.15978504860204 30.663670207235526 0.5322982127310396 0 0 0
1270 1 20.28453203619599 32.11054173988641 2.1534298492197106 0 0 0
1172 1 25.563953224893126 30.55734763531143 0.5018794143819024 0 0 0
1273 1 27.11767497416887 31.869585479397934 2.418530240708163 0 0 0
350 1 31.947626111258014 30.264373886966325 0.3390115925451982 0 0 0
1274 1 33.62277079832862 31.904376167407882 1.9218837124984607 0 0 0
1161 1 3.164991041493658 33.688085583335216 0.40807810886081597 0 0 0
1277 1 4.7006509342306995 35.12110667083 2.27078067233839 0 0 0
1175 1 9.314173019078208 33.28673866097267 0.5699853202623325 0 0 0
1279 1 10.956769016033176 34.974432758884745 1.886857665655003 0 0 0
1164 1 15.8389236157725 33.88039335426639 0.035001834653701214 0 0 0
1280 1 17.26917165791259 35.375236422893416 2.023794774861278 0 0 0
1281 1 22.211257516382776 33.545075965840375 0.6991947482564818 0 0 0
1282 1 23.92297137906696 35.10811614934482 2.439098598669018 0 0 0
1168 1 28.446492698742013 33.74862095291954 0.7448202863620924 0 0 0
1284 1 30.339206778126503 35.27659695764617 2.1917717654201794 0 0 0
1182 1 34.99870111264213 33.68330997972543 0.4911360484698686 0 0 0
1286 1 36.75780991150771 34.888665262972495 2.1645588472911204 0 0 0
1184 1 0.18053740615259145 36.67264370095599 0.5544175449490473 0 0 0
1287 1 1.8271233693325304 38.235083575360534 2.3705053364107345 0 0 0
1186 1 6.462458857342653 36.76646771028944 0.6414682499669216 0 0 0
1289 1 8.036011328398827 38.302712712669006 2.359845397888145 0 0 0
1291 1 12.376115296369115 36.74586563624516 0.37795306375821697 0 0 0
1292 1 13.938731103988408 38.30340882627759 2.091607398514002 0 0 0
1293 1 18.869139633206956 37.192301607811864 0.30489070218672 0 0 0
1294 1 20.52073491834863 38.54220269335188 2.4859679880355126 0 0 0
1179 1 25.351428953041303 36.6612213678363 0.47922418536421996 0 0 0
1295 1 27.362865010433044 38.252100168412746 1.7114189661494446 0 0 0
1181 1 31.81892191749967 36.67497071847532 0.5289809444662448 0 0 0
1299 1 33.46851178217102 38.344109375980814 2.0150649869520807 0 0 0
1196 1 3.0902478248281238 39.838991011874725 0.7173592137328046 0 0 0
1300 1 4.639244865766282 41.58402311380981 2.3660291851894852 0 0 0
1199 1 9.025812756950483 39.791184778160854 0.5074861555490091 0 0 0
1301 1 10.66470647903571 41.68232860457114 2.105658097443683 0 0 0
1302 1 15.545913302495713 39.87651395414206 0.563501337220148 0 0 0
1303 1 17.47415987967916 41.49229962222767 1.8150529655096728 0 0 0
1190 1 22.45747345136975 39.89537486712221 0.977626970253832 0 0 0
1304 1 24.389216666233462 41.564866344427465 2.144530820847794 0 0 0
1305 1 28.955897394538955 39.86627353958958 0.4807986110697754 0 0 0
1306 1 30.27632880877846 41.895429325344324 1.8637637081214202 0 0 0
1298 1 34.91598205085009 39.84460283744305 0.5005239278636691 0 0 0
1308 1 36.763854830128686 41.48368407027906 1.8237669326299102 0 0 0
1206 1 0.0586222931250817 43.09543662159173 0.8304825722494921 0 0 0
1309 1 1.599721801415221 44.91142283875062 2.426393662590298 0 0 0
1198 1 5.7978505587838285 43.17168596166231 0.375026177058745 0 0 0
1310 1 7.654845684116535 44.931482126499944 2.190441065294774 0 0 0
1211 1 12.498877026875213 42.99174734571801 0.6375227525270203 0 0 0
1311 1 14.428525150791796 44.688078071572015 1.6364667880477712 0 0 0
1313 1 19.271453210075656 43.28951360047436 0.3719395676093336 0 0 0
1314 1 21.052447783354225 44.93836752367776 1.8184430820314093 0 0 0
1214 1 25.32966067786558 43.354111174186144 0.4877794967622986 0 0 0
1316 1 27.178991394793687 44.746521369040316 1.8071316130415604 0 0 0
1317 1 32.132716253888304 43.09180603293218 0.255047740077789 0 0 0
1318 1 33.563797291963844 44.67200516445244 1.908913941025754 0 0 0
1208 1 3.1048624120352026 46.47467734922901 0.5175345624837994 0 0 0
1319 1 4.508762075755872 48.05335406822516 2.385738487947215 0 0 0
1220 1 9.358462259090386 46.35514742098428 0.40819635057930737 0 0 0
1320 1 10.951735273140336 47.95573852070807 1.9584711124321983 0 0 0
1312 1 15.882166653612968 46.26452693714243 0.2872574366384557 0 0 0
1321 1 17.50164229317624 47.660279006562156 1.9864612943940902 0 0 0
1323 1 22.38699763038932 46.51762254266611 0.23216569368806678 0 0 0
1324 1 24.078625993746638 47.93800264115828 1.935662923634411 0 0 0
1325 1 29.12369126708062 46.41854581110013 0.5354754589966456 0 0 0
1326 1 30.31745424970291 47.81895248651922 2.357648681143865 0 0 0
1228 1 35.23418973385533 46.21914740594881 0.4109483883868871 0 0 0
1328 1 36.966506489405624 47.73861892070084 2.2203207293931584 0 0 0
1232 1 6.246708301373829 49.5940493918174 0.68162841206886 0 0 0
1331 1 7.801058834917996 51.031070708082325 2.2383694944978583 0 0 0
1332 1 12.81300463379083 49.43593235488781 0.43691651827833106 0 0 0
1237 1 18.90493605395989 49.39807871943265 0.39719374501718696 0 0 0
1334 1 20.580613665605245 50.82601215850656 2.0137264550213554 0 0 0
1241 1 25.636031530725468 49.65722775961828 0.5964942012775261 0 0 0
1227 1 31.611981464527844 49.55571776811593 0.4595950078957875 0 0 0
1338 1 33.37114279139169 50.607872828595404 1.928785748912406 0 0 0
1329 1 1.2597720876953133 51.33565633523285 1.933986802090948 0 0 0
1330 1 3.0310014395272344 52.69362197237953 0.2686300303604396 0 0 0
1339 1 4.502673229156288 53.93780545432749 2.0863438759411577 0 0 0
1341 1 9.587104479409941 52.65947654419124 0.38531480152443986 0 0 0
1342 1 11.310984100089554 54.13833647342239 2.2151100465045515 0 0 0
1333 1 14.523281301465332 51.13253674297281 1.7481961216472621 0 0 0
1236 1 15.895337799553586 52.78800882131461 0.26399508758765916 0 0 0
1335 1 22.409557024425652 52.443354454505595 0.502596376746498 0 0 0
1336 1 27.247206968700162 51.17920172258219 2.180606996397894 0 0 0
1348 1 28.808297217155896 52.50543424297863 0.4461779248705323 0 0 0
1349 1 30.416181320330843 54.06107878785561 2.3739837221293376 0 0 0
1337 1 34.973939475221485 52.45454616224105 0.3435581226522731 0 0 0
1350 1 36.53552590412758 53.904366192124435 2.2142089207933133 0 0 0
3093 1 29.741472652592947 54.210667103328255 27.438923777020122 0 0 0
1340 1 6.123213771128387 55.563797789448124 0.3249026674045291 0 0 0
1343 1 12.549903425485953 55.715824592868266 0.4334181755457852 0 0 0
1345 1 17.350373235319257 54.26205645990189 1.9320492491286334 0 0 0
1252 1 19.037573212502476 55.872514659133046 0.4991026949861367 0 0 0
1347 1 23.70874115665503 54.49425555580791 2.3118459521814736 0 0 0
1356 1 25.55464042445878 55.78345837156934 0.6989303173058801 0 0 0
1263 1 31.722591735244276 55.97749240142959 0.5307859602854502 0 0 0
1373 1 0.2029390268430115 1.6916254159266046 3.3338905497670535 0 0 0
1459 1 4.843018592467307 0.043581752843170035 5.099468413238323 0 1 0
146 1 6.579124308742326 1.7107364187846914 3.8239369547465425 0 0 0
1461 1 11.064049429832464 0.026524671679802374 5.40953452335972 0 1 0
1003 1 12.709578002538143 1.514315033219829 3.8483595492158065 0 0 0
969 1 18.749133329404415 1.669505527677412 3.650319064294728 0 0 0
1463 1 17.47760969297447 57.24565153892072 5.20711005624653 0 0 0
1467 1 24.062097601232338 57.229616251971336 5.323422829053035 0 0 0
1583 1 25.599716613928756 1.337435472670822 3.3041851957942234 0 0 0
1469 1 30.19294931048182 0.11925591038553712 5.329492341154582 0 1 0
1579 1 31.758348369900453 1.551513546561467 3.8139929780318735 0 0 0
1471 1 36.79714300731953 57.276778239122 5.124234382393366 0 0 0
564 1 1.5348388162382758 3.3557874706135418 5.293302022964499 0 0 0
505 1 3.2615279759287543 4.894669378785753 3.7454583760427473 0 0 0
562 1 8.010496724590752 3.6407555941163916 5.117468263974701 0 0 0
508 1 9.622904247140962 5.2093599268785535 3.6543892804266567 0 0 0
561 1 14.474762799092824 3.4526717034345253 5.1959017489380255 0 0 0
520 1 16.205255710210228 4.994202105480246 3.6201069729076867 0 0 0
560 1 20.754908096745204 2.965773277279019 4.9722874161923 0 0 0
518 1 22.285373643484572 4.718444139530203 3.880314171855039 0 0 0
558 1 27.125762069750788 2.892342622349164 5.158329826307053 0 0 0
516 1 28.908786710299772 4.953106243691508 4.13581904166971 0 0 0
539 1 33.366354143473245 3.3556071515802968 5.352042082470883 0 0 0
538 1 35.34370678332447 5.018533498580883 3.8570603770334695 0 0 0
463 1 0.1905470559369038 7.998057741175293 3.8849069676683516 0 0 0
534 1 4.980343359427931 6.3486881457681585 5.34602835108373 0 0 0
488 1 6.513388483538839 7.791324071997724 3.592938713318761 0 0 0
522 1 11.195462365829293 6.665345233310459 5.289563299921057 0 0 0
527 1 12.67765804710193 7.967731223491679 3.548294140907167 0 0 0
519 1 17.461279549553698 6.8058293104815775 5.380800769737298 0 0 0
470 1 19.14857967626175 7.97904246890786 3.846369035645883 0 0 0
517 1 23.60881190886209 6.014929130903856 5.947252004255616 0 0 0
467 1 25.393402443913057 7.661249352517635 4.191701490289352 0 0 0
503 1 30.280721710498774 6.499898634298952 5.590404654078086 0 0 0
532 1 31.75048844295805 8.348496169148419 3.9228404685607026 0 0 0
500 1 36.74168905373806 6.606092964154102 5.5528890001319215 0 0 0
497 1 1.8481362125890899 9.62611638677952 5.3274014006592205 0 0 0
542 1 3.283265747257597 11.236770495958568 3.8687024687922653 0 0 0
545 1 9.135815064876441 11.359409548883809 3.5417232549528728 0 0 0
487 1 7.889312028009901 9.68053148706005 5.258295603092075 0 0 0
477 1 14.224842379075278 9.683277963936582 5.091525364910686 0 0 0
471 1 15.66368084204423 11.291322516632823 3.533625166851439 0 0 0
469 1 20.597611130972034 9.893010141574933 5.366654545269374 0 0 0
468 1 22.59207780018752 11.231182188846887 3.9536523782477673 0 0 0
554 1 28.205571516192357 11.396339721440206 3.5982719665625016 0 0 0
466 1 26.899761348472808 9.722331925397503 5.160984278496861 0 0 0
464 1 33.54594955598989 9.358714122597792 5.435195214579548 0 0 0
556 1 34.77422301349364 11.247178413540317 3.894884037160392 0 0 0
461 1 0.3459782736673195 14.398028017555454 3.9440812484927625 0 0 0
429 1 6.142388580733454 14.35739662167666 3.5020053405706784 0 0 0
450 1 4.9090782299128115 12.92383663176313 5.2736781230101935 0 0 0
547 1 12.06310875528931 14.334022199975244 3.557759549377021 0 0 0
449 1 10.909832693685141 12.40686036256923 5.108890555706 0 0 0
448 1 17.48726069298987 12.820952476805536 5.088278372128714 0 0 0
447 1 18.970249593908783 14.40780875840115 3.406867429734314 0 0 0
446 1 24.02190325722174 13.19301730676839 5.674818705038447 0 0 0
400 1 25.264221913941803 14.6361422667418 3.7194241858890975 0 0 0
433 1 30.13979645253099 12.436524936441874 5.159108687531626 0 0 0
397 1 31.781724131254528 13.952788677505541 3.7391306573384133 0 0 0
575 1 37.58404258649635 14.38926432179445 3.2042378509280143 0 0 0
432 1 36.248396362758534 12.95664204675052 5.320730838595344 0 0 0
431 1 1.7504827291197074 16.159616931872332 5.413718191503982 0 0 0
585 1 3.056850221422236 17.830355216022703 3.650626235248745 0 0 0
427 1 7.931261219487986 15.725778651881694 5.208576967157343 0 0 0
383 1 9.381649332187468 17.523043001842122 3.816024255952592 0 0 0
414 1 13.847999882087802 16.211920131330658 5.086832886482758 0 0 0
570 1 15.874773548495376 17.412770318252946 3.502634943099399 0 0 0
412 1 20.858019311798966 15.559215878898184 5.144081842380565 0 0 0
371 1 22.532517089322347 17.455062495624166 3.6978608740839958 0 0 0
399 1 27.233191767599934 16.289224881559043 5.160774809546145 0 0 0
398 1 28.833399765810064 17.628455747388834 3.3924933559392643 0 0 0
385 1 33.31309863389917 15.940107109437115 5.096563708298788 0 0 0
574 1 34.723640674847694 17.44124237261315 3.270668596196009 0 0 0
384 1 4.396320892706528 19.138363457787595 5.344013094713827 0 0 0
605 1 5.866063994774116 20.783219391585416 3.7998578677491675 0 0 0
382 1 10.632122053874797 19.34065562077736 5.011103779038119 0 0 0
381 1 17.676527923470918 18.808745217028367 5.169461490089066 0 0 0
609 1 18.97973987176981 20.943765351264574 3.8217162472448964 0 0 0
370 1 23.839321094276826 19.357144093663234 5.2360411004681895 0 0 0
592 1 25.45801484872997 20.662337050602254 3.584922158728147 0 0 0
369 1 30.417616665429183 19.166799698698657 4.953683824909567 0 0 0
368 1 31.94095043023544 20.735932277961616 3.3284122670187664 0 0 0
367 1 36.621198032608085 18.915997603809117 5.183643877256137 0 0 0
329 1 0.06290861842373138 21.007575314276092 3.6999251479380217 0 0 0
352 1 1.4166545717379453 22.725798426199365 5.396891383263368 0 0 0
351 1 7.6769577095827 22.482951940142964 5.165780950156516 0 0 0
348 1 12.435118731530364 21.30336994649488 3.345814799886396 0 0 0
347 1 14.438148554228853 22.65975079012234 5.050935606063468 0 0 0
335 1 20.54885761856223 22.710154331394875 5.248447856011828 0 0 0
334 1 27.356699921352646 22.06971755651781 4.997307216119824 0 0 0
297 1 28.754858360795588 23.834638552302955 3.42089314336143 0 0 0
332 1 33.438782542291285 22.43685383568591 5.321039837966927 0 0 0
613 1 35.16765855927892 23.8961952735462 3.6692891776652323 0 0 0
328 1 2.830852796755789 24.327781641999696 3.8595122962673956 0 0 0
325 1 4.733348861178145 25.285980380617886 5.403514975161045 0 0 0
313 1 9.46285886119291 23.99865253229559 3.4988702746506095 0 0 0
312 1 11.33107402640545 25.578502008147705 4.899570177415753 0 0 0
608 1 16.115093990631514 24.134488417710454 3.4810591287563746 0 0 0
311 1 17.217439412081898 25.99943891166106 5.654526044614379 0 0 0
611 1 21.95326425927654 24.306237079548918 3.55419362094278 0 0 0
298 1 23.674458776865748 25.59609745760295 5.3504746903245675 0 0 0
296 1 30.447943469295147 25.578174935260794 5.225237988720504 0 0 0
293 1 36.86726878239264 25.630408621528627 5.436719003686146 0 0 0
622 1 0.18628509431441834 27.343262232147094 4.0083123961477725 0 0 0
280 1 1.8988506337897566 28.904344860443423 5.212616040383028 0 0 0
279 1 6.126903702896296 27.115032376191664 3.741941088584987 0 0 0
278 1 7.8953512364176675 28.621613590924248 5.077574792406536 0 0 0
277 1 12.808887013443023 27.326131080853532 3.1229719337293274 0 0 0
264 1 14.129907865455047 28.705070482157037 4.942584406440981 0 0 0
597 1 18.69201352957622 27.43843061300408 3.8588683162442297 0 0 0
262 1 20.4281587555165 28.792489318149332 5.6097946272221675 0 0 0
617 1 25.30660542522925 27.18085059665903 3.727555459241481 0 0 0
261 1 27.08456978268899 28.585575498902923 4.93952428089178 0 0 0
295 1 32.2844039284791 26.994816893190706 3.6630749030769656 0 0 0
259 1 33.35458067613574 28.866132369925428 5.212539099532515 0 0 0
88 1 3.2825814319191 30.168839624369188 3.533760746591066 0 0 0
1361 1 5.115705754758097 32.125079959693814 5.1618664682227795 0 0 0
55 1 9.267294979018065 30.323839506272087 3.2959607201227272 0 0 0
1363 1 10.913931482256901 31.629675766895474 5.098918556213618 0 0 0
996 1 15.584138838542444 30.822188583271252 3.1584046803390637 0 0 0
1365 1 16.900957679119248 32.47698541113795 5.074175773662235 0 0 0
1265 1 22.21613776558219 30.449894847430855 3.9783510304270857 0 0 0
1366 1 23.873996906289264 31.633737352762665 5.778237090789065 0 0 0
599 1 29.077684179749376 30.1341944695584 3.702042063648905 0 0 0
1369 1 30.334165485387512 31.986569534692975 5.289701844052881 0 0 0
101 1 35.005107188509285 30.327276131465428 3.7604633509855763 0 0 0
1370 1 36.685220788744004 31.648388275276446 5.466797727627252 0 0 0
1276 1 0.2131266666712714 33.15467988383496 3.6813477299580555 0 0 0
1374 1 1.6349350962286586 35.10250312116652 5.220397429520257 0 0 0
1278 1 6.455955572891215 33.648532984218456 3.721539630806653 0 0 0
1375 1 7.927927617059009 35.18208320364513 5.376985814588262 0 0 0
1378 1 12.241374402456414 33.4537884116756 3.533300255763736 0 0 0
1379 1 14.192830984830762 35.10751554247598 5.075602327407593 0 0 0
1271 1 18.81992516767491 34.07135784023735 3.7108233486296873 0 0 0
1381 1 20.537408611408665 35.28645019721453 5.725997719525969 0 0 0
1283 1 25.40086470619544 33.2768700993587 3.8892674970947225 0 0 0
1383 1 26.85446378557925 35.149064568411006 5.259389609368869 0 0 0
1368 1 31.8593293232517 33.405714962515795 3.3332174529224647 0 0 0
1384 1 33.564529732999944 34.7360779769302 5.030897058704041 0 0 0
6511 1 1.1082516798206452 40.83266923082878 28.290940058089667 1 -1 1
1288 1 3.518483309641906 36.65892019502459 4.122356481585753 0 0 0
1387 1 4.776425151882862 38.426646226295915 5.537065268736009 0 0 0
1290 1 9.83078838134403 36.72536603990023 3.631945070740665 0 0 0
1388 1 11.049876442530614 38.28324792757678 5.418311766549865 0 0 0
1389 1 15.491887417914544 36.920324153838685 3.817004122885758 0 0 0
1390 1 17.355418353810247 38.360464973752585 5.471178917886733 0 0 0
1382 1 22.00343545281944 36.78301297188336 3.8267226921902213 0 0 0
1392 1 23.8755147024223 38.36018193872466 5.133321437597794 0 0 0
1393 1 28.67356898124804 36.7592509026751 3.746746020522555 0 0 0
1394 1 30.420875883668064 38.19674406943399 5.191456647418092 0 0 0
1285 1 35.000269235234505 36.58556930156711 3.780287165320282 0 0 0
1395 1 36.67777245385878 38.19083606653666 5.171107573681935 0 0 0
1385 1 0.16612288415183846 40.18437674793054 3.6420414347095353 0 0 0
1396 1 1.7248732634560164 41.51925495256257 5.459055531217615 0 0 0
1386 1 6.619902077883884 40.08891097113056 3.93632230126561 0 0 0
1400 1 8.035150902580634 41.77825032198404 5.599999075916911 0 0 0
1401 1 12.290860602694478 40.0462820475434 3.9283045967393173 0 0 0
1402 1 14.409046751154184 41.43345110025379 5.332076523667061 0 0 0
1391 1 18.913147971654762 40.1441418415941 3.7300514722662226 0 0 0
1404 1 20.70385927602851 41.5776310396697 5.154388000947468 0 0 0
1296 1 25.767617070941736 39.73324335523441 3.624792763900964 0 0 0
1406 1 27.465249464968483 41.68340350553202 5.597187313859489 0 0 0
1297 1 31.631329942412943 39.833866980125 3.2005348307552475 0 0 0
1408 1 33.39910087822148 41.29802980009952 5.124042517138514 0 0 0
1397 1 3.154852160419838 43.27757095386963 4.051336820091889 0 0 0
1410 1 4.618044328679808 44.70450120327072 5.501837763255112 0 0 0
1412 1 9.272712550307533 43.58092339682099 3.667690237368893 0 0 0
1413 1 11.118546850620378 44.70288321828667 5.288714847114078 0 0 0
1415 1 15.872082088432178 43.21186819883508 3.3110134468654264 0 0 0
1416 1 17.641009040033 44.675348227498056 5.017645686809712 0 0 0
1315 1 22.409739735770845 42.97183950710098 3.39413100575925 0 0 0
1417 1 23.93276706874329 44.56091722790146 5.261340534082347 0 0 0
1419 1 28.712796013815318 43.240504858595045 3.668056841519599 0 0 0
1420 1 30.13262565509058 44.81098510530872 5.255655508935081 0 0 0
1307 1 35.10892528369216 42.915751612190185 3.7019153007207475 0 0 0
1421 1 36.43530423582634 44.546529534192096 5.528166868470723 0 0 0
1423 1 1.582509857203699 47.99284225677421 5.249495466264869 0 0 0
1411 1 6.1098433125448075 46.265307895838916 3.790508310984111 0 0 0
1424 1 7.670183064057522 47.88943077069047 5.444766371049778 0 0 0
1414 1 12.684334202027298 46.228394152660464 3.304017193938519 0 0 0
1425 1 14.530765056799794 47.86190588583297 4.8501352772986825 0 0 0
1426 1 19.031843413218446 46.31598336201644 3.4994438416445512 0 0 0
1427 1 20.913554395501457 47.79716655143924 4.973739099453397 0 0 0
1429 1 25.61545290633755 46.293788203197366 3.5406377211095212 0 0 0
1430 1 27.184038519109947 47.72180705225838 5.325126577639405 0 0 0
1327 1 31.959641034630533 46.12233336905192 3.702430029120281 0 0 0
1432 1 33.44187978851135 47.870670046546195 5.368039920037569 0 0 0
1422 1 2.8153412058327545 49.92428853180681 3.7822610640140986 0 0 0
1433 1 4.657002469476933 51.114421316968574 5.405043402016887 0 0 0
1436 1 9.419141204275814 49.17844296333948 3.726744890808133 0 0 0
1437 1 11.220168619343776 50.61631832226926 5.184850081302261 0 0 0
1322 1 16.166637067422815 49.57737410591586 3.4801841088776033 0 0 0
1440 1 22.349677522551843 49.31078394179348 3.397680783400199 0 0 0
1441 1 23.796327987838275 50.943259167417835 4.956486683804849 0 0 0
1443 1 28.65122177925957 49.30299680966004 3.7641207354254047 0 0 0
1444 1 30.10639790995771 50.91322976871546 5.378652815296179 0 0 0
1445 1 35.23711974743457 49.320808805587774 3.8407705142110644 0 0 0
1446 1 36.610898210351195 51.02335937655998 5.5134141372933385 0 0 0
1447 1 0.1363123167709552 52.880058667439975 3.828812762131036 0 0 0
1435 1 6.257575800061503 52.58572232050705 3.8313311942422126 0 0 0
1344 1 12.890014342914972 52.33730926236667 3.5199714409832112 0 0 0
1450 1 14.156325003487753 54.09498309548373 5.059131844691416 0 0 0
1438 1 17.601756851922126 51.276032309585396 4.94525176554506 0 0 0
1346 1 19.006250031681148 52.64084412637988 3.2472326954569777 0 0 0
1452 1 20.445127071226892 54.03378631211292 4.769667551543048 0 0 0
1442 1 25.354906296114343 52.511196855016536 3.577474616598931 0 0 0
1454 1 26.778357112246603 54.08980877690292 5.408792478182223 0 0 0
1456 1 32.032716690014986 52.325536840991745 3.9783396502618995 0 0 0
1448 1 1.8304826834611587 54.28321989921095 5.468921183687322 0 0 0
1458 1 3.1815009909896377 55.68557252382573 3.4606822277102056 0 0 0
1449 1 7.685658659751307 54.53821884444669 5.615472166459117 0 0 0
1460 1 9.515209633814463 55.978665332621716 3.98716533057292 0 0 0
1451 1 15.902311042260976 55.82694556230509 3.5346828348492467 0 0 0
1465 1 22.251026295058175 55.84106802697579 3.989861923632204 0 0 0
1358 1 28.66313253921268 55.5176501920776 3.8994286404415655 0 0 0
1457 1 33.55602139877868 54.30102999656992 5.285755513191528 0 0 0
1470 1 34.98956139509213 55.796243811166946 3.4961705254381497 0 0 0
1540 1 1.7527795945569957 0.14424169334752934 8.502238585157498 0 1 0
1497 1 3.2178255375071503 1.6648647849743639 6.742234455557448 0 0 0
1526 1 8.26818169220751 0.24819583751341218 8.30782905922288 0 1 0
344 1 9.66918276570831 1.8759396668074693 6.680885671221522 0 0 0
1481 1 14.06951890876081 57.25634722809525 8.201751625955431 0 0 0
1152 1 16.084344907903102 1.6972701797541205 6.819116274970234 0 0 0