LAMMPS data file via write_data, version 29 Oct 2020, timestep = 200000

4608 atoms
1 atom types

-0.08001256227404596 57.35052256227411 xlo xhi
-0.07112227757689027 50.978242277576925 ylo yhi
-0.07112227757689027 50.978242277576925 zlo zhi

Masses

1 18.015

Atoms # atomic

5 1 1.9468998907264932 1.539445730594565 1.328788139540218 0 0 0
766 1 14.150836813139529 49.970064335793644 23.924269066422177 0 0 0
3 1 3.1523019549912057 0.13292122729884207 3.3373095660845054 0 0 0
13 1 7.76906002876479 1.7172078570496994 1.7054515885614288 0 0 0
18 1 12.86173888394678 2.9973251166216253 3.6588186606165465 0 0 0
21 1 14.369045858387993 1.5400058317782666 1.8397015226045783 0 0 0
554 1 0.1779066221014154 47.60572717519032 15.73530396110651 0 0 0
8 1 4.588512806157276 4.912091936606295 1.5793375159893492 0 0 0
849 1 6.197366295663403 19.111654916378978 25.359300463826443 0 0 0
10 1 6.168325617390825 3.4536692242290337 3.3234578428857673 0 0 0
16 1 11.126274794094266 4.358976878210524 1.5919537872823781 0 0 0
24 1 17.34623062080072 4.812211604543162 1.4010209475325301 0 0 0
29 1 1.5326335118458576 8.144407249406052 1.3540018607583015 0 0 0
27 1 2.959180703661967 6.6867860512738355 2.9266810543081774 0 0 0
37 1 8.418120328833199 8.10761054544998 1.66420656655269 0 0 0
35 1 9.46540883432088 5.967858569371829 3.1056685080995434 0 0 0
45 1 14.424620410419157 8.138339495831593 1.3756590637001895 0 0 0
43 1 15.971512917841608 6.585971984079771 3.0351762387850716 0 0 0
578 1 -0.05354617002581108 3.115706188194317 22.235607114972314 0 0 0
32 1 4.74562883492699 11.166658699296766 1.4678315053257815 0 0 0
34 1 6.396219181884268 9.579036130380272 3.123709145204175 0 0 0
40 1 10.996242813319975 11.431380388335407 1.50016875836704 0 0 0
48 1 17.615501014721506 11.121338774716548 1.4402265505301828 0 0 0
26 1 0.021637841069374303 9.652012577102639 3.2782996395824764 0 0 0
53 1 1.508420729177563 14.244115972565758 1.4968753682902731 0 0 0
61 1 7.902637330188698 14.398478104517523 1.3658465499902068 0 0 0
69 1 14.20401708901667 14.583260254725332 1.6157121903073581 0 0 0
674 1 0.4617403177478203 28.41883591539504 22.15510461135594 0 0 0
67 1 16.039226038008817 12.419162875770539 3.244336303428958 0 0 0
265 1 0.11827658636398916 19.37610313471208 6.126675439254512 0 0 0
56 1 4.722913927219278 18.174214826042114 1.5356326168844836 0 0 0
1633 1 18.823147883351375 25.234481880953588 0.12614689997691436 0 0 0
64 1 11.121552712811804 17.720289772055484 1.403265961732687 0 0 0
66 1 13.030780704172416 16.34127662774684 3.1697599823151354 0 0 0
72 1 17.302557408359846 17.734451245926927 1.68213315270368 0 0 0
77 1 1.8071397275942551 21.19051781152116 1.6875690529608416 0 0 0
85 1 7.923569581007856 20.836885576503963 1.6715996050496331 0 0 0
625 1 0.2893021677466218 12.460866861518882 19.08346494565758 0 0 0
91 1 15.640441623409812 19.447900227813 3.021993354758784 0 0 0
170 1 0.03622521646283296 47.81783790602028 3.3320972075364583 0 0 0
80 1 4.987146713631804 24.17709484066531 1.1855616174200496 0 0 0
90 1 12.945295964022343 22.530944120465648 3.064698737603757 0 0 0
93 1 14.003475758856027 20.606442706008572 1.2445641630808053 0 0 0
876 1 9.478699742970605 28.53462184374208 25.1726502391703 0 0 0
99 1 3.279635925281637 25.253560750168482 2.9598299059888054 0 0 0
109 1 8.275969286799786 27.322982108727555 1.6922730989523012 0 0 0
107 1 9.5425750469478 25.67009686697308 3.5148632275629 0 0 0
410 1 0.3463787119457057 9.529576922875671 15.943425652599565 0 0 0
88 1 11.124491981680244 24.279657825193254 1.7232848416781825 0 0 0
337 1 -0.059684544078621116 38.50886351040543 6.402505654384449 0 0 0
117 1 14.15780329243126 27.245680092724797 1.6027229818266036 0 0 0
96 1 17.276166059276427 23.457362604782276 1.6778797118673718 0 0 0
101 1 1.706011876415288 27.07737553277816 1.6582220515492552 0 0 0
106 1 6.579826422442856 28.59890178105075 3.59939495731888 0 0 0
953 1 12.493450167051426 44.47131521909886 25.387337349676503 0 0 0
123 1 3.1639053736317586 31.529371922290768 3.8884502288898264 0 0 0
104 1 4.639540500910942 30.115097745235 2.15025525005955 0 0 0
112 1 11.372909120189203 30.472811429783935 1.785125197242019 0 0 0
131 1 9.728677599135167 31.71451664072276 3.546665698389685 0 0 0
139 1 16.07012424202467 31.780500897923456 2.613840294448505 0 0 0
52 1 3.337500163915786 16.01613729075791 0.3770066401363031 0 0 0
120 1 17.561760545313618 30.120251959242495 1.2439106311446018 0 0 0
137 1 12.766621070884534 31.872308379280405 0.18688281501331244 0 0 0
125 1 1.6809001306114864 32.63785023305785 1.7125674381405525 0 0 0
130 1 6.353611515456418 35.026277192338 3.2309490829342304 0 0 0
133 1 7.940782753298821 33.2290336281516 1.7236533658682287 0 0 0
138 1 12.632243691505787 34.9246866089555 2.940749737848771 0 0 0
141 1 14.520394464204038 33.716585611809535 1.3498838352539801 0 0 0
98 1 -0.012242174736855613 28.55448592423072 3.220030976211042 0 0 0
147 1 2.9359477259078264 38.49415535901898 2.778255557619814 0 0 0
128 1 4.783090855788279 36.69674516126506 1.5314488120850014 0 0 0
155 1 9.358428315949439 38.45503660883035 2.9415654948720436 0 0 0
136 1 11.147378063490462 36.76778011419811 1.723059481780667 0 0 0
163 1 15.958530205982154 38.55439641198484 3.2124528753086024 0 0 0
144 1 17.504088065495264 37.192491295370495 1.2822116603933162 0 0 0
149 1 1.3615912253718645 40.153399795038354 1.3645945810136235 0 0 0
154 1 6.363624732957748 41.45954111065828 3.2126206018786645 0 0 0
157 1 8.093311909545166 40.034063467617116 1.145813160912592 0 0 0
844 1 3.034742551407512 22.319308733940368 25.22745898925372 0 0 0
165 1 14.35215762242367 39.86590645214328 1.4969599976304748 0 0 0
162 1 12.798979949260165 41.27519271504004 3.266999080944046 0 0 0
152 1 4.73750173070009 43.03649525958935 1.579651386284417 0 0 0
129 1 6.018280240234835 31.877416166245112 0.38166802729116284 0 0 0
160 1 11.06033486362786 42.5325180939095 1.3302698972167133 0 0 0
187 1 16.229167922874627 44.63933996334286 3.015610873765465 0 0 0
168 1 17.987137116560685 42.999589858694804 1.4417461192878687 0 0 0
758 1 7.7298898589531015 49.4548648404601 24.2166782769195 0 0 0
173 1 1.5776470790691286 45.99002899183711 1.6160932392835599 0 0 0
698 1 0.24169466745566714 34.91776467133949 22.546327171022753 0 0 0
181 1 7.76002667378629 46.042401882697575 1.4266758678319305 0 0 0
189 1 14.187240294085251 46.070504420576036 1.2577496017462924 0 0 0
290 1 0.06589209845493843 29.060296861281063 9.635861887459232 0 0 0
750 1 0.9671634870493182 49.46495502936731 24.207543105299763 0 0 0
176 1 4.659759908355927 49.71862111122911 1.7220313592247873 0 0 0
184 1 10.750651902999811 49.33070048294324 1.7666720666096254 0 0 0
873 1 6.174403955780117 25.30153478500629 25.35650404583318 0 0 0
192 1 17.555317820420232 49.3709075863146 1.6685670106629795 0 0 0
7 1 4.776578326960465 1.8658284384766393 4.872387230919266 0 0 0
15 1 11.062499303423403 1.393344627646547 5.075128443352982 0 0 0
23 1 17.63455704699523 1.5498448560191276 4.878335531852368 0 0 0
6 1 1.4611185222324428 4.875812726674205 4.403105862176401 0 0 0
196 1 3.008015482716026 3.372272858744444 6.286908499475486 0 0 0
14 1 7.736714126155097 4.655854144818522 5.145334717339422 0 0 0
22 1 14.499405664071155 4.883277377791505 4.737317977024048 0 0 0
212 1 16.0051097616327 3.0100967119815794 6.364842774605997 0 0 0
767 1 17.46052429741072 46.374432334012845 23.949121156367 0 0 0
31 1 4.711659176016616 7.866960185495272 4.580884619748128 0 0 0
225 1 6.355340459544846 6.3029891270952545 6.613013713802834 0 0 0
39 1 11.071478741444624 7.918576658628392 4.184393941502621 0 0 0
233 1 12.540502679161817 6.174641956991804 6.191757901978455 0 0 0
47 1 17.75134162817063 7.973113965285414 4.709903172643825 0 0 0
30 1 1.3094771495084214 11.188923978288635 4.953245163036408 0 0 0
220 1 3.109320117263331 9.396117288770409 6.046817571899868 0 0 0
38 1 8.01587253141135 11.12520421149594 4.666640621059821 0 0 0
42 1 12.579470638216048 9.75187843776793 2.856776310591003 0 0 0
46 1 14.264219111775335 10.869955434068643 4.601580155744839 0 0 0
236 1 15.877925325784688 9.329032145357074 6.511917848883689 0 0 0
51 1 2.9612133399276317 12.337937438966298 2.932965348876067 0 0 0
55 1 5.0252690585038025 13.935854331861552 4.507103514736801 0 0 0
249 1 6.654096515482456 12.526213776400903 6.486982863125838 0 0 0
59 1 9.457801620519133 12.837008327611294 3.257039747734199 0 0 0
63 1 11.449758368602751 14.285362787563926 4.66596826310488 0 0 0
257 1 12.617504232355106 12.55592428796071 6.157283175515301 0 0 0
71 1 17.527605987899136 14.19496408346664 4.8369349078559285 0 0 0
54 1 1.660389127487668 17.393610978145574 4.971316399949588 0 0 0
50 1 0.3328611137040157 16.077778206338543 3.191489407685708 0 0 0
58 1 6.165857889445693 15.844027091612329 2.7184567643861945 0 0 0
62 1 7.927292260822501 17.17027380673646 4.756151014534707 0 0 0
70 1 14.337805398274964 17.776519755231977 4.845782335704188 0 0 0
260 1 15.749614790704427 15.839237581464664 6.2684554413593725 0 0 0
75 1 2.8956844958377093 19.148095730626565 3.2154010168127494 0 0 0
79 1 4.38473937976847 20.674159772276514 4.956088819081991 0 0 0
273 1 6.6059393984179335 19.26863323243082 5.65602261492396 0 0 0
83 1 9.833396162434404 19.087351122381214 3.4414622430929365 0 0 0
95 1 17.49507485622376 20.683612035925698 4.996594611987706 0 0 0
841 1 0.27640352934425383 19.14348737284011 25.384864729821537 0 0 0
268 1 2.918948826691826 22.425798397978443 6.4219982864763425 0 0 0
82 1 6.056741401972812 22.3956990287159 3.0924364382244507 0 0 0
86 1 7.358357356777986 24.113975435510067 4.622566933309092 0 0 0
87 1 11.492184125172558 21.07623196586517 4.798153226518974 0 0 0
482 1 0.2231845353480137 28.755108977193764 15.67055088591184 0 0 0
78 1 1.6292382484529446 23.869475590523653 4.69705403307377 0 0 0
297 1 6.335588648792036 25.39595712343744 6.852519162443725 0 0 0
305 1 12.611045545201453 25.237279200952557 6.172513391800784 0 0 0
94 1 14.46976846729479 23.689268180136622 4.84057066356335 0 0 0
115 1 15.852565243165282 25.39105106101045 3.10457523211869 0 0 0
103 1 4.665403397014199 26.90990723178811 4.798706486932991 0 0 0
300 1 9.393712474677237 28.750437149349352 6.8933707800182535 0 0 0
111 1 11.17197093099667 27.392179245325465 5.089156706553835 0 0 0
114 1 12.972233042676203 28.92355302244205 3.248817367261436 0 0 0
119 1 17.45436413135216 26.94202403770872 4.657321962394291 0 0 0
102 1 1.1418425642965566 30.04427310728505 5.160450619427461 0 0 0
1609 1 19.058470083666954 19.153038553937026 -0.028823867115165144 0 0 0
110 1 8.046435813868543 30.36592666691203 5.229471894949947 0 0 0
321 1 6.3952382501508165 32.20392177891969 6.512296997481096 0 0 0
329 1 13.150436694806869 31.60120031877554 6.2866779202416625 0 0 0
118 1 15.011912605053265 30.22648562093453 4.702871169393554 0 0 0
316 1 2.9127226637639168 35.21817105229903 6.009446373568197 0 0 0
127 1 4.734618254323824 33.58971927854627 4.875331297844973 0 0 0
324 1 9.54059618230189 35.2054523435297 6.17431911943393 0 0 0
135 1 11.085739811883785 33.533291438124365 4.895142125489007 0 0 0
143 1 17.495948217566145 33.425673630242514 4.160573752026857 0 0 0
332 1 15.70085393446038 34.950023454623334 6.072494387858249 0 0 0
126 1 1.4630666128488952 36.8960455845031 4.468546515357987 0 0 0
345 1 6.252681064139188 38.47540872729069 6.1067507205996066 0 0 0
134 1 7.741702802943871 36.71690747856463 4.649717436094082 0 0 0
353 1 12.879640995368037 38.00404232238205 6.408631816092224 0 0 0
142 1 14.285125982428156 36.611232208842665 4.589646726644598 0 0 0
151 1 4.5888122937671785 40.0089840872046 4.440917878566733 0 0 0
159 1 11.19430378872519 39.80602120330194 4.85340104339072 0 0 0
356 1 16.030958523374597 41.23987804478875 6.311756089731909 0 0 0
167 1 17.80045366872891 39.76994342606021 4.764964401229626 0 0 0
150 1 1.092163598807798 43.31734589861367 4.779429766164199 0 0 0
171 1 3.1565166373276856 44.28817222849752 3.4036404384629635 0 0 0
697 1 0.27733613667281765 31.986739576723778 18.906471901563826 0 0 0
158 1 8.1315569280769 42.89524716652159 4.678117318585396 0 0 0
179 1 9.522400058524457 44.43404476023853 2.960379059367185 0 0 0
377 1 12.94611825552279 44.53867822294781 5.728467942273915 0 0 0
166 1 14.51195958663153 43.05110522905802 4.5752621632809305 0 0 0
364 1 3.1028564372393053 47.88665007922348 6.3938119743231905 0 0 0
175 1 4.561964185627516 46.27403751043634 4.791902428479284 0 0 0
178 1 6.305005532540386 47.77169463065987 3.22870737545486 0 0 0
183 1 10.923391320979919 46.25488595755702 4.656185055801505 0 0 0
186 1 12.454979083157298 47.620541749444364 2.903522688834018 0 0 0
191 1 17.780089580171474 46.13105758920556 5.035537671575695 0 0 0
380 1 15.681046856618167 47.63874998117634 6.3609738955522985 0 0 0
174 1 1.690560145216644 49.62656190587549 4.959732459231193 0 0 0
182 1 7.906504295065152 49.38949504523252 5.096552123797631 0 0 0
201 1 5.946469651177585 -0.05442197074280883 6.477962018727418 0 0 0
11 1 9.2629939496797 50.91726781989774 3.3404121581947184 0 -1 0
190 1 14.388177089591164 49.45847006856399 4.510169935324734 0 0 0
19 1 16.04721894285811 50.870970600434525 3.193248306432896 0 -1 0
759 1 10.93412746558859 46.52993733087528 23.762878319447758 0 0 0
197 1 1.5210697235208337 1.788427938866754 8.150079333217027 0 0 0
202 1 6.22833256496729 3.376187865568807 9.667350609538397 0 0 0
205 1 7.575152496185343 1.4725296217776214 8.276943801205185 0 0 0
213 1 14.338023483492277 1.491402718154708 8.09873661023677 0 0 0
200 1 4.654983227886791 4.827007348388817 8.180386488543151 0 0 0
204 1 9.350470191463204 2.9823595853405713 6.662489977418039 0 0 0
208 1 11.35627605099728 4.889438015091802 7.9058371950039295 0 0 0
216 1 17.836951392804263 4.426064179918564 7.978885612660681 0 0 0
221 1 1.6279427786951364 7.788389163436268 7.918875758331495 0 0 0
9 1 6.36826197449356 0.11439719308963442 0.22406445613627246 0 0 0
219 1 3.208209281633158 6.384552353361725 9.704275989109066 0 0 0
229 1 8.148135700817829 7.899732986455302 7.99848052366416 0 0 0
237 1 14.067975543836601 7.612962973765955 7.932283392278341 0 0 0
235 1 15.905796492934712 6.215192913745494 9.402660224195603 0 0 0
224 1 4.698661409882545 10.976349960834323 7.649141456529858 0 0 0
226 1 6.246039680572347 9.517869142819746 9.323800172427838 0 0 0
228 1 9.358367642550911 9.278885302013473 5.976307780780866 0 0 0
232 1 10.88423166252446 10.797151187497686 7.692665630499506 0 0 0
234 1 12.804218759429249 9.507522793320005 9.312599515897915 0 0 0
240 1 17.41483097377762 11.190027811311532 8.01724567899884 0 0 0
245 1 1.2074534670422783 14.523017481806347 7.908514432714319 0 0 0
253 1 8.027594545223693 14.30879773887618 7.885525369714599 0 0 0
261 1 14.122031195319495 14.008515344953818 8.080931489453613 0 0 0
73 1 0.19300873140623476 19.318555022656348 0.31316361227468337 0 0 0
751 1 4.458006560558254 46.03864297053758 23.981088255508308 0 0 0
244 1 3.48607665845318 15.365810850286957 6.3069667801604385 0 0 0
248 1 4.730298562043219 17.928455868146553 7.175507485985431 0 0 0
250 1 5.880757051108694 16.173208726866466 8.978708881067671 0 0 0
252 1 9.653301501273832 15.722676972391108 6.278208522632494 0 0 0
256 1 11.029125151718304 17.281178220360808 7.984843382921953 0 0 0
264 1 17.35829753996426 17.184389022845473 8.037995089319779 0 0 0
763 1 16.08851928083306 44.9658040550179 21.9567711585357 0 0 0
267 1 2.9489552757564814 18.869831812110597 9.527538591153036 0 0 0
275 1 8.865429790761356 19.21252087740649 9.408427825063612 0 0 0
281 1 12.724123360798075 19.177418451853146 6.376429705589612 0 0 0
285 1 14.351712906564446 20.926208995207315 7.883325201692051 0 0 0
742 1 14.295915104519231 43.517027629417925 23.50044940181255 0 0 0
269 1 1.6449548903646176 20.804251589682153 8.066170793538243 0 0 0
272 1 4.475275644994917 23.786444250926955 8.24450544010219 0 0 0
277 1 7.6860594473658725 20.945855357084266 7.3890370635161675 0 0 0
276 1 9.497162124094213 22.69396376819198 6.23900318591657 0 0 0
280 1 10.974576539196297 24.070183156989927 7.827210243994748 0 0 0
284 1 16.086479526126418 22.38851894866018 6.542920662834645 0 0 0
293 1 1.6668780822095246 27.325454173429733 8.056919502956239 0 0 0
291 1 3.0913731386425254 25.6437285095822 9.684886418007661 0 0 0
301 1 7.784349194103532 27.204368653081833 8.303370592818366 0 0 0
299 1 9.27826180813338 25.222260482638035 9.616135964512427 0 0 0
288 1 17.373902240324938 23.737296017846013 8.269328485430567 0 0 0
892 1 3.4020253466453547 34.88896687602522 25.38525793115666 0 0 0
292 1 3.4537460255593517 28.770912039856917 6.336240653485264 0 0 0
298 1 6.137907987604839 28.815431093976514 9.708124640709249 0 0 0
309 1 14.149254727799311 27.00494158906779 7.8715758012163235 0 0 0
308 1 16.04920542465102 28.584254581247865 6.4186057125612335 0 0 0
315 1 3.100605091769797 31.91760499439487 9.743326377449982 0 0 0
296 1 4.876419376626945 30.617549287786904 7.913729545474833 0 0 0
323 1 9.609741346688399 32.276879739561416 9.590097336715214 0 0 0
304 1 11.203301829380075 30.546043348335168 8.106728385577703 0 0 0
312 1 17.667280522373993 30.262381157757964 7.645202842846796 0 0 0
331 1 15.813271578519071 31.658732114087858 9.170720968757845 0 0 0
317 1 1.7427601221495603 33.73376339879848 8.166743158240093 0 0 0
322 1 5.872336246277254 35.374902116747016 9.686999759128117 0 0 0
325 1 7.839776191747981 34.034715294402424 8.12980437030501 0 0 0
330 1 12.86452797809577 35.11707824746118 9.778013493857422 0 0 0
333 1 14.296733288008376 33.46448726186485 8.039562051615256 0 0 0
320 1 4.805191912486604 37.00196424396901 7.671259744247984 0 0 0
347 1 9.628105621863963 38.35196690566874 9.293992727076851 0 0 0
328 1 11.367864731588565 36.60151518615769 7.932317503334277 0 0 0
355 1 16.026294903089443 38.09095202160364 9.116449982865738 0 0 0
336 1 17.609637662497935 36.26258166285452 7.39652544041434 0 0 0
734 1 7.868825153741013 43.15500842965695 23.767967515728806 0 0 0
341 1 1.3003061950611154 40.31242241127506 7.73808408722048 0 0 0
340 1 2.863926602765063 41.649766542437206 5.908743928588648 0 0 0
346 1 6.17300701806128 41.54186116366369 9.50759078405531 0 0 0
348 1 9.735014921945114 41.43843185297468 6.339156900796333 0 0 0
349 1 7.978433221194301 39.85563327655764 7.731648721935239 0 0 0
354 1 12.618297379964316 41.30220368116003 9.321995188219738 0 0 0
357 1 14.456734926608018 39.65396282713745 7.749904726980783 0 0 0
363 1 2.727561421132977 44.661166001867194 9.40891039120052 0 0 0
344 1 4.392548575479973 42.85508129471249 7.906007310654971 0 0 0
369 1 6.135813915059911 44.58335694658762 6.289157465196938 0 0 0
352 1 11.275106866876662 43.18472151054447 7.614818363846862 0 0 0
360 1 17.498741310061707 42.908067871577536 7.983109815218677 0 0 0
379 1 15.85375189381526 44.639783070302585 9.124064488494055 0 0 0
365 1 1.0768934645520016 46.43716731840721 7.978627613035808 0 0 0
373 1 7.652247868358892 46.00074066835645 8.262248157100041 0 0 0
372 1 9.31431935414156 47.51412164584479 6.4205317539277935 0 0 0
381 1 14.036084358532204 46.292776841957284 7.63240773599675 0 0 0
195 1 2.9572375183308863 -0.0047474917657126525 9.762809160951575 0 0 0
368 1 4.551882017652842 49.46758853396628 8.287200725927446 0 0 0
209 1 12.888611345561547 50.83842897207127 6.3192941537785625 0 -1 0
376 1 10.973595701793089 49.53818544619496 7.775382094424762 0 0 0
384 1 17.39242994005766 49.180319552670845 8.069954217350036 0 0 0
199 1 4.596582253332576 1.606416366649047 11.231388627649045 0 0 0
393 1 6.13052543927266 0.23300554030685133 12.776692893903526 0 0 0
207 1 10.886716596567615 1.4041702727542698 11.078446396171948 0 0 0
215 1 17.42413465523337 1.4597503068187854 11.11012882448822 0 0 0
198 1 1.461671826502341 4.747181184138115 10.803010384750982 0 0 0
388 1 2.864069480831724 3.3675626624145254 12.615231923022076 0 0 0
206 1 7.906761916517449 5.005521497110553 11.30069515957025 0 0 0
210 1 12.865617150595602 3.389930943497618 9.903463049572956 0 0 0
214 1 14.589135341031557 4.573736418470045 11.178226932473091 0 0 0
404 1 16.337260595608708 3.3822255794766223 12.649521316272395 0 0 0
726 1 1.3594850354027561 42.65973877842262 23.61463075912818 0 0 0
223 1 4.633265906918637 8.223399016818547 11.169738683661635 0 0 0
417 1 6.223053177684676 6.797544170861024 12.645211775782142 0 0 0
227 1 9.7297358139497 6.413604585095577 9.661406682339633 0 0 0
231 1 11.357553779486569 8.201186402780623 11.163368181428385 0 0 0
425 1 12.933704499035086 6.290665764870837 12.464877493877632 0 0 0
239 1 17.548861197307353 7.864165159128121 11.084276596522141 0 0 0
2 1 0.12282931957955426 2.9421990182933544 2.8465516110213827 0 0 0
222 1 1.5088928402392772 11.290924782469814 10.909582891214658 0 0 0
230 1 7.938352159476619 11.437414595388512 10.892411300263547 0 0 0
420 1 9.546073300645752 9.710762580943248 12.645097604303054 0 0 0
238 1 14.158650475208548 11.200363120888895 11.202054895376861 0 0 0
428 1 15.92444456959807 9.538297435334353 12.737037614213387 0 0 0
932 1 15.85346088237348 41.68824501001376 24.90045719705803 0 0 0
243 1 2.861061214537452 12.77662722667747 9.274440927171705 0 0 0
247 1 4.258891181992719 14.82857897381553 10.861380439880621 0 0 0
251 1 9.904166227249567 12.906323132243307 9.496390685052198 0 0 0
255 1 11.085006962236394 14.326283123607793 11.515505451386584 0 0 0
449 1 12.645774980783322 12.739875814466265 13.134877096075309 0 0 0
259 1 15.866456636286944 12.658192516118275 9.74037146300962 0 0 0
263 1 17.537652172259765 14.444646906172686 11.212008268638526 0 0 0
246 1 1.079476374369793 17.777635641430887 11.110573677383032 0 0 0
436 1 2.6185608850981024 16.287511592328574 12.795130324962065 0 0 0
254 1 7.387358683148483 17.64578167820792 11.172916426137876 0 0 0
444 1 9.310144459040664 16.25130340065549 12.606728516245004 0 0 0
258 1 12.487704349448125 15.834741257359921 9.723466232711269 0 0 0
262 1 14.214528152438254 17.56184573444866 10.920694632913385 0 0 0
529 1 0.08547210611617681 38.390695848940446 12.37189419949497 0 0 0
271 1 4.405355480779678 20.48047544418999 11.123779713352745 0 0 0
279 1 10.74159262114142 20.753839942739294 10.88268020552037 0 0 0
473 1 12.711450428217487 19.551209916039554 12.361061761954794 0 0 0
283 1 15.919557996122352 19.184035643243774 9.271258280217745 0 0 0
274 1 6.13330453415168 21.93176162000468 9.509146588684064 0 0 0
278 1 7.616404359593409 23.804292313193546 11.121195982739248 0 0 0
282 1 12.678640135849616 22.59503352626812 9.473163010731914 0 0 0
287 1 17.461501572923083 20.712812132486903 10.899470359910286 0 0 0
270 1 1.1661664943736914 24.03322640139802 11.241049248637506 0 0 0
295 1 4.861191391096666 26.975833939899648 11.169068197067231 0 0 0
489 1 6.254808798783932 25.192010878131633 12.98086160878799 0 0 0
307 1 15.843784855990735 25.551162609978896 9.577247772576426 0 0 0
286 1 14.087652664689942 24.36436518162738 11.128108960105253 0 0 0
484 1 3.1410742649360603 28.93930391082761 12.486711296331235 0 0 0
492 1 9.433153940209118 28.78027294184785 12.908293173689662 0 0 0
306 1 12.435200328394455 28.611297705355913 9.547974982022422 0 0 0
303 1 10.768128762493891 27.09559828305802 11.27411945152614 0 0 0
500 1 15.949361179544137 28.721470875868032 12.403999210615021 0 0 0
311 1 17.57662104596146 27.153504071239688 10.668794022375428 0 0 0
294 1 1.506589625246023 30.583476144376807 11.233297120997392 0 0 0
513 1 6.464514718917277 32.13928562970842 12.558736481207962 0 0 0
302 1 8.210607505220013 30.551434788544338 10.885397727380107 0 0 0
521 1 12.776229269156074 32.11089733593858 12.74151574978313 0 0 0
310 1 14.164494663179916 30.1432859569929 10.92794049842336 0 0 0
319 1 4.317952951051332 33.66763985348828 11.322288021904669 0 0 0
508 1 2.9543552188053073 35.30767776912276 12.709425050209195 0 0 0
516 1 9.557059297294515 35.22803553821611 12.517048054151662 0 0 0
327 1 11.159755476746525 33.66788026288396 11.208757870687034 0 0 0
524 1 15.986966768332731 35.085150364976265 13.035423718503493 0 0 0
335 1 17.536898432440523 33.43473873852063 10.603841991986354 0 0 0
743 1 17.83539592371068 39.99910115590204 23.67424521219279 0 0 0
339 1 3.2151042892161144 38.782441342186424 9.327728279216755 0 0 0
318 1 1.8482776079435148 36.99407935759453 10.876397102231367 0 0 0
537 1 6.3673240808615175 38.59208804098198 12.547046694933147 0 0 0
326 1 7.800554409947138 37.073600162764215 10.969724283057559 0 0 0
545 1 12.959951937204861 38.244980751979675 12.314979333576895 0 0 0
334 1 14.59764764594273 36.692600082190744 11.03009798508136 0 0 0
532 1 2.8740999974531563 41.81936336133821 13.141683014120295 0 0 0
343 1 4.307559196186361 40.21173568158205 11.297961535735192 0 0 0
351 1 10.982069977032612 40.021325168498315 11.271141988439249 0 0 0
359 1 17.5627994032601 39.812150795530904 10.911150302639461 0 0 0
548 1 15.843697304467234 41.49522348176608 12.685946698253497 0 0 0
342 1 1.3269086283146048 43.021463982606576 11.209996473998093 0 0 0
561 1 6.1357631581503265 44.880324649734845 12.668008067490872 0 0 0
371 1 9.383709116564455 44.29334282936562 9.498330109769539 0 0 0
350 1 7.615942145868858 43.1129659273879 11.12941607778083 0 0 0
358 1 14.482995683506788 43.0018548057698 11.049961806874336 0 0 0
370 1 6.18430463857114 47.84940817812037 9.907259276682131 0 0 0
367 1 4.310570508447567 46.22828301565212 11.313135076233054 0 0 0
375 1 10.771568733542749 46.07389799950301 10.969115028525056 0 0 0
378 1 12.278966248225489 47.61410266829768 9.342008751525332 0 0 0
383 1 17.059962606407655 46.182650273891376 11.001700701076551 0 0 0
366 1 1.5171916151145284 49.32089630797453 11.333249148086452 0 0 0
374 1 7.881773717521805 49.67905874821067 11.440122927186282 0 0 0
203 1 9.30913596946843 50.972967619757576 9.350769692472998 0 -1 0
382 1 13.858320685766966 49.530826827594986 11.063074734968103 0 0 0
211 1 15.934427198552694 50.78627574534811 9.615396908966211 0 -1 0
389 1 1.664538683633903 1.3782932129696432 14.1630390609882 0 0 0
387 1 3.1261034079611103 0.08214702201103377 16.153591774840873 0 0 0
397 1 7.756233231331675 1.7868269520414928 14.668948462596225 0 0 0
395 1 9.169691487380398 0.09624366695859177 16.191472006205544 0 0 0
401 1 12.389401034138197 0.19756670846779262 12.991890985335582 0 0 0
405 1 14.343277368352116 1.9014285258919277 14.180646684803763 0 0 0
392 1 4.6243656201985015 5.192044513582649 14.012789602017031 0 0 0
394 1 6.376754274470183 3.550484290221227 16.257127066398276 0 0 0
396 1 9.403499337881938 3.140288332042629 12.613460660579094 0 0 0
400 1 11.07261478177943 4.824766884948357 14.109760153569777 0 0 0
402 1 12.270490862673462 3.1120475980439926 15.893414384879367 0 0 0
408 1 17.348349801131558 4.991824493756451 14.671546827689259 0 0 0
413 1 1.3696392593645408 7.8349496716594915 14.183314838164748 0 0 0
411 1 2.9829318522308115 6.237302592672038 16.10499905013946 0 0 0
421 1 7.990651489933182 8.089622880403072 14.329832426864973 0 0 0
419 1 9.634444996488781 6.590533407346741 15.854915123655529 0 0 0
429 1 14.420019641902933 7.841824713656478 14.381857997907952 0 0 0
427 1 15.900358204086467 6.648420955682401 16.57599309182566 0 0 0
412 1 2.9053682647893617 9.741299442502369 12.724194468601015 0 0 0
416 1 4.619734796557232 11.437560975707655 14.087980744762396 0 0 0
418 1 6.144556514097501 9.69025745647007 15.63105094548589 0 0 0
424 1 10.904623672394234 11.248167687288305 14.814556347687834 0 0 0
426 1 12.809932418956418 9.4935179876212 15.811556788038134 0 0 0
432 1 17.491560369068313 11.392016463502006 14.375856198564042 0 0 0
738 1 12.540817025057866 41.8741911355502 22.031372957621013 0 0 0
437 1 1.523099254141311 14.341147731039495 14.495829897646384 0 0 0
435 1 3.1213429458451176 12.788767728795019 15.886546985010234 0 0 0
441 1 6.091137337693209 13.324741858102263 12.44259730911022 0 0 0
445 1 7.794529643059459 14.643908987626245 14.201834497790015 0 0 0
443 1 9.080434916505569 12.824467042543008 15.931007114426148 0 0 0
453 1 14.550546474992105 14.671874259340132 14.662654858154264 0 0 0
451 1 15.746532090243537 12.611132114116538 16.13463716954073 0 0 0
440 1 4.201789539426741 17.980183871098433 14.190344446290357 0 0 0
442 1 6.1583985738946145 16.197780230688288 15.837411804206617 0 0 0
448 1 11.238566149438542 18.074390320923523 14.230760455116565 0 0 0
452 1 16.116782443722077 15.987716916579355 12.82329697277473 0 0 0
456 1 17.596552897313934 17.499421440211062 14.261272822539208 0 0 0
465 1 6.200006932983913 19.471471985115166 12.652219150190144 0 0 0
469 1 8.132203348634135 20.853192572944803 14.628558166835042 0 0 0
477 1 14.67362761711688 20.5540964954818 13.92434217598616 0 0 0
475 1 16.037150661340046 19.104875090352085 15.793103557918448 0 0 0
17 1 12.653284546033122 50.97740651102059 0.46332741303337743 0 -1 0
461 1 0.9577339320592 21.18269251137919 14.597165524362113 0 0 0
460 1 2.9029820631833942 22.292627000596738 12.671598229663905 0 0 0
468 1 9.277403134374666 22.41480621813529 12.605619734775885 0 0 0
474 1 12.895442587725938 22.001318285437534 15.61966589034245 0 0 0
476 1 15.599812418367433 22.405395701820776 12.224212092830951 0 0 0
485 1 1.9498445420321895 27.02788556130377 14.064801504175522 0 0 0
464 1 4.563147646295729 23.78888952092219 14.381026113489956 0 0 0
483 1 3.115751140751209 25.44287953718764 16.108445490880307 0 0 0
497 1 12.520669143944303 25.69606278687871 12.845319450323608 0 0 0
472 1 10.856662750187823 23.87005130332033 14.417831055260116 0 0 0
480 1 17.11295122040382 23.92970977374003 14.17010974803796 0 0 0
499 1 15.768228748730024 25.95044785812217 15.835745363940312 0 0 0
929 1 13.134665784604612 38.31957677969101 25.253129869266704 0 0 0
493 1 7.682861260833406 27.206801260110996 14.323880724713007 0 0 0
490 1 6.0771751550781135 28.939617549738887 15.7087756780958 0 0 0
498 1 12.7985040119949 29.16963455834651 15.706984366490548 0 0 0
501 1 14.27195545613654 27.622531274757005 14.058178738482397 0 0 0
488 1 4.727921488734349 30.57686291556365 14.063123626580104 0 0 0
507 1 3.236060437141088 32.05105860646369 15.730875291315309 0 0 0
496 1 11.151633181810173 30.366846873081723 14.223884216958089 0 0 0