LAMMPS data file via write_data, version 29 Oct 2020, timestep = 100000

8551 atoms
1 atom types

-0.25180783662653994 104.44789399764099 xlo xhi
-0.3450972771660723 51.39446183231994 ylo yhi
-0.3450972771660723 51.39446183231994 zlo zhi

Masses

1 18.015

Atoms # atomic

479 1 5.861173778370576 1.2147481340371256 0.0959140957133498 0 0 0
1976 1 12.501879908930317 0.25694279554852084 25.517538405283595 0 0 0
842 1 19.00915038912779 1.363599606681846 -0.18911587017968262 0 0 0
2044 1 15.454235918555213 36.3282709170164 25.52046348237776 0 0 0
1264 1 26.976079810576284 2.5579526102264856 1.2095291230125327 0 0 0
1338 1 31.551472446399103 1.230177091153463 -0.08971354505922902 0 0 0
577 1 2.7782628609284035 4.418803218566565 -0.08342624705975843 0 0 0
571 1 1.3981472277812705 2.6973519193569215 1.6193903614289986 0 0 0
484 1 8.718387726371521 4.508628466684518 -0.034878716931088294 0 0 0
573 1 7.394235973023827 2.7388659234333943 1.786259296525048 0 0 0
580 1 15.390492646372216 4.1754548916500225 -0.3343122366692179 0 0 0
575 1 13.672057075111251 2.696381785721924 1.4583643012284602 0 0 0
1262 1 20.80195243885456 2.863253339374137 1.4333870355498406 0 0 0
1186 1 22.226595321392914 4.359027988640413 -0.2745229532781774 0 0 0
2648 1 25.09528850445086 14.008585894377779 25.512427519501102 0 0 0
1266 1 33.32591635001353 2.9608833421213063 1.379833547342113 0 0 0
488 1 5.7088679153337605 7.946491012121225 0.3533206864325581 0 0 0
578 1 4.169198664912578 5.993566300095418 1.6838473844011763 0 0 0
490 1 12.071198411123957 7.53991764966544 -0.0046714639220361565 0 0 0
579 1 10.416956432743799 5.875247970651881 1.814089131383601 0 0 0
744 1 18.562091364929753 7.53640682126276 -0.2331512015783234 0 0 0
581 1 17.102067138743198 5.841935528679347 1.3313105251794926 0 0 0
8519 1 -0.00339866038083933 9.441702820204092 17.083889906378438 0 0 -1
1267 1 23.613794581786955 6.502792840268094 1.3496719757169127 0 0 0
1269 1 29.882391913326657 6.252496295671924 1.273080650495673 0 0 0
1273 1 31.83847163700785 7.556576987511299 0.34183007311055624 0 0 0
582 1 0.9922480521545138 9.166823354786358 1.4314627353904181 0 0 0
493 1 3.120037433103322 10.466505301313996 0.17426714780989128 0 0 0
590 1 9.029221246330344 11.192274701285925 -0.22533607639795644 0 0 0
584 1 7.529969839900704 9.705123859104324 1.6914703198842171 0 0 0
586 1 13.749912123480538 9.044280338256241 1.3379377020700787 0 0 0
496 1 15.60404236057197 11.026570726193222 0.23098904725974956 0 0 0
1198 1 21.785116013388947 11.344638120975539 0.17771798894691504 0 0 0
1270 1 20.319192528234375 9.318798810521363 1.1693119406646824 0 0 0
1272 1 26.471818074446105 9.201497444074038 1.4172588382012308 0 0 0
1277 1 28.321106711204948 10.681119378977558 -0.10444384277568772 0 0 0
1274 1 33.32120863272767 9.257541486483744 1.9664417927818043 0 0 0
38 1 -0.01514661535890463 13.643813052579326 -0.10419035983416794 0 0 0
2616 1 25.450868279489733 45.6854436168109 25.505642440788996 0 0 0
588 1 4.353338072342743 12.578100494884184 1.3103406904864938 0 0 0
591 1 10.865829870670998 12.781809936261691 1.5145362528212452 0 0 0
499 1 12.515184232366723 14.16878799735582 -0.20250352261158708 0 0 0
917 1 18.82509962384113 14.386216813986714 0.2640984150508361 0 0 0
1275 1 23.62862118365241 12.688577695487165 1.8205002573213331 0 0 0
1282 1 25.387958508974304 14.22146242330661 0.023943706363321382 0 0 0
1206 1 31.298705472052134 13.92816329263651 -0.16534499857643625 0 0 0
1278 1 30.00012817405827 12.190456559990716 1.4405298864940084 0 0 0
502 1 2.733682845306085 17.240685008255003 -0.07215265125541143 0 0 0
594 1 1.2718619972460279 15.297362277005961 1.6210031060339392 0 0 0
597 1 7.371510879281778 15.582248502813776 1.3427069431243597 0 0 0
603 1 9.541298637393718 17.15058732956354 0.09666056773691678 0 0 0
606 1 15.497965263158743 17.25043772431393 -0.018133501626679926 0 0 0
599 1 14.126814544854065 15.591802241004455 1.6281359274814033 0 0 0
1281 1 20.27870006785682 16.37196390035612 1.9456016279592636 0 0 0
1286 1 22.295685811437153 17.46580851864088 0.2388214347047085 0 0 0
1283 1 26.942459450877493 15.368554472567714 1.8989192668740174 0 0 0
1288 1 28.30609467944971 16.83359709823186 0.20549909843175396 0 0 0
1285 1 33.12783279785932 15.571257780742185 1.5176428818830323 0 0 0
602 1 4.371381329865304 18.726622156437383 1.3706829425289373 0 0 0
2667 1 28.265584668147206 23.525692427345984 25.44489454630756 0 0 0
604 1 11.349255401737636 18.834515827953066 1.730459472638033 0 0 0
2607 1 25.245479946649205 39.62327967956598 25.514951876930688 0 0 0
741 1 18.509512583628652 20.173862575726815 0.05844459923952866 0 0 0
607 1 16.862433995386496 18.930745960113953 1.7325751825210238 0 0 0
1287 1 24.068202057998363 19.24201560934563 1.6766417396232627 0 0 0
1213 1 25.510189740692336 20.132878560701165 -0.2328112601467885 0 0 0
1291 1 30.010544757378984 18.689235426715292 1.562324690328336 0 0 0
1292 1 31.753182263278788 20.160485211922396 0.07620967078698698 0 0 0
613 1 2.815168955034785 23.384587779381427 -0.08011684746115333 0 0 0
609 1 1.2899384265273564 21.85379540372115 1.389758987195806 0 0 0
611 1 7.667824120731047 21.852653154525466 1.401850789115816 0 0 0
2042 1 8.970605902917125 36.503656460025184 25.513007446583842 0 0 0
612 1 13.968397627188429 21.906843618820808 0.9887798275584976 0 0 0
514 1 15.748752537282055 23.700264028584137 -0.29694095197447373 0 0 0
1295 1 20.165470325891704 21.99669193480707 1.6079552491826405 0 0 0
1980 1 5.887862247711029 0.41431820997115787 25.450303794176822 0 0 0
1297 1 27.4317699422933 21.83302347890644 1.2107090648408 0 0 0
2019 1 8.905254416840926 23.65352961138594 25.374155106175678 0 0 0
1293 1 33.458775599905174 21.602552941045758 1.361745569924361 0 0 0
617 1 4.591590476042592 24.87800970774327 1.2628756907925274 0 0 0
619 1 6.344269793628697 26.568061764720547 -0.10952814327591728 0 0 0
620 1 11.01224723239273 24.97437515271932 1.0925833467597277 0 0 0
616 1 17.282297329975457 25.515716953616028 1.1885525078900907 0 0 0
1296 1 23.527012450354146 24.669311301901196 1.483417202121113 0 0 0
1222 1 25.217947701190866 26.404825579740088 -0.06847138835378686 0 0 0
1299 1 30.31264506730514 25.176431938185132 1.1919415566209721 0 0 0
4253 1 34.60162162664156 33.1111995234799 9.451942978031473 0 0 0
1975 1 7.457840662436546 50.68159683974244 23.64564947468406 0 0 0
624 1 1.4834603546606786 28.316307346531218 1.184971550381387 0 0 0
626 1 7.907210599184834 28.538338654737526 1.1712613816116044 0 0 0
2656 1 28.271052547809806 16.880957737464456 25.448291353397572 0 0 0
628 1 13.873892462661972 28.463862190660944 1.660399955031783 0 0 0
2195 1 18.965836982937322 39.323440691303446 25.231168844158812 0 0 0
1302 1 20.25652179248218 28.0716512805293 1.4471170191410143 0 0 0
1941 1 12.086853403381019 33.31618256653003 25.470566168104384 0 0 0
1303 1 27.084328390052033 28.102631746116764 1.0589605762618457 0 0 0
1969 1 9.07420243281902 49.12276781879015 25.463380102050696 0 0 0
1305 1 33.323873738056854 28.09574950898042 1.5637520612556346 0 0 0
524 1 3.4385058995570015 30.136823076721612 -0.14120576900913312 0 0 0
629 1 4.9201801769953 31.971874549534423 1.1759746640219209 0 0 0
4413 1 34.642458861683565 16.758349044228076 12.556011079766748 0 0 0
632 1 10.83192530105231 31.61074437653946 1.4645081989112891 0 0 0
527 1 15.794346534722386 29.992733790367872 0.09978063014214339 0 0 0
633 1 17.563989850946818 31.779188540284803 1.500792324744672 0 0 0
1231 1 24.857347818791006 32.974481875023656 0.012427202503838775 0 0 0
1307 1 23.274767257067484 31.36473613741817 1.4662352332075619 0 0 0
1310 1 30.14082312116229 31.526881682552734 1.4713008379968413 0 0 0
1309 1 31.657639934940576 32.90569624378904 -0.07220388462095412 0 0 0
175 1 -0.027152044366655387 33.23397433926978 -0.2817661502232802 0 0 0
635 1 1.2265914198731906 35.00704184539629 1.3186741298891074 0 0 0
780 1 -0.24718270751562169 26.850922347842747 6.313537635553323 0 0 0
636 1 8.082630871702072 34.95390423992954 1.180605452860967 0 0 0
534 1 12.675816357744225 33.59801513067839 0.4047790842390353 0 0 0
638 1 14.547244281278793 35.60990426237677 1.4558171191059108 0 0 0
715 1 18.455372668840404 33.47031342040192 -0.3412930582595012 0 0 0
1312 1 20.144844739365414 34.5611368408581 1.3867251146321824 0 0 0
1314 1 26.710155959311024 34.49238394283947 1.4038676346090757 0 0 0
1315 1 33.13137046079918 34.89546690828023 1.5535590379800812 0 0 0
535 1 2.9105078717600312 36.74200420666165 -0.15030433105042343 0 0 0
639 1 4.416451687197793 38.17677715500247 1.3993871250151986 0 0 0
7082 1 -0.1841447191957309 27.634894061610744 24.325682531479284 -1 3 3
640 1 11.029103459836445 38.401140269427955 1.5409906868458634 0 0 0
2597 1 28.71207262124251 29.925885863256983 25.415370799482304 0 0 0
642 1 17.30093882821106 38.623581503906195 1.509357687219686 0 0 0
1237 1 21.819426809597555 36.487604051667475 0.08826020403175572 0 0 0
1316 1 23.868116509169067 37.623865582304845 1.4699762191585362 0 0 0
1238 1 28.25775089286715 36.053603042732504 -0.018721229334032752 0 0 0
1320 1 29.934342360988854 38.01418022043903 1.26487546333221 0 0 0
689 1 -0.2399517075439251 39.49717494004473 -0.09428462262574988 0 0 0
643 1 1.216545280453622 41.05157367568641 1.6376490804459758 0 0 0
544 1 6.206929754044113 39.814308283791874 -0.09341271787379413 0 0 0
645 1 7.868048095708279 41.567697242036004 1.4777512354613829 0 0 0
641 1 12.412154458198057 39.83243598298185 -0.20958396185633293 0 0 0
646 1 14.001413620628355 41.44766356895461 1.2891374567456624 0 0 0
754 1 18.77840161659085 40.14967988708614 -0.3198679740105638 0 0 0
1322 1 20.683478886124522 41.313709020328176 1.2130991732990455 0 0 0
4307 1 34.643338211908244 10.754392587670841 12.372923193733254 0 0 0
1323 1 26.6357110961433 40.8638226175278 1.4749711550037878 0 0 0
1922 1 2.6733227246919005 23.432365957150974 25.387161842772706 0 0 0
1325 1 32.84205306550287 41.17889485403856 1.4851917912832822 0 0 0
644 1 2.826611150786523 42.79839532081958 -0.30203328515760963 0 0 0
651 1 4.257404256883526 44.37913637757069 1.4555441623153975 0 0 0
549 1 9.10489968874012 43.053339846730424 -0.32659473159941355 0 0 0
653 1 10.8450441109564 44.84627589596185 1.550944524953084 0 0 0
2642 1 22.23839470256006 10.935453821733732 25.429637321185933 0 0 0
655 1 17.355013296918603 44.414283547821455 1.437448979813391 0 0 0
1245 1 22.08700071834039 43.239310630332255 -0.18714043391334675 0 0 0
1327 1 23.917130229719174 44.646353368602504 1.3565950758298235 0 0 0
1324 1 28.582504895980662 42.607989093656755 0.12011035579663498 0 0 0
1328 1 29.91232935057831 44.300915554496356 1.7120055556146365 0 0 0
656 1 1.0324862166474862 47.67516062500887 1.3580196403707119 0 0 0
559 1 6.085558094767142 46.031731303608595 -0.025608047431218084 0 0 0
658 1 7.488823661247086 47.55453711687004 1.6542176842039047 0 0 0
654 1 12.595577652827647 46.32419942559039 -0.0398470799685694 0 0 0
660 1 14.157165807267626 47.80050776233094 1.4805929812842344 0 0 0
751 1 18.514098672579994 46.178202640147504 -0.18767447776540858 0 0 0
1330 1 20.361103199337492 47.8464808697868 0.995178172263999 0 0 0
1331 1 25.500069077036304 46.04857463687193 -0.2961708042016 0 0 0
1332 1 27.12820458755587 47.70059124232088 1.4393501586567017 0 0 0
1252 1 31.955257602350386 45.95514615871838 0.17128645771395312 0 0 0
1334 1 33.45047103385783 47.52094387265164 1.9086398862388765 0 0 0
567 1 2.726953788838906 49.01632080111348 -0.17476511384139695 0 0 0
662 1 4.3174407058726905 50.65719598122347 1.5827862434658828 0 0 0
562 1 9.062002763833277 48.92506902687467 -0.1988118423609003 0 0 0
663 1 10.60273579185386 50.68636910854495 1.597923186202878 0 0 0
563 1 15.583966205494942 49.13626507521988 -0.2567656666128126 0 0 0
664 1 17.34674112305473 50.77523411707918 1.403518827432231 0 0 0
2058 1 15.709860074580574 42.79324504742972 25.29483211389447 0 0 0
1336 1 23.940004748854214 50.65623615004374 0.9127209936148717 0 0 0
1333 1 28.78469292110811 48.97333533607397 -0.06243598817795881 0 0 0
1339 1 30.17837683487585 50.67579459943242 1.4383144074095005 0 0 0
665 1 2.7812804075140694 0.44851178325277097 3.1490491335800628 0 0 0
574 1 9.200113576053944 1.1763237975256293 3.3852248314357487 0 0 0
2 1 13.892026874143209 51.2765088594722 4.752552018149068 0 0 0
576 1 15.598713226281449 1.2167890019173817 2.9294794621436506 0 0 0
980 1 22.150825115785096 0.3503616999426977 2.9024943534710026 0 0 0
1265 1 28.55418208959969 0.4083918294239103 2.9891903592435214 0 0 0
572 1 5.6968916797575675 4.338429906716035 3.239754367172411 0 0 0
666 1 4.3781903770968915 2.671143505043758 4.740852125769811 0 0 0
672 1 12.238370993741908 4.316082344248195 3.426331389912027 0 0 0
667 1 10.723989435259128 2.9018938204699936 4.996167670217234 0 0 0
747 1 18.59713412553759 4.241717919590679 2.9769410734620494 0 0 0
668 1 16.99431777632974 2.8059472019356866 4.7199730917119105 0 0 0
1341 1 23.667537700456627 2.6061119351147823 4.538142779664678 0 0 0
1345 1 25.190026113263688 4.218518432664114 2.5794785870594734 0 0 0
1346 1 26.40437555976509 5.5268378645574225 4.472459675879902 0 0 0
1347 1 31.41415568491968 4.392303196954479 3.0923428416401215 0 0 0
1342 1 30.211578414851687 2.5773395027457275 4.648295130464996 0 0 0
583 1 2.772788579792391 7.571261672573342 3.3999472969817073 0 0 0
670 1 0.8580516158932423 6.101498179568669 4.797521506671901 0 0 0
585 1 9.022147380980574 7.859875712484746 3.2656592838437395 0 0 0
671 1 7.422952866350183 6.01755370251807 4.630776320661346 0 0 0
587 1 15.494406096294911 7.519849094697809 2.738144277274849 0 0 0
674 1 14.37242087278455 6.039160242069174 4.743765399238919 0 0 0
1349 1 21.73897325132674 7.7529199244217235 2.813284448285143 0 0 0
1344 1 20.512392505909098 5.6131894825440565 4.251009685783646 0 0 0
1352 1 28.09859319734953 7.4807635321013874 3.108621653211081 0 0 0
1348 1 33.10165083101725 5.928455122580041 4.5808049712955565 0 0 0
589 1 5.77776242800252 11.065662975671117 3.365235180171242 0 0 0
675 1 4.224096423034211 9.248269071988224 4.834035019364201 0 0 0
592 1 12.326176717900374 10.94586134077506 2.948502343332857 0 0 0
677 1 10.694681070079769 9.365898839885396 4.706584370236547 0 0 0
679 1 17.397536120512086 9.118642581000275 4.549001523475554 0 0 0
984 1 19.106034668515182 11.025431429647528 3.315627216417242 0 0 0
1351 1 23.536093896147296 9.069111751904744 4.534433427891219 0 0 0
1276 1 25.117559744190206 10.911585799175066 3.2577664012603953 0 0 0
1353 1 29.885980247660786 8.656633701908309 4.960104258490954 0 0 0
1279 1 31.61678454199992 10.531167822462747 3.662846701727216 0 0 0
595 1 2.859992735828298 13.874334965960879 3.1640356449515075 0 0 0
682 1 1.3610504276229851 12.231896148013861 4.930077899956318 0 0 0
598 1 8.959287615508225 14.460310883487029 3.220109116372244 0 0 0
683 1 7.415519349342273 12.690781235463229 4.759838823667945 0 0 0
684 1 13.932731060778373 12.253821443833742 4.927159759528576 0 0 0
593 1 17.37078273057146 12.835016178733365 2.3000389222863933 0 0 0
600 1 15.630098681668482 14.209992672117762 3.4939186977565795 0 0 0
1354 1 20.715793319681158 12.34571458823404 5.111360155328179 0 0 0
1358 1 21.941208070991387 14.21555823735542 3.4322324267820945 0 0 0
1356 1 26.92090644900347 12.274522426961344 4.982197602181564 0 0 0
1284 1 28.452457076771363 13.837208616867006 3.353399969797794 0 0 0
1357 1 33.4022503582857 12.38703964600001 4.955080221172491 0 0 0
693 1 5.7252509350027445 17.00531970654784 2.890748938402863 0 0 0
686 1 4.355981100586629 15.5308599661873 4.796686244930907 0 0 0
605 1 12.212010366851253 16.80986484729389 3.1151539219512854 0 0 0
688 1 10.936841412705649 15.480336360061 5.055561356467562 0 0 0
755 1 18.555864063948363 17.774690767928607 3.333835986204448 0 0 0
690 1 17.18091127898302 15.88283609257791 4.947198936970908 0 0 0
1359 1 23.431298041306274 15.720737399933022 5.257242304471966 0 0 0
1363 1 25.22502354153903 17.04661687906256 3.2560484511592866 0 0 0
1289 1 31.399652320899477 17.041023183144027 3.1173925017961057 0 0 0
1360 1 30.176917300165286 15.233865903637692 4.795870421875944 0 0 0
610 1 2.8099999794030315 20.156885489291795 3.0083577751932706 0 0 0
692 1 1.4681021787131336 18.525189564663425 4.757353456804316 0 0 0
694 1 7.387666036315419 18.736671069108752 4.620300508024463 0 0 0
698 1 9.278846675420276 20.075564283164674 2.999219342985489 0 0 0
700 1 15.113531224170165 20.326698674171695 3.0397407320139673 0 0 0
695 1 13.697393071495625 18.49826717816876 4.73713203193549 0 0 0
1362 1 20.465748584910717 19.17317303823472 4.760859446605594 0 0 0
1367 1 22.090446934893478 20.61679968516881 3.1321912532723597 0 0 0
1364 1 27.179466903487288 18.529823422876852 4.656257911753683 0 0 0
1369 1 28.770119690893655 20.453642760170826 3.0499745740728432 0 0 0
1366 1 33.12376264977153 18.411671468311145 4.678804642205625 0 0 0
614 1 6.026996719931526 23.39609514506835 2.9693404368127823 0 0 0
696 1 4.575496035164384 21.607239022764585 4.409361489728548 0 0 0
615 1 12.382151361733039 23.44860132834307 2.8659118092308637 0 0 0
706 1 10.350706835576199 21.985681781357457 4.830575536232627 0 0 0
701 1 16.975533739973894 22.04197327841698 4.436686928182114 0 0 0
1368 1 23.95754395321698 21.878313230726476 4.87000988009937 0 0 0
1372 1 25.373629421648516 22.93844395075097 2.7679070682680433 0 0 0
1370 1 30.21416877655292 22.010990002568626 4.593023913558449 0 0 0
1374 1 31.84895434007467 23.445792300841656 2.816949780965563 0 0 0
710 1 1.0603898772089941 25.425495556717262 4.376560359696748 0 0 0
618 1 3.2956579599483957 26.674782046928335 2.7245108268485176 0 0 0
712 1 7.712948538734525 25.35847057639732 4.373259512499124 0 0 0
621 1 9.306415661332295 26.517947674634577 2.5213171794545417 0 0 0
714 1 14.022936329168436 25.373896810403778 4.233189479535616 0 0 0
732 1 18.6907555416884 23.87482825040406 2.8481960229972674 0 0 0
1371 1 20.53143487283355 25.42839134266085 4.575764659489338 0 0 0
1300 1 22.20707177615145 26.750489924618858 2.9232789756919226 0 0 0
1373 1 26.649323361652698 25.03256410494728 3.978114532631273 0 0 0
1376 1 28.64735289635 26.52900729590815 2.7399628274352335 0 0 0
1377 1 33.28960954162877 24.91217904472436 4.7158586971432666 0 0 0
28 1 0.15785928403282506 29.654323421727987 2.977562622134572 0 0 0
716 1 4.770951022762969 28.31445239353765 4.363541440623581 0 0 0
627 1 12.223780420325088 29.82494001978031 3.1869395613364486 0 0 0
718 1 10.575347967186392 28.012478945461 4.479122169510832 0 0 0
622 1 15.733782940377436 26.95636391974266 2.880959499141656 0 0 0
720 1 16.942433829816665 28.25271724053522 4.844217625184214 0 0 0
1071 1 18.873406518000387 29.818851002111153 3.243631481205245 0 0 0
1375 1 23.666020109530386 28.648833822940208 4.37093111301799 0 0 0
1380 1 25.407067357584882 29.802835573528665 2.539169796703652 0 0 0
1383 1 30.0819780503634 28.37003041847436 4.377640192896988 0 0 0
721 1 1.7096813121976675 31.366436821052133 4.638156947627819 0 0 0
625 1 6.24423968517245 30.275523142278352 2.8142605690632627 0 0 0
723 1 7.711810550462549 31.613999241603278 4.614728514825762 0 0 0
726 1 14.086585834677392 31.42565834090454 4.499055323564848 0 0 0
1384 1 20.668418366876487 31.438420027469633 4.727833578177409 0 0 0
1381 1 26.59926694792215 31.408981153007264 4.548607230436916 0 0 0
1382 1 31.94835145372746 30.026592803795072 2.977552777640225 0 0 0
1355 1 33.52802812110758 31.448557174139946 4.777093222402641 0 0 0
630 1 3.0235775732526693 33.45418749245803 3.0564708162815544 0 0 0
728 1 4.88945178215269 34.63474663137323 4.605653075340301 0 0 0
631 1 9.159903221092803 33.329410214863344 2.9839465493882744 0 0 0
730 1 10.9056347680972 34.85810405492637 4.415111213748126 0 0 0
725 1 15.657400722061663 33.527051026051666 3.1595292685208256 0 0 0
724 1 17.426045154251867 34.809138670226304 4.651253083175016 0 0 0
1306 1 21.915762366073768 33.05042090193608 3.1897508564469645 0 0 0
1343 1 23.657856551876147 34.404260378981576 4.70101760197817 0 0 0
1308 1 28.54102698177973 33.20431147960993 3.193412577431184 0 0 0
1335 1 30.2917779435052 34.73316036399426 4.722121586669919 0 0 0
89 1 -0.06291086245600502 36.17464977930611 3.370073274776451 0 0 0
722 1 1.3871967715836202 37.96478843077064 5.126757922452669 0 0 0
729 1 6.105248486550832 36.308204950491444 2.6565402628651644 0 0 0
702 1 7.582390347170565 37.99289949962673 4.349719510977259 0 0 0
731 1 12.480961989344745 36.603230270482086 3.1975512097507 0 0 0
669 1 14.518701011159608 37.833307497632305 4.534666212354234 0 0 0
734 1 18.730598703589592 36.638296831473056 2.9267364544516443 0 0 0
1280 1 20.739699157549225 38.17187624393168 4.286672589023627 0 0 0
1313 1 25.28720056847365 36.060076260712194 3.06972426647138 0 0 0
1178 1 26.748157212254533 37.78040433387474 4.696787058449518 0 0 0
1340 1 31.26793860366259 36.19908019166766 2.9153834372130736 0 0 0
1136 1 32.917986064540806 37.934438914290936 4.441165512233254 0 0 0
717 1 2.772095700487711 39.54384608351977 3.267591044051642 0 0 0
647 1 4.366475139133835 41.30639968311813 4.763868547963517 0 0 0
685 1 9.421465477832585 39.85771613784412 2.9693847740021555 0 0 0
456 1 10.967761553063248 41.27813211301536 4.439277615458785 0 0 0
649 1 15.54867644401199 40.045968531197644 3.0631676497423017 0 0 0
354 1 17.588717326816138 41.27271646940875 4.50170496504563 0 0 0
1317 1 22.210656334011734 39.57567252143585 2.645000302072445 0 0 0
993 1 24.101213864663272 40.91034626086032 4.40017630689288 0 0 0
1318 1 28.378843594522124 39.34224288834807 3.0350827275686334 0 0 0
1378 1 29.561934717666748 41.05480109335387 4.742973147420343 0 0 0
1321 1 34.38172159764834 39.452938116393966 2.7200583161452814 0 0 0
296 1 1.058559809415096 43.94211419164118 4.441894232506836 0 0 0
553 1 5.783616695981834 42.97542345048042 3.233957693574734 0 0 0
263 1 7.589331808602555 44.43901450895899 4.5957358475170516 0 0 0
405 1 12.276706125958434 43.15398014781569 2.8534235842389957 0 0 0
230 1 14.037582833089257 44.80222565017755 4.327336935204983 0 0 0
1240 1 19.253980634331175 42.98304273730935 2.928235011807425 0 0 0
1290 1 20.815005257717548 44.284772859518796 4.837274956662271 0 0 0
1379 1 25.51847746940589 42.730139078142116 2.8899141175225003 0 0 0
1207 1 26.840345683312027 44.46175783630959 4.5451301925426195 0 0 0
1365 1 31.5059604010771 42.53416602442587 3.3984088996084636 0 0 0
1195 1 33.16666653911207 44.104924409019475 4.940818276940001 0 0 0
650 1 2.6662344477130313 45.80224512229164 2.901700415230222 0 0 0
218 1 4.167283158861246 47.33214336274625 4.809558283354874 0 0 0
652 1 9.313589446856756 46.16993760488056 3.173931199991331 0 0 0
193 1 10.66472657110228 47.82505530059382 4.59062989515205 0 0 0
225 1 15.836089125196462 46.25577214511965 2.7785761601223893 0 0 0
106 1 17.2126114426848 47.66903830643295 4.777485933135706 0 0 0
1326 1 21.691336599264478 46.09178666901576 2.7050435847838785 0 0 0
1062 1 23.75333999288833 47.387484735846655 4.222374816470266 0 0 0
1220 1 28.41139865427238 45.96316132243011 3.123426397023656 0 0 0
1060 1 30.02636426793135 47.577218894114196 4.773380038892112 0 0 0
93 1 0.6649465496860031 50.76973649007833 5.036758731512568 0 0 0
657 1 5.800192199046061 49.266412946021546 3.3667419810429924 0 0 0
87 1 7.449939071950347 50.7596130794131 5.045923980514864 0 0 0
659 1 12.662916461694097 49.2450387872414 3.1526372722538984 0 0 0
808 1 18.877610785983766 48.84606607857202 2.7480406616390107 0 0 0
999 1 20.105068160901787 50.61891076391933 4.47014076009291 0 0 0
951 1 25.32063081355533 49.18913036639499 3.0454535524642963 0 0 0
977 1 26.846082165609715 50.703229237645886 4.469932883599597 0 0 0
944 1 31.61311985541542 49.22669956269142 3.197200554634537 0 0 0
848 1 33.35150320190707 50.71278435679055 4.5418186418181765 0 0 0
3207 1 34.56722570939417 36.18826764494531 6.004418785549918 0 0 0
2144 1 5.850440214250377 1.1789758617670039 6.535701177590601 0 0 0
1490 1 12.245642635358008 1.431736304729134 6.625987303584866 0 0 0
2148 1 18.48159247268689 1.114465508059097 6.510649301480959 0 0 0
1329 1 25.13910812104977 0.4529520392149423 6.262016398083584 0 0 0
2167 1 26.98055067117486 2.5297993666180507 7.486575027068291 0 0 0
1401 1 31.685474478191203 0.3274194142346706 6.276413358037974 0 0 0
2169 1 33.3963848766751 2.456321774245458 7.856753934996547 0 0 0
713 1 2.5746279069765485 4.2135651121137405 6.041264944457679 0 0 0
1406 1 1.2097846819965592 2.783829450846178 7.8798029705645956 0 0 0
1477 1 8.783159769408414 4.550991233771778 6.524057203225924 0 0 0
1408 1 7.390112199822022 2.919617286341531 8.268552245512362 0 0 0
1409 1 13.842888768542002 2.726715754056121 7.988050700028598 0 0 0
2158 1 15.701438286494362 4.228822212228788 6.509000962285481 0 0 0
815 1 21.65574239463366 4.096750051924952 6.046283145348481 0 0 0
2165 1 20.169780874564207 2.866396214257116 8.055716349868808 0 0 0
2172 1 23.6222486507688 5.574990389253828 7.544239267952229 0 0 0
1389 1 28.539906078448166 4.216594532803375 5.921402087728683 0 0 0
2173 1 30.121559577618882 5.531379353461959 8.164780341767663 0 0 0
2620 1 25.38099554371551 48.80016155668072 22.519167106280637 0 0 0
1411 1 4.142701942500699 5.88725403494417 7.990265426033398 0 0 0
1443 1 6.254846438359694 7.828838536092272 6.370133485143937 0 0 0
1414 1 10.592948099671256 6.05397110705997 7.943183111871827 0 0 0
522 1 12.418424362602448 7.613384549606756 6.062960588850003 0 0 0
1416 1 17.208350895967033 6.090779180099727 7.976236577496305 0 0 0
1145 1 19.0408110861829 7.341521178960287 6.246932887245331 0 0 0
794 1 24.86153151083722 7.372775877871112 6.08078207524356 0 0 0
2177 1 26.982695018980476 8.646632561663399 7.615042451412089 0 0 0
2591 1 31.81987643821696 7.312780040119772 6.503688875817468 0 0 0
1418 1 1.0947165380399269 9.036280617696676 8.052130370095893 0 0 0
1671 1 3.0134908847344466 10.617926365772691 6.559934025062919 0 0 0
769 1 9.118412852814254 11.20489421166915 6.284581683773632 0 0 0
1421 1 7.969127441222483 9.457412384586144 8.1603215199172 0 0 0
1423 1 13.880485133541486 8.883261565279877 8.000385380407522 0 0 0
777 1 15.627137044141103 10.509706050951914 6.295111226896939 0 0 0
2174 1 20.609721921255698 8.918506560812828 8.055618612728837 0 0 0
2546 1 22.25777492918254 10.431448535276232 6.390546968980522 0 0 0
2354 1 28.399630214410884 10.397131390422945 6.36123572330646 0 0 0
2179 1 33.192123468497414 9.196088713093578 8.093671999726466 0 0 0
2612 1 28.58476291713875 42.33439347281805 25.228157688543487 0 0 0
775 1 5.876957075631166 14.034924331019855 6.346801489673591 0 0 0
1426 1 4.591225817432542 12.175133685477707 8.1594999251492 0 0 0
1427 1 10.645295822650166 12.494941381099233 8.147070355110563 0 0 0
773 1 12.518585939973097 13.786861651064564 6.2609296164608415 0 0 0
1430 1 17.35766320905324 12.253217639002125 7.984886784051959 0 0 0
1644 1 18.744732604127677 14.0976493661622 6.366086606000755 0 0 0
2181 1 23.51988298498826 12.25723020203329 8.062880705975815 0 0 0
2664 1 25.21522778196707 14.0052100540639 6.478862505973066 0 0 0
2183 1 29.7097569397662 12.174088796087872 8.20195850780711 0 0 0
2491 1 31.465132508261284 13.739700172172665 6.517889777648915 0 0 0
2142 1 2.7507716952029835 17.16151453793448 6.43967177455785 0 0 0
1432 1 1.4868818298474895 15.478761854780233 8.251864474517165 0 0 0
776 1 9.049372767977474 16.97350725850647 6.311898969309415 0 0 0
1434 1 7.4539645319791 15.68764097414299 7.978294396391318 0 0 0
766 1 15.376180363659792 16.99980740289625 6.267833864315051 0 0 0
1435 1 13.96447657713191 15.520008825038445 8.048734493522032 0 0 0
2228 1 21.85479690201223 17.477001272167755 6.527604033686981 0 0 0
2186 1 20.48799689790953 15.648995255016086 7.985557234410178 0 0 0
2188 1 26.77339261150034 15.371484709824527 8.051408103916962 0 0 0
797 1 28.6744505041047 17.034388130366697 6.205518518291394 0 0 0
2191 1 33.13706262300568 15.231651152076157 8.126768658319326 0 0 0
136 1 -0.028087722287456263 20.348435967209763 6.21795666550976 0 0 0
9 1 5.912369703431132 20.316498702979676 6.192308229645785 0 0 0
1436 1 4.056679095669044 18.860891201632246 8.111312640728066 0 0 0
770 1 11.769709475368103 20.18363701470732 6.284555613509753 0 0 0
1439 1 10.080217608407391 18.756444631802317 8.09814606533796 0 0 0
778 1 18.47961833729505 20.658851432840052 6.338115766564164 0 0 0
1442 1 17.005343397542973 18.747103650462694 7.820713330702706 0 0 0
2192 1 23.47120517548256 18.948110859426134 7.962981598014025 0 0 0
1403 1 25.420389513441503 20.013158587269455 6.320491889890386 0 0 0
2194 1 30.057147669041626 18.960536382277226 7.9211167495578625 0 0 0
1391 1 31.77980650717032 20.31001039415503 5.995192877379522 0 0 0
79 1 2.7393330795243918 23.534713660867975 6.060032669476725 0 0 0
1444 1 1.2944159554557204 22.211868848199156 7.984790170611458 0 0 0
680 1 8.964144071179952 23.590154813648496 6.283003557990679 0 0 0
1446 1 7.350446981316595 21.935766315501358 7.700566440499987 0 0 0
779 1 15.294692930612772 23.720954918266205 6.34367297506012 0 0 0
1447 1 13.69013387556333 21.76515427457999 7.802426516737659 0 0 0
2196 1 20.370744819369747 22.08047973217197 7.984646610606509 0 0 0
1361 1 21.9883592017388 23.487747593329807 6.218475509803791 0 0 0
2198 1 26.95710977382276 22.184644541654762 7.686375560384562 0 0 0
1392 1 28.503322634489056 23.728087827311573 5.736092119259619 0 0 0
2200 1 33.224302431822714 21.648289675960772 7.838813730008926 0 0 0
2163 1 18.59880741529583 20.42494821223623 25.23250429294024 0 0 0
96 1 5.889331760472157 26.52675863554602 6.1895026044979735 0 0 0
1449 1 4.376408641494998 24.842434324859486 7.802268154260954 0 0 0
738 1 12.307323479995556 26.684546329473992 5.917266975253913 0 0 0
1457 1 10.905137984877824 25.150896304251834 8.042904547755278 0 0 0
1452 1 17.04165810532259 25.17399613872243 7.91459376092771 0 0 0
1263 1 18.831708484398714 26.788536096969803 6.167059890131972 0 0 0
2207 1 23.368801502042643 25.55953944187175 7.806849197780899 0 0 0
1083 1 25.118644262944137 26.704258222008328 5.819334814694163 0 0 0
2205 1 30.245610501204347 25.053202819898107 7.61101807421256 0 0 0