LAMMPS data file via write_data, version 29 Oct 2020, timestep = 200000

4608 atoms
1 atom types

0.10214355428915667 53.297856445712405 xlo xhi
-0.33132330770030194 51.238443307700905 ylo yhi
-0.33132330770030194 51.238443307700905 zlo zhi

Masses

1 18.015

Atoms # atomic

2401 1 16.78230482064956 10.258002185942596 0.38718957571803436 0 0 0
2675 1 12.983231841250705 9.469628825289343 0.7655629372495496 0 1 0
3594 1 11.28372539878103 0.7090031346015528 3.7829360877737894 0 0 0
3880 1 13.90853308803019 50.680884917016755 3.2303274090282903 1 -1 1
446 1 14.447644279533977 7.211304849496811 0.14539580130336333 0 0 0
3713 1 10.183506961854338 19.676669878451783 23.98784185240592 0 0 0
3541 1 1.0566244757858683 39.49383863346911 3.5574123943387908 1 0 -1
570 1 0.6806730113002065 26.550353794659888 19.89541472403721 0 0 0
2626 1 0.5109472268158444 36.67182284030239 1.2449441618820367 0 0 1
3779 1 3.5928686689411116 30.851692205534658 14.207511137784039 2 -1 0
1683 1 13.844396348457032 1.9788000793214473 1.9088516938842246 0 -1 0
979 1 1.007820667833828 8.376595102333368 2.05719998110796 0 1 1
837 1 2.7764656651668376 3.577331103930713 22.653162062880856 0 1 1
57 1 3.745137631771353 31.234604271412394 23.109442335376116 0 -1 1
4134 1 2.348652411183878 10.491947738551799 1.5952743842715893 1 0 0
717 1 1.6834609841506716 48.06553128300004 3.032781049129001 0 0 0
3759 1 14.01918101759307 4.169350754939812 3.585199818924658 0 -1 0
3362 1 14.090341061664333 41.0292704299534 8.697688073994271 0 0 0
658 1 16.751171819414896 38.76413023735753 23.61391202990062 -1 -1 -1
1606 1 3.606177888061761 42.97154847302987 10.595088063620471 0 1 0
1408 1 12.557852654062788 9.630770895287748 3.500242447269993 -1 1 1
460 1 13.548904556345976 13.49788850563536 3.3571025816709033 0 1 0
244 1 1.9480883216148754 24.426251642685287 18.437670302158878 0 0 0
1836 1 1.2645228643742672 12.688805010184614 3.2962757834786034 2 0 0
3326 1 0.5295141154258352 18.266569300593563 4.046716163851251 0 2 1
2859 1 0.2690758297261703 48.03621149229897 8.669012314875518 0 -1 1
2704 1 2.066223669662281 45.07991726671595 7.11978644395278 1 0 1
3382 1 7.5081438220419825 3.3530287050369636 1.932648474649063 0 1 1
1034 1 3.5261644495314752 48.57977295672995 1.097672774871207 0 0 0
2807 1 9.404145220180482 18.229975172413205 3.882877537023222 0 1 0
2810 1 13.788084737397504 16.941801436468396 -0.28972378216792216 0 2 0
1011 1 1.3118174757323826 49.3315778864557 14.122822881086403 0 0 1
1177 1 2.9159545514894476 18.636199339152988 1.5958287251135947 0 1 1
4061 1 0.16496865441402458 50.958246229381174 12.099663344295326 0 -1 1
1821 1 7.57333806625289 16.362770230472755 2.889851499972558 1 0 0
3381 1 8.274870561377394 23.57146522820557 0.8447541032441626 1 0 2
442 1 10.187414401481753 20.617441133053884 2.730168558336746 0 1 1
2877 1 0.7737838319876424 12.642029290594296 11.423031501144077 1 1 1
2189 1 15.95808471837283 18.011963566702384 1.1552972444410912 1 0 0
3487 1 5.3369449216734 23.819382370050185 1.5223554846007634 1 0 1
1495 1 3.2655311137416834 21.85327680449886 2.08299196611211 0 0 0
2485 1 11.193772896417988 25.9524457539401 -0.15328192850437863 0 -1 1
3306 1 11.873321820877134 22.950270976519217 0.8581235391877351 1 0 1
2811 1 12.338119911996268 19.835026440861544 1.182256899338662 0 1 1
2134 1 13.968206938386354 25.05702869671413 0.855656664909789 0 1 0
4231 1 10.012483066212368 24.989609039446403 2.6806286388169918 1 -1 1
1548 1 10.401873546112524 22.528256852847573 4.5205424129615706 1 0 0
3353 1 16.258674295999406 29.004579153940018 0.8457904224547017 1 0 0
2325 1 1.651551320112263 30.52315490090268 3.209878131100705 0 -1 1
2554 1 5.534780425969057 26.84890937184897 2.7682655412124144 0 0 1
645 1 4.20275141420469 27.97690726682836 0.4634831737581261 0 0 1
50 1 10.869844208726388 30.072753500182188 2.836672922347592 -1 0 0
3810 1 0.6423997344917857 14.167840132041356 18.384008285627562 1 -1 0
1752 1 0.3750959159586792 22.394116117667163 12.843164871967236 0 0 0
1102 1 2.690295777692085 31.59661074700416 0.6183042269456366 0 1 0
755 1 9.376439966578825 32.37938503690981 1.050794885367664 0 0 0
2632 1 6.614553356195565 32.5421397163892 1.6571998546707494 0 -2 1
2602 1 11.245222860161688 33.370553001936145 2.9682056289332106 0 -1 1
2715 1 0.2230539031536849 28.042835027168508 3.0389978544789686 0 0 1
2515 1 14.578327371525226 31.927377922293104 1.7371866109327732 -1 -1 1
4541 1 16.0358662497914 29.064483581468618 4.454078228017194 0 0 1
3775 1 1.1009340836439978 31.780742996534705 23.876052888800984 1 0 0
689 1 0.12420553513081052 18.10816656696743 7.95571985161879 0 1 1
3667 1 3.214295359728069 34.33152491738736 1.0933188803756946 1 0 -1
4206 1 6.444805749738117 37.16114697609673 0.44038209937555883 1 0 0
1467 1 12.106537613947037 34.28482681014372 0.4559009390872263 0 -1 1
117 1 14.583815181720903 35.41911340389304 1.7675980655979964 0 0 0
3546 1 2.928180985334994 35.659783513369796 14.642711647177599 1 -1 0
1346 1 4.9840729277952525 37.404566834292496 2.8840415746883337 0 1 0
4089 1 8.609763132391945 35.49274519397687 1.1077728413437287 1 0 1
952 1 11.428200884292261 38.70179132802754 3.125339386383314 1 0 1
3975 1 11.293927796388399 38.96437245233154 0.14344735862443936 1 -1 0
2707 1 16.778957200559773 15.866128109028445 20.85470427728643 0 1 0
1704 1 0.3573053574727077 39.2296017935586 0.8332294165116931 1 -1 -1
711 1 0.3345764212292508 41.78220836092603 4.698345869702966 -1 -1 0
2281 1 10.479918529343191 17.674657765725176 0.6622116202163746 1 0 0
2577 1 3.7518632739211233 39.88658197010222 3.1932137472059674 1 -1 1
2383 1 14.011747944926299 37.49870407631993 3.6074101445741755 1 -1 1
2037 1 14.94495310015068 42.99065083200654 2.7576884392162055 0 0 0
2833 1 17.446606819766654 34.99415939819262 17.22729124807363 0 0 0
2653 1 3.78311857648463 43.26066100166565 1.4157841010371761 0 1 2
1175 1 11.762005697668025 3.1168685315249567 0.6383791232996207 0 1 1
2170 1 17.50270920961957 48.09627401360704 1.9083282387024898 0 -1 1
4050 1 4.905917384113146 45.792330438233094 1.8134621628010867 1 -1 0
347 1 2.0012724179838832 14.798149948421383 5.738920453890821 0 1 1
3920 1 17.289982765306487 36.355323637839966 9.192502691140705 1 1 1
3117 1 9.029735238214817 45.287663642491324 1.6105487800765597 0 -1 0
2789 1 14.704093072730139 48.0547790034493 2.9859559585508233 0 -1 1
1403 1 17.833879949938762 22.49958757459392 9.395276601899976 0 1 0
969 1 17.373684590070013 45.21130847268523 15.895980317769489 0 -1 1
1473 1 11.933152993286093 48.40625780244414 2.101762282961338 0 -2 0
425 1 11.863624606968383 1.4668679703268637 6.707195410148508 0 0 1
2090 1 5.167366628704366 1.184548981197808 4.168182563861684 1 1 0
661 1 5.601728688683428 1.9797012556661309 0.7512560288514074 0 1 -1
1224 1 3.7603876606240463 4.273400329233532 3.3792584352458683 1 0 2
2215 1 10.714441442602785 4.60909559823363 6.6444035744433965 1 1 1
1840 1 11.39679323277431 3.7230591159380513 4.05131969141733 1 1 1
2041 1 14.79907360020817 2.3896300278804667 5.537449095249222 1 2 0
2974 1 2.025965252433161 5.224705743581852 5.929641475923877 1 0 1
834 1 6.159598258719106 3.9638264483986676 4.465065284795466 0 -1 2
3189 1 13.386109380902834 7.089620726034426 4.260490055708818 1 0 -1
4387 1 1.659376512303175 30.93754703322935 10.990870544875525 0 0 1
1713 1 15.920071223848765 5.629988831770103 2.2556189621988834 0 0 0
4033 1 1.8615978830533375 43.14342277124379 20.466439051023755 1 0 0
3216 1 3.7788942482636845 6.871049329680876 2.2787929661292585 1 0 -1
404 1 8.46157623672872 5.250369088045768 4.834433732614438 0 0 2
3162 1 11.67624016545641 8.503243834165485 8.824736899590608 0 1 0
3977 1 10.965504006220838 6.8303843631594825 3.543261718316253 1 0 1
2923 1 4.967266914596479 9.529939600393753 1.5753729479430887 1 1 1
3053 1 5.1605631878990135 10.221013173425604 6.1704561788456775 1 1 0
810 1 6.619738444194957 12.09597199747948 1.415006633754046 0 0 0
1283 1 7.956881482998587 7.9373766211954155 3.738280145334672 1 1 1
1103 1 8.320258873770927 10.112483038699517 5.185259003067718 0 -1 1
2251 1 16.805036174006315 27.52354509676177 21.823642450753034 -1 -1 0
462 1 16.76116944499956 7.339322730441583 4.003442083835977 -1 0 0
1068 1 3.1273211923181936 19.285219800897103 23.760335671706358 0 1 -1
3993 1 3.676659696155895 15.953803507699025 1.4266673703410226 1 1 2
1589 1 11.214396218627918 12.705222973615399 1.1195496427349725 0 0 1
601 1 10.416401938416904 11.030701824126528 3.633973935008578 1 0 0
3856 1 14.546608982547692 11.120274355885494 4.981332671912557 1 0 1
3275 1 4.804060957571017 17.928873618936187 4.753246558575845 1 0 0
3105 1 5.918689860571175 17.899983451695146 0.9441929117762788 1 0 0
2641 1 6.5324457360107715 13.879472982357624 4.1192660158900605 1 2 1
1788 1 11.160995341354955 13.269387337514367 5.203884953162996 1 0 0
2594 1 11.974059769677236 15.696473268145269 1.51834667848048 0 1 1
3793 1 15.606597542992814 15.154103536674594 4.230881786543579 1 0 0
1144 1 9.263335976163834 10.820570586116155 0.7636100986314893 0 0 0
942 1 6.067358953427223 16.774889180536295 7.199313404890241 0 0 1
2913 1 5.654929053347986 20.20951237240711 2.8459212023245466 0 -1 1
1677 1 11.560353243167949 16.02954459863437 4.403060983706701 -1 0 0
209 1 14.208202486255482 17.05348912745959 5.526386777275091 0 0 0
1978 1 14.813485050558196 20.144510639973944 2.6341045497879527 1 1 1
599 1 5.705047273815451 21.82819555288881 5.0686102415544765 1 -1 -1
3463 1 15.019072707677914 22.964781924453515 2.6917480442234805 1 0 0
4522 1 2.08325502792718 24.34480249213447 5.5627289917167255 1 1 1
2290 1 2.224162009118305 21.755876859221488 4.466001541138641 0 0 1
2505 1 4.546743059971403 24.489681684810222 4.256897599155522 0 0 0
846 1 9.02088136379155 27.884078890985645 2.2096043757750183 0 1 1
2171 1 4.228189484652343 24.378066971863518 10.846694804030786 0 0 -1
1505 1 6.123232116204001 26.191391420218974 5.994073826379805 0 -1 0
2518 1 10.943899714697018 25.71255196047597 6.806065564583896 1 0 0
4065 1 12.39938813332333 26.100653170982493 4.403836359825657 1 0 1
655 1 15.931638919743806 25.43788510487809 4.87117122070748 -1 0 -1
1617 1 6.8645009631411975 28.713702622557822 4.479583490608777 1 0 0
2271 1 13.1995806797438 29.603857844116167 1.4126713708606504 -1 0 0
2231 1 14.3800455845664 27.205451797586484 2.8441854747619097 1 1 2
4378 1 5.879065201679787 32.80123178378327 4.133588214446376 1 -1 0
1660 1 8.811437456852063 29.232600366640362 6.536157516112209 1 0 -1
1263 1 11.302967773378823 30.078555440384804 5.533192479497008 0 1 1
4143 1 13.186768942437102 32.19640405599538 7.752035279662643 1 1 1
1277 1 13.486210028179975 32.946262617983926 4.837519731360091 0 0 1
3399 1 1.8146718640787634 42.20092638858588 6.7871081323913875 1 0 -1
3480 1 2.1429758720233263 46.14498330396415 -0.023342777542095183 -1 0 0
428 1 1.8193422576076697 33.7326207027873 6.007755766421578 1 0 -1
2628 1 7.779203286007754 34.17865285362337 5.5058678083664905 1 0 2
1605 1 9.140475741531267 37.147513658759856 3.261900081158803 1 0 0
833 1 16.336107772991898 31.877131593579392 4.139779217901151 -1 -1 0
4463 1 3.808121628691877 34.5183994663307 3.8618019185263117 1 -1 1
4073 1 4.218061962882337 37.130937021047345 6.130072242796627 0 0 0
537 1 6.955488092620945 38.25213232703698 4.505795012185391 0 1 0
2893 1 14.26885231731347 35.37159217838944 6.270357504299581 0 0 -1
7 1 16.5567337933093 38.52358319833622 5.270530750310014 -1 0 1
1610 1 15.001296310107007 45.4424509954814 1.482181129578521 -1 -1 0
1925 1 8.145077499135715 40.82640988711064 3.8049592088377215 -1 0 0
584 1 10.751108750325288 40.89920748697571 4.865637650604506 -1 0 -1
794 1 16.39654607643504 40.81232928453901 6.938062587748251 0 -1 0
385 1 2.087558808364122 43.5870791443148 3.5452122159298987 0 0 0
3248 1 4.298118509908543 41.00979049536207 5.6049895816345074 0 -1 0
4128 1 6.608550471012119 42.57258329856384 5.423992633081852 1 0 0
2553 1 12.486907493015183 43.20952031085588 4.17412969053194 0 0 1
3514 1 16.58026590878113 43.12472571352094 5.237623976788601 1 0 1
466 1 6.931612790581242 44.61669933558118 3.632369645332926 1 -1 0
1762 1 13.890629885756782 46.721406673124505 5.1697551463022124 0 -1 0
4418 1 12.32044430479744 44.836820708862 0.9850058549567011 1 -1 0
1452 1 15.091666863449792 44.981018297662885 6.840117694412157 -1 0 1
2458 1 17.058523239953356 47.02536036763552 7.679712351923474 2 0 2
1726 1 1.037967200198234 2.4600649344664687 5.93979735683736 1 1 -1
1710 1 5.866370777601335 48.84856798246243 2.7191146564645625 1 0 0
770 1 8.49850035205491 48.11850694349388 2.2205810520487836 0 0 2
2230 1 7.382862272958149 51.174872856560974 3.562434225426406 1 0 -1
2097 1 8.91735872974532 1.6765508963382367 6.930916235413003 1 1 1
719 1 13.57200545836601 50.9097415436911 5.932688767031787 0 0 0
1016 1 12.30775798712294 48.596483307701945 5.929597010609728 0 -1 1
253 1 16.33886158027073 0.271696342235226 3.81169831235483 -1 1 -1
1833 1 1.20481193977802 10.869281862713791 15.68896897051069 1 0 -1
4431 1 8.447329040461485 50.62007160722697 6.278198738583131 1 0 0
4385 1 9.520331789734273 1.955454838142428 9.92071187136487 2 0 1
2556 1 11.894156693581632 0.01738250863633517 9.065376064250634 1 0 1
925 1 1.5470010230825577 17.10724948665616 14.260954175721391 1 0 1
4406 1 1.8887894563311942 4.343114440098137 8.633479873770822 1 1 2
3277 1 4.987154532610981 5.624311035280818 6.385883874467302 2 1 0
1727 1 6.5153087824860165 2.988341786295716 7.677855994753262 0 0 -1
2647 1 7.796586712355322 5.788000338981198 7.862129878320339 1 0 2
1805 1 13.159467008832145 6.616957860774689 7.170806575502898 0 1 -1
1596 1 15.417930938649002 2.8815230160597523 9.509283313259818 1 -1 0
3287 1 16.614267651203942 4.289201463911415 7.046531664032707 0 2 0
941 1 4.551866197601767 8.341497786984958 8.044413543446954 0 0 0
2374 1 6.923902329499405 8.261777767822931 9.500875539118473 1 0 1
1182 1 8.268783816996233 7.746165628976646 12.004962467141716 0 0 1
1795 1 15.830142892414694 6.905910123740884 6.659086877932603 1 1 1
4232 1 6.352680957159557 12.374175950748008 7.542221019952854 1 0 0
978 1 5.3698334943419646 7.847928456244979 4.506820903540862 0 -1 1
2154 1 10.69832280142645 11.176600719013 8.040186009305804 0 -1 0
2133 1 9.26902268088715 8.535740240431476 7.404326931452102 1 1 -1
2338 1 2.7659024296344907 20.366958705011154 13.455077214080026 0 0 1
2173 1 4.179633215628715 15.371582902571673 4.220112710278029 1 1 0
3826 1 4.344079288861151 13.624983538885624 9.379543791467716 1 1 -1
4276 1 8.493831974257803 13.13507998142952 6.333692713520043 0 1 0
1578 1 12.85494325119308 12.494660638296871 7.232847313856834 1 1 0
3874 1 16.050271347815432 13.136308745309755 5.889936040243869 1 1 2
3482 1 12.913845367413538 41.90987725086211 20.327007644717973 1 -1 0
1480 1 3.544097296283065 15.83746657704296 7.849423980565913 0 1 0
1816 1 1.88529054928025 12.873515203947838 8.217443033478055 0 1 0
1300 1 8.249570865998837 14.570501909739258 10.754322452997027 -1 0 1
732 1 8.209311504684992 15.277523047880782 8.02065868712799 0 0 0
3809 1 12.583466377198908 17.05917148385223 9.055927322126111 1 0 0
1935 1 2.2130251661786424 17.003921700563804 10.03647193587245 1 0 0
2768 1 10.490482090298729 16.685116684366417 7.043626003935301 1 1 0
3013 1 9.811802263503374 19.2577490113517 6.359645997718964 1 0 1
3600 1 3.5111733663966787 21.048899233540663 6.870729566876537 0 0 0
1475 1 14.628287147062819 19.762240289117575 5.6937386747799374 0 1 1
4248 1 11.281707673447537 48.4246089198109 23.95140521791776 1 0 1
1638 1 17.213146574231793 51.13834411813785 23.3531440100166 0 -1 0
3030 1 2.6972769606939493 22.41544275912206 9.464201367757381 1 -1 1
3730 1 2.992937352293938 19.709685800413656 10.713010392622829 1 0 1
877 1 8.30835846989428 21.969758716122303 6.320674413798566 0 -1 0
3453 1 12.328965153425182 20.781668235830253 6.376504377443089 1 0 0
3707 1 6.551251521114035 19.423161616716932 8.28501022306069 1 0 1
2840 1 12.859870854595226 23.30578406943104 4.611712617295506 0 0 -1
2027 1 1.0833818925783567 24.225901368605435 8.190489839043021 0 0 1
2243 1 8.119044588828277 24.84072306842137 6.935252091274577 0 0 2
248 1 12.247079414937385 27.352483396524757 10.410883077335761 1 1 1
3213 1 11.968588002150442 23.349081045051694 7.913144276540558 0 0 1
3726 1 5.324303283093853 37.821807775859114 13.739145115633379 1 0 1
927 1 5.090457440871678 30.38737268258083 5.455274065384803 0 -1 1
1071 1 4.65818617438295 26.22409134116603 8.764039588776562 1 0 1
3343 1 5.29790889595761 28.763599717715056 9.961698278183519 1 0 0
1645 1 7.7379947837807155 26.804699325117735 9.68696430766799 0 -1 -1
3197 1 10.090749529303963 27.656727201614128 8.458373728443444 0 -1 0
1690 1 15.18082066226899 28.405076462957894 9.262617384251598 1 -1 1
2172 1 2.452771759749098 31.134947704675497 5.807450922066419 1 0 -2
606 1 7.682258405703399 31.939294785257168 7.306429825655549 1 1 0
3152 1 13.805428803626443 28.74158660655409 6.205024662436977 1 0 0
464 1 13.740756160083054 27.426580512026206 13.069080638390988 0 -1 0
756 1 15.790301037174922 31.245432250679187 11.020388807892129 0 0 0
3813 1 6.903879817362522 36.31092126356349 6.641791067816743 1 -1 -1
777 1 10.673292999683799 34.00904717582848 7.929754676852447 0 0 0
2936 1 15.774166708114532 30.545342612314343 7.539084712782984 0 -2 0
3899 1 0.12173588739419303 23.17862297801238 16.661754939864725 2 -1 1
2405 1 2.9913284688590474 35.40272721721388 7.9373660675783135 1 1 1
576 1 1.8083248816382447 39.89575061343351 8.157815914967586 0 -1 1
598 1 5.1199364162588274 38.09312503904652 10.411695763737992 -1 0 0
1686 1 10.386230993519488 35.169387449175176 5.001942999556113 1 0 1
2806 1 12.125009435633046 37.05010627316341 5.9371446566363675 1 -1 2
811 1 12.206840356113345 39.56304203978607 10.48901054594118 1 0 1
1855 1 17.107238821646853 36.16612327569104 6.640740180021481 -1 -1 0
670 1 4.399949946754406 39.07205917799869 7.861099338770977 -1 0 0
593 1 7.31865799729579 41.8374570275343 8.099613246842427 0 1 0
408 1 5.579623748289995 41.01827656033915 9.847022122259107 0 1 1
562 1 11.694022037253788 39.55577073027185 7.4256393820592645 0 0 1
2528 1 9.675302693291638 1.5012079327160355 1.4559716028574992 0 -1 0
1337 1 2.947275658140063 46.12839683744054 4.353243575494463 0 0 1
3820 1 1.6545453468524003 41.12755961643431 10.565641957446939 0 0 -1
381 1 11.269511823346326 45.7361690166923 3.795045435214746 0 0 0
481 1 12.853235871254894 42.847059884577064 7.04986761375361 -1 0 0
2939 1 10.893492010989481 43.98880148946284 8.749026422756353 1 0 1
4586 1 14.685583621604431 42.627251799704744 10.992994074791099 2 -1 0
2327 1 5.64852046655376 47.48914415392217 4.923842566571452 0 0 1
4483 1 8.904237412942063 46.14371968091247 5.147472307014004 1 -1 2
1974 1 6.863770466625163 46.56051992429574 9.404642810239904 0 0 0
2378 1 8.895550747526038 45.94754650550051 7.844311779247631 0 0 1
2621 1 13.955131302478414 44.938178202022215 9.511534006425206 1 -1 1
1453 1 11.067678340722631 47.01726926097999 9.486262745053711 0 0 0
3101 1 7.245760551332974 49.29202976189273 8.57230583998868 1 -1 0
4363 1 10.249771356107061 49.560801271152656 4.269326378391329 1 0 0
2475 1 13.153651032762243 3.5875933712145214 8.003198590291364 1 0 1
22 1 17.05987015771033 1.0142752774256982 8.437706185921254 0 0 0
611 1 3.8178277652454047 2.748110344668758 9.966341083274761 0 0 0
4297 1 13.463497400339984 1.106135807842703 10.800382776707485 1 0 0
2430 1 11.744160725062132 3.746919755996597 10.369158465087388 2 1 1
3129 1 13.799021780841876 49.75704046764915 11.494184643613709 -1 -1 -1
3360 1 15.518436353727504 5.168652641362436 11.020782691119877 0 1 0
1835 1 4.681682392890425 3.287990563814613 12.54307956937928 0 0 1
1129 1 7.0427574442420635 3.7314222354374413 10.431256607695287 0 0 0
634 1 6.558403386544704 5.4215939640612385 13.888242489689162 1 0 0
2420 1 12.868821666316823 5.92434578087641 11.874033273459393 1 1 0
586 1 17.466026710157248 6.500729493826494 9.369600736226488 0 0 1
1435 1 2.3477017537235203 8.700032547680694 9.447334658488595 -1 1 0
4308 1 0.4093754144292526 6.596813530125523 9.653177173935191 1 0 0
1376 1 6.049450378982582 8.433089922610627 13.73541751216673 0 1 0
3472 1 7.238450670850477 10.908355301187381 9.680882607350995 1 1 -1
4605 1 9.23821141087689 5.022072049141152 11.438222165680328 2 1 1
1746 1 11.602986845316885 8.395807841265114 11.57652224173182 0 0 0
2264 1 15.664128039610244 9.414947017899296 11.14367317694849 0 0 0
569 1 2.683914363815625 10.059540521455245 12.008224059821899 1 0 1
4442 1 8.756892485858714 10.888771008774604 12.769293786197426 1 0 1
388 1 14.028914507138566 9.678504972139326 7.622824817774775 1 0 0
119 1 16.495815195592822 9.032474352613491 8.383455737154673 1 1 0
3842 1 15.303585157319423 39.070265618363315 1.6841583764965065 1 0 0
3907 1 13.65506358497774 49.07008294465019 22.746249235684783 3 0 1
3000 1 2.7800900628417233 14.82289140845684 11.775349768529605 1 0 1
2262 1 5.811639386167467 11.24410319315016 12.143627917980087 0 1 0
597 1 9.921307208958211 12.288155504084738 10.540404682190779 1 1 0
2663 1 13.994482477366304 14.57682353235739 8.659889366925826 1 1 1
660 1 16.33755625150012 12.12465591994726 11.341456873744304 0 -1 0
3441 1 16.832831594971655 14.853883223486335 8.492019197967576 0 0 0
3885 1 0.15842544235050832 2.2562021911904906 8.900060818529298 0 1 0
1614 1 0.5494839799775293 39.714804727433126 15.945450495426336 1 1 0
1651 1 7.728374047481277 17.50597261826922 11.773426601296215 1 -1 0
479 1 10.844609305726605 16.704660138404122 11.235568306203206 -1 0 0
4210 1 13.91699627280658 13.585881330911977 11.233172310809547 1 0 1
774 1 17.385688475053332 17.438323480529693 9.264037507919673 0 -1 -1
992 1 0.41185347248943704 20.542124160252822 23.991320738038105 -1 0 0
431 1 5.727956955262975 19.30432315300502 10.670872319998177 0 0 0
2217 1 9.097873652262304 18.681477946427208 9.288020965963481 1 1 -1
28 1 11.023096560662383 19.72101626908624 11.588941783628284 0 1 0
1491 1 12.656018304327635 20.576051202142555 9.352202847547144 1 1 1
2736 1 15.065893729997759 19.037200533743675 8.40240942574576 0 0 0
3341 1 17.402612136652298 19.995872141689592 12.820549169026421 1 0 0
56 1 8.687213524455775 5.477448828387748 0.4879579546460565 -1 -1 0
1496 1 6.714464409416577 21.7771613469942 11.314129254366037 0 0 1
2991 1 9.37278251483527 21.627067824654056 9.22204636177362 0 0 0
890 1 7.538664567202769 5.909844437148643 24.579721549620803 -1 1 0
799 1 2.159590245576613 34.47756840953008 20.5036184484225 0 1 0
2988 1 2.0920231822816815 24.529977781581756 12.640606043532072 -1 0 0
3301 1 5.96500482302229 22.313047049989702 8.44782671670015 1 0 0
1303 1 9.345428057044625 23.301225596063784 13.453450522329398 0 0 1
4414 1 8.387060961628958 23.833273757864042 10.620885523958115 0 0 0
506 1 15.844534314643006 24.788015915530245 9.94554051810275 0 1 -1
193 1 0.5761932923626825 10.529896769588134 8.476608596850971 0 1 1
747 1 1.1643807746471353 26.6924256110556 10.919549821092136 0 0 1
2365 1 17.62932336665539 42.072674318019125 23.6661761597166 1 -1 0
1920 1 4.085863638492985 27.293682291235854 12.585055835639102 0 0 1
192 1 12.082129034605758 29.712459192189623 12.018037723858047 0 0 1
8 1 6.044171139001363 25.298406805209765 13.0757875840029 1 0 0
3930 1 11.546136223685723 24.657091972220748 11.533136244471567 0 0 2
3606 1 10.606352554618189 30.17913629316546 16.364758715383818 1 1 0
2336 1 16.092099723766523 26.0643124889069 15.049053004666073 1 0 2
1039 1 2.203150056820053 29.45423364982181 17.013537971925693 0 0 0
2997 1 4.85724306147626 31.266702321403244 8.276924900400441 0 0 -1
41 1 8.366951672382443 32.567172953983125 9.943749249690466 0 0 -1
2174 1 7.2865154698915084 29.03214658485229 13.40098497846557 1 1 1
2866 1 11.031896254829595 31.65431097906679 10.086001275673622 0 0 1
3909 1 13.787727255753685 31.457373751374845 13.05438602887639 0 -1 0
4181 1 4.276291758485584 32.01303356582357 11.962391512871394 1 -1 0
3415 1 6.849491881163561 34.888151542365044 10.525886773587064 1 0 1
2724 1 5.469073953696499 34.28138397485215 8.175617463203787 -1 0 -1
2883 1 10.778807693170952 33.307988047833746 12.671158425631866 0 0 1
2639 1 13.818547588292 33.59089601724537 15.123410876336118 1 -1 1
2203 1 15.431391727547982 38.566830636388396 9.790325181159611 1 -1 0
3318 1 17.772177150255363 29.17081473899419 11.410391358607454 1 -1 0
1135 1 2.5200079183049344 36.44960923247066 10.761335660915398 0 0 1
4151 1 7.945560723458615 37.358316597291854 8.965895513479822 0 1 -1
1872 1 10.365322342735869 37.27029063965535 12.095416237559176 0 0 1
159 1 10.787314607873476 36.76990304904346 8.708520999579134 1 0 -1
2884 1 14.527239577138522 34.48123480676044 8.85976103861193 1 1 1
4039 1 14.885091430527801 11.5085619650293 23.544841252086982 0 0 1
2688 1 16.633082034722946 -0.021878788346171962 11.17743415915092 0 0 1
3746 1 6.104181110115144 43.13458876718797 12.8755072922847 1 -1 0
4607 1 2.6594714524752634 38.86970136109727 12.460397024641347 1 0 0
1616 1 9.922096464299761 41.38227622345561 9.066086697766158 0 -1 0
305 1 8.790945382088825 39.52820234928397 11.057386323706048 0 -1 1
3408 1 11.638903926102413 39.55627056649938 13.73650199251077 1 1 0
445 1 17.040539838874817 42.1652012022148 12.36677665025182 1 -1 1
3529 1 12.625481323417064 42.29139068473262 13.251104849927954 -1 -2 -1
662 1 3.9447897642837564 45.66946895038087 9.18436109890994 0 -1 0
2031 1 7.748853561835051 43.89031074054588 10.494204696416743 0 0 0
552 1 9.17420841418643 41.28621268834424 13.412943050701344 -1 -1 -1
3543 1 10.212314191938248 43.00653440137085 11.63393339719686 1 -1 0
4068 1 4.801752894334715 6.637259688196262 23.2471116926437 0 0 1
2024 1 3.1212272407703097 50.105318829301844 11.439639313095709 1 1 0
2225 1 7.848436295349461 47.08953156002508 11.96140465981861 0 0 1
3184 1 15.646207938856563 49.157283283275895 8.57051717730937 1 -1 0
2409 1 5.766689262092538 0.18310606508125948 6.636802514015074 0 1 0
2123 1 6.591141588757115 50.729728041650084 10.706419484013404 1 -1 -1
2335 1 6.380207081917986 1.0625817234479271 12.992914102649156 0 0 1
4373 1 12.60028646016097 48.89059540015594 8.676390882111864 0 0 -1
2416 1 0.25957559471908365 44.95916353507922 1.9627888134359663 2 -1 2
144 1 16.601448698836773 26.395762507052844 7.68204954115005 0 1 0
1724 1 0.6146696301797397 1.0398536936743807 15.099028047072844 1 0 0
3644 1 0.37603718436244205 7.903235518550499 18.009022833430677 2 -1 -1
2794 1 2.6229256016098814 3.670461935928972 16.271693049472983 0 0 0
3947 1 5.6889684748626 50.58074854523465 15.051172556666192 1 -1 0
2819 1 11.840176301391253 0.7093148544019869 13.268245036802792 0 -1 1
1399 1 15.381480481433304 -0.11006054668067239 13.692978081529802 0 1 0
759 1 0.44484990089427556 5.070500792020315 12.302104679302255 -1 1 1
4097 1 2.879506481113671 4.892726320109121 13.816085817292816 1 0 1
511 1 6.2241937507795235 3.464390194940046 19.00489801980966 0 0 0
2411 1 9.081028942122613 1.2937407653769304 12.866939747831047 0 0 0
2713 1 14.949270595715172 5.661900941403297 15.341481483656835 -1 -1 1
4043 1 15.283358298092043 2.895782096237989 14.516115377385155 0 1 1
2662 1 0.6743979307829273 6.377178697432692 15.745225626671182 0 0 0
2822 1 2.857504258886445 8.29613715971212 15.493169901553198 0 0 0
4247 1 9.04761061071026 3.790773466322066 13.734720701107534 1 0 0
3817 1 11.975300811666067 5.538601472817425 14.3382018513379 0 0 1
4415 1 14.561064525077068 9.826499646352922 15.162532386898327 0 1 1
1908 1 15.369482349298071 7.4085329674084095 13.486578746903087 1 1 0
390 1 3.5533701514669387 7.655778426600504 13.100446600223894 0 1 0
2674 1 16.7284460817724 24.920444464526998 17.565850284647574 0 0 0
1947 1 7.0925262223942624 7.906189494238966 16.40641663031821 1 1 0
2151 1 9.670233536876164 9.474978501324523 15.152679251944479 0 0 1
4168 1 12.316171180248562 10.287794635781 13.431167079379797 1 1 -1
3803 1 15.26376735095933 12.025351590604602 17.03677394332788 0 1 0
2300 1 16.52493213233562 21.229019758519968 7.151678794260407 0 1 0
1564 1 3.783498833883261 10.828301159328106 16.954408770765845 0 1 0
2474 1 5.762073696355474 14.176972034655472 12.002314776471216 1 0 0
563 1 6.176373037941075 11.515907249970857 15.03356076647729 0 0 1
1742 1 9.04070866114999 12.927221482133007 15.006711398904544 1 0 0
3664 1 17.006794206400983 11.75556460158926 14.365302020376095 0 0 0
1867 1 0.44359556227396924 42.03483912243708 14.867118377845316 0 0 1
1629 1 6.045950085378369 15.44982292529803 14.420102918512702 1 2 1
4558 1 7.961874816853628 15.224726242579056 16.37207742902968 1 1 1
911 1 11.603692741966078 12.962416462927333 12.985074620471154 0 0 -1
2881 1 12.445569020445491 14.166963370561355 18.22822481997817 0 0 0
1506 1 12.524125238444554 14.276114671738661 15.36446065145054 0 0 1
669 1 4.933353700491876 18.126238325875484 13.837077027986547 0 0 1
3219 1 5.826795375719242 20.040440807211034 15.687213769166192 1 1 1
714 1 8.20581527619394 18.31441508241166 14.586704094369669 0 -1 -1
2330 1 10.623966257489457 16.56372118550791 16.298251161952848 0 0 -1
2510 1 12.061396387637005 16.977596277658723 13.79617289161465 1 0 1
435 1 13.181889873349268 19.44181346630398 13.330861522774834 0 0 -1
2743 1 7.608679818339054 8.135654599604463 0.9341253865154608 1 1 1
3971 1 1.3859173350342777 28.08592631955451 0.5183646524493912 1 -1 1
88 1 5.205389857014524 21.738616747642734 13.667092218317638 1 1 1
1385 1 8.947389772761639 20.502866392310704 13.091883767571034 0 0 0
392 1 2.5769132142367104 17.423863772575107 16.999917987000348 0 0 0
4165 1 1.8998739938625366 27.981822103945614 14.611076606758614 1 1 1
933 1 12.959208263909678 32.88040271443477 24.156126763958703 0 0 0
595 1 4.610008033985408 23.097379298727077 17.989808243410227 0 0 0
1853 1 2.1942622302906165 25.045596380033647 15.264995343076592 0 0 0
3093 1 8.53151364638352 26.662689367398546 12.678893861878853 1 0 0
4001 1 11.4404632981173 21.506351332191763 14.872819888413096 1 0 0
54 1 11.709967569973378 25.467632552285437 14.17915050169355 1 -1 1