

read_data data.ice_${TEMP}K_${PRES}atm_ML group ice
read_data data.ice_293K_${PRES}atm_ML group ice
read_data data.ice_293K_-1000atm_ML group ice
Reading data file ...
  orthogonal box = (-0.080012562 -0.071122278 -0.071122278) to (57.350523 50.978242 50.978242)
  3 by 1 by 2 MPI processor grid
  reading atoms ...
  4608 atoms
  reading velocities ...
  4608 velocities
  read_data CPU = 0.031 seconds
read_data data.liq_${TEMP}K_${PRES}atm_ML add append shift ${X_HI} ${YZ_LO} ${YZ_LO} group water
read_data data.liq_293K_${PRES}atm_ML add append shift ${X_HI} ${YZ_LO} ${YZ_LO} group water
read_data data.liq_293K_-1000atm_ML add append shift ${X_HI} ${YZ_LO} ${YZ_LO} group water
read_data data.liq_293K_-1000atm_ML add append shift 50.9782422775769 ${YZ_LO} ${YZ_LO} group water
read_data data.liq_293K_-1000atm_ML add append shift 50.9782422775769 0.0711222775768903 ${YZ_LO} group water
read_data data.liq_293K_-1000atm_ML add append shift 50.9782422775769 0.0711222775768903 0.0711222775768903 group water
Reading data file ...
  orthogonal box = (-0.080012562 -0.26020103 -0.26020103) to (104.27610 51.309566 51.309566)
  3 by 1 by 2 MPI processor grid
  reading atoms ...
  4608 atoms
  reading velocities ...
  4608 velocities
  read_data CPU = 0.029 seconds

write_data data.icewater_test
System init for write_data ...
WARNING: Communication cutoff is 0.0. No ghost atoms will be generated. Atoms may get lost. (../comm_brick.cpp:167)

# Define potential
#
pair_style sw
pair_coeff * * /data/emrosky-sim/Freezing_Simulations/Melting/MLmW_fancy/ML_mW.sw mW
Reading sw potential file /data/emrosky-sim/Freezing_Simulations/Melting/MLmW_fancy/ML_mW.sw with DATE: 2019-02-27

# Delete water and ice atoms that are overlapping
#
delete_atoms overlap 2.5 water ice
System init for delete_atoms ...
Neighbor list info ...
  update every 1 steps, delay 10 steps, check yes
  max neighbors/atom: 2000, page size: 100000
  master list distance cutoff = 6.0032907
  ghost atom cutoff = 6.0032907
  binsize = 3.0016454, bins = 35 18 18
  2 neighbor lists, perpetual/occasional/extra = 1 1 0
  (1) command delete_atoms, occasional, copy from (2)
      attributes: full, newton on
      pair build: copy
      stencil: none
      bin: none
  (2) pair sw, perpetual
      attributes: full, newton on
      pair build: full/bin/atomonly
      stencil: full/bin/3d
      bin: standard
Deleted 665 atoms, new total = 8551

# set timestep
#
timestep 10.0

# Define output
#
compute 1 all msd
thermo 50
thermo_style custom step temp press vol etotal ke pe c_1[4]

# Neighbor lists
#
neigh_modify delay 0 every 1 check yes

# Set fixes
#
fix 1 all momentum 10 linear 1 1 1 rescale
fix 2 all nph iso ${PRES} ${PRES} ${PCOUPL}
fix 2 all nph iso -1000 ${PRES} ${PCOUPL}
fix 2 all nph iso -1000 -1000 ${PCOUPL}
fix 2 all nph iso -1000 -1000 10000.0
fix 3 all temp/csvr ${TEMP} ${TEMP} ${TCOUPL} 837492
fix 3 all temp/csvr 293 ${TEMP} ${TCOUPL} 837492
fix 3 all temp/csvr 293 293 ${TCOUPL} 837492
fix 3 all temp/csvr 293 293 5000.0 837492


# Fix ice atoms in place
#
velocity ice set 0.0 0.0 0.0
fix 4 ice setforce 0.0 0.0 0.0

# Run 1.0 ns equilibration of water
#
dump 1 all atom 1000 eq.all.${NAME}.dump
dump 1 all atom 1000 eq.all.coexist_293K_-1000atm_ML.dump
run 100000
Neighbor list info ...
  update every 1 steps, delay 0 steps, check yes
  max neighbors/atom: 2000, page size: 100000
  master list distance cutoff = 6.0032907
  ghost atom cutoff = 6.0032907
  binsize = 3.0016454, bins = 35 18 18
  1 neighbor lists, perpetual/occasional/extra = 1 0 0
  (1) pair sw, perpetual
      attributes: full, newton on
      pair build: full/bin/atomonly
      stencil: full/bin/3d
      bin: standard
Per MPI rank memory allocation (min/avg/max) = 4.591 | 4.599 | 4.606 Mbytes
Step Temp Press Volume TotEng KinEng PotEng c_1[4] 
       0    136.24859   -1842.3076     277528.9    -83180.64    3472.4214   -86653.061            0 
      50    166.43536   -1331.7743    275896.09   -82891.514    4241.7592   -87133.273   0.90651773 
     100    169.07535   -706.77684    273336.71   -82568.416    4309.0417   -86877.458    1.9406425 
     150    177.15886   -290.38835    272427.28   -82240.313    4515.0576    -86755.37    3.0497835 
     200    181.29507   -893.85942    273422.62   -82007.525    4620.4727   -86627.998    4.0408284 
     250    186.41895   -1063.5947    274501.56   -81703.531    4751.0594   -86454.591    5.1324676 
     300     187.6395   -1332.4161    274961.36   -81362.891    4782.1663   -86145.057    6.5256236 
     350    195.79949   -1175.9868    274657.96   -81162.246    4990.1313   -86152.378    8.0210687 
     400    200.04618   -838.90185       274199   -80952.115    5098.3621   -86050.477    9.5629377 
     450    204.33275   -916.34575     274087.6   -80693.652    5207.6094   -85901.261    11.130107 
     500    205.51987   -974.92803    274484.48   -80493.581    5237.8643   -85731.445    12.803595 
     550    210.11183    -986.7208    275134.73   -80293.063    5354.8946   -85647.958    14.322171 
     600    210.42595   -922.63008    275771.09   -80096.813    5362.9002   -85459.713    16.045729 
     650     217.4858   -1252.6512    276163.91   -79895.197    5542.8271   -85438.025    17.677285 
     700    221.49131    -795.8341    275732.62   -79714.075    5644.9111   -85358.986    19.699855 
     750     226.7627   -946.87444    275417.07   -79563.794    5779.2575   -85343.052    21.329329 
     800    227.35072   -927.17858    275589.93    -79376.31    5794.2436   -85170.554    23.532936 
     850    227.89248   -971.61833    276273.59   -79177.859     5808.051    -84985.91    25.787859 
     900    230.52309   -1203.8437     277034.1   -79000.663    5875.0944   -84875.758    28.058594 
     950     235.5868   -972.16122    277045.48   -78839.788    6004.1477   -84843.936    30.282686 
    1000    237.86632   -1113.5783    276775.96   -78703.027    6062.2434    -84765.27    32.455266 
    1050     241.0484   -1284.7163    276690.94   -78587.313    6143.3417   -84730.654    34.836121 
    1100    246.42374   -1027.2953       276602   -78487.317    6280.3372   -84767.654    37.456443 
    1150    247.37201   -966.52289    276737.21   -78370.103    6304.5047   -84674.608    39.924274 
    1200    241.31251   -1130.8783    277198.96   -78260.292    6150.0729   -84410.364    42.462163 
    1250    247.19837   -925.78254    277597.77   -78149.678    6300.0794   -84449.757    44.917479 
    1300    249.01948   -915.92051    277846.04   -78056.463     6346.492   -84402.955    47.224646 
    1350    245.34178   -1254.0195    278123.33   -77959.244    6252.7624   -84212.007    49.576227 
    1400    253.26996   -832.28383     278041.6   -77834.849    6454.8193   -84289.669    51.846971 
    1450    254.97114   -1240.2916    278011.33   -77725.827    6498.1755   -84224.003    54.287005 
    1500    258.26633   -1121.0674    277900.34   -77654.146    6582.1566   -84236.303    56.899201 
    1550    256.67151   -768.23976    277909.76   -77569.612    6541.5111   -84111.123    59.765807 
    1600    253.68998   -1179.8901    278304.43   -77472.352     6465.524   -83937.876    62.265621 
    1650    257.94401   -1098.4141    278454.99   -77406.021    6573.9419   -83979.962    64.711667 
    1700    263.44838   -802.61583     278386.9   -77310.067    6714.2258   -84024.293    67.239003 
    1750    262.86556   -896.19694    278226.22   -77252.838    6699.3721    -83952.21     69.93743 
    1800    265.91316    -420.8492    278176.34   -77164.941    6777.0431   -83941.984    72.871353 
    1850    264.86061   -769.50904    278933.29   -77062.711    6750.2178   -83812.929    75.646839 
    1900    267.49537   -1256.5603     279376.2   -76961.276    6817.3673   -83778.643    78.652384 
    1950    269.51464   -851.40879    278919.62   -76898.846    6868.8302   -83767.676    81.395181 
    2000    276.60025   -1011.3804       278510   -76821.532    7049.4134   -83870.945    84.449218 
    2050    269.17952   -1108.7605    278522.44   -76809.057    6860.2893   -83669.346    87.213852 
    2100    268.82106   -954.66474     278686.4   -76773.263    6851.1535   -83624.417    90.274869 
    2150    272.79524   -896.23679     278903.3    -76713.85    6952.4394   -83666.289    93.430381 
    2200    275.17498   -911.44029    279042.49   -76641.221    7013.0891   -83654.311    96.560764 
    2250     279.0665   -1227.9684    279172.37   -76609.524     7112.268   -83721.792    99.810171 
    2300    277.30011   -1259.0969    279356.95   -76511.784    7067.2501   -83579.034    103.10541 
    2350    277.64801   -1171.9659    279523.75   -76422.705    7076.1167   -83498.822    107.00124 
    2400    279.39979   -1097.6594    279409.02   -76397.668    7120.7622    -83518.43    110.33351 
    2450    276.96384    -849.0004    279263.99   -76346.299    7058.6799   -83404.979    113.50316 
    2500    283.80902    -1170.177    279469.32   -76268.464    7233.1357     -83501.6    116.94006 
    2550    281.70854   -805.99758    279480.34   -76237.416     7179.603   -83417.019    120.01829 
    2600     281.0102   -953.73014    279545.91   -76211.435    7161.8052   -83373.241    123.47433 
    2650    288.80949   -842.12239    279757.34   -76129.377    7360.5773   -83489.955    126.74611 
    2700    278.66016    -865.1852    280156.37   -76086.936    7101.9122   -83188.848    130.10235 
    2750    281.38472   -1147.0195    280102.17   -76102.335      7171.35   -83273.685    132.80691 
    2800     283.6746   -931.59899    279812.18    -76074.51    7229.7099    -83304.22    136.14186 
    2850    285.44684   -1269.1613    279635.91   -76087.107    7274.8769   -83361.984    139.22479 
    2900     285.6826   -1181.7432     279542.8   -76100.068    7280.8855   -83380.954     141.6966 
    2950    282.23211   -966.30327    279585.36   -76086.744    7192.9466   -83279.691    143.90279 
    3000    287.47782   -749.09963    279728.89   -76044.693    7326.6384   -83371.332    146.82189 
    3050    284.42176   -1129.0656    279893.38   -76049.707     7248.752   -83298.459    150.16159 
    3100     285.0126   -931.96573    279708.23    -76039.71    7263.8101    -83303.52    153.69467 
    3150    281.57217   -1150.5427    279686.12   -76039.849    7176.1275   -83215.977    157.15642 
    3200    287.34344   -955.59362    279756.59   -76000.423    7323.2136   -83323.637    160.47808 
    3250    288.11635   -917.41826    279744.49   -75966.463    7342.9119   -83309.375    163.98425 
    3300    283.89397   -850.22518    279857.81   -75910.551    7235.3007   -83145.852    167.05705 
    3350    289.65682   -1035.4657    280000.92   -75809.413    7382.1722   -83191.585    170.48491 
    3400    289.11666   -1092.2741    279903.62   -75864.071    7368.4057   -83232.477    173.55328 
    3450    287.70798   -1038.7342    279858.19   -75877.586    7332.5044    -83210.09    176.08064 
    3500     289.3582    -981.9972    279919.14   -75863.671    7374.5617   -83238.232    179.66499 
    3550    291.28787   -1045.7748    279996.69    -75819.26    7423.7411   -83243.001    182.77293 
    3600    288.04433   -1106.5717    279985.44   -75834.014    7341.0765    -83175.09    185.97583 
    3650    290.96478   -1062.6566     280061.3   -75845.996    7415.5067   -83261.502    188.81531 
    3700    291.79407   -806.57067    279999.73   -75838.002     7436.642   -83274.644    192.72306 
    3750    291.45343   -917.03927    279912.04   -75861.995    7427.9606   -83289.956    196.23402 
    3800    292.19161   -1068.2274    279997.81   -75859.773    7446.7737   -83306.547    198.94309 
    3850    286.55783   -882.41211    280096.82    -75845.11    7303.1917   -83148.302    202.19368 
    3900    290.22578   -999.82609    280225.19   -75854.529    7396.6728   -83251.202    204.77686 
    3950     293.3644    -1345.453    280335.24   -75806.555    7476.6633   -83283.218    207.48265 
    4000    291.80614   -1006.8828    280158.59   -75816.485    7436.9497   -83253.434    209.97363 
    4050    288.54911    -1017.236    279978.87   -75806.392    7353.9412   -83160.333    212.59657 
    4100    288.98579   -901.55914    279707.29   -75810.775    7365.0705   -83175.845    215.82959 
    4150    286.00751   -731.35327    279637.97    -75766.54    7289.1663   -83055.706    218.95171 
    4200     293.0744   -833.18464    279850.66   -75766.055    7469.2725   -83235.328    222.37124 
    4250    285.48565   -946.65073    280108.11   -75732.766     7275.866   -83008.632    225.64093 
    4300    287.94231   -935.69919     280032.9   -75750.279    7338.4764   -83088.755    228.49033 
    4350    291.57886   -732.84863    279829.29   -75771.925    7431.1571   -83203.082    231.65276 
    4400    292.66019   -764.39931     279840.4   -75758.952     7458.716   -83217.668    234.40804 
    4450    297.98415   -1145.1687    280134.19   -75695.875    7594.4019   -83290.277     237.1829 
    4500    295.73426    -828.6847    280278.69   -75645.115    7537.0614   -83182.176    240.07396 
    4550    290.62181     -1007.14    280410.99   -75589.755    7406.7659   -82996.521    242.86494 
    4600    297.56542   -966.34313    280254.98   -75592.214    7583.7303   -83175.944    245.53348 
    4650     296.5275   -952.69549    280115.65    -75530.81     7557.278   -83088.088    249.38636 
    4700    300.28426   -782.00058    280041.27    -75517.65    7653.0224   -83170.673    252.20965 
    4750    297.44443   -811.35872    280306.38   -75533.766    7580.6466   -83114.412    256.26418 
    4800    297.95757    -1016.605    280755.56   -75527.927    7593.7246   -83121.651    260.20721 
    4850    298.47274   -1110.8376    280983.95   -75529.353    7606.8542   -83136.207    263.61578 
    4900    298.09722   -1303.1274    280669.23   -75532.342    7597.2837   -83129.626    266.21144 
    4950    296.53251   -840.26904    279938.24   -75556.528    7557.4056   -83113.934    269.37552 
    5000    294.78629   -1146.4639    279780.95   -75578.142    7512.9016   -83091.044    272.39759 
    5050    293.54266   -1063.8491    280081.69   -75593.385    7481.2064   -83074.591    275.61393 
    5100    293.27737   -959.30448    280494.12   -75593.578    7474.4453   -83068.023    279.41447 
    5150    293.92427    -1088.274    280567.57   -75609.729    7490.9323   -83100.661    282.72837 
    5200    292.70668   -916.51094    280286.92   -75617.318    7459.9008   -83077.219     285.7331 
    5250    295.40621   -1072.1705    280056.35   -75607.113    7528.7007   -83135.814    288.14203 
    5300     296.3465   -1002.3242    279999.43   -75593.524    7552.6651   -83146.189    291.49246 
    5350    294.21345   -822.41626    280179.14   -75553.623    7498.3021   -83051.925    294.47969 
    5400    294.60179   -1215.5006    280469.93   -75610.097    7508.1995   -83118.296    297.91832 
    5450    297.37644   -1302.6865    280469.64   -75602.952     7578.914   -83181.866     301.6577 
    5500    294.52322   -907.53294    280031.75   -75608.794    7506.1969   -83114.991    304.47589 
    5550    298.18473   -1005.2395    279989.98   -75668.292    7599.5138   -83267.806    307.58798 
    5600    291.90208   -811.56654    280034.14   -75729.959    7439.3947   -83169.353    312.55272 
    5650    293.26752   -1286.3347    280325.68   -75809.599    7474.1943   -83283.794    316.16195 
    5700    295.50773    -963.9792    280371.89    -75789.15    7531.2882   -83320.438    318.78897 
    5750    288.50732   -1094.2035    280200.57   -75759.831    7352.8761   -83112.707    321.76956 
    5800    292.27407   -850.49704    279929.95   -75756.106    7448.8752   -83204.981    324.74269 
    5850    294.35683   -1066.6232    279965.06   -75689.286    7501.9563   -83191.242    327.78445 
    5900    291.00669   -937.39303    280192.87   -75722.502    7416.5748   -83139.077    331.20055 
    5950    293.42003   -1147.3529    280330.43   -75727.802    7478.0812   -83205.883    335.20906 
    6000    289.37301   -1073.8544    280259.31   -75727.074    7374.9391   -83102.013     338.3913 
    6050    295.38899   -1089.1785    280147.17   -75676.069     7528.262   -83204.331    340.94502 
    6100    291.15875   -785.57756    280194.88   -75676.462    7420.4504   -83096.912    343.45009 
    6150    293.66309   -1292.6495    280251.02   -75660.182    7484.2758   -83144.458    346.28447 
    6200    294.32888    -816.7859    279962.96   -75689.939     7501.244   -83191.183      349.311 
    6250    293.42703   -980.85619    280041.08   -75664.585    7478.2597   -83142.845    352.74766 
    6300    290.03459   -787.80026    280052.78   -75624.914    7391.8001   -83016.714    355.36107 
    6350    295.67052   -929.95806    280263.22   -75596.775    7535.4371   -83132.213    359.37077 
    6400    294.88105    -996.1722    280661.27    -75657.25    7515.3165   -83172.567    363.67429 
    6450    294.07475   -1180.3764    280903.71   -75660.283    7494.7673   -83155.051    367.29102 
    6500    296.63488   -1070.8579     280557.4   -75620.089    7560.0145   -83180.104    369.72895 
    6550    296.42116   -1108.7748     279895.8   -75605.438    7554.5676   -83160.005    373.22077 
    6600    299.32028   -770.15003    279212.03   -75635.909    7628.4545   -83264.363    374.97897 
    6650     297.9602   -848.20063    279413.11   -75685.019    7593.7915   -83278.811    377.20101 
    6700    290.65891   -929.62132    280366.27   -75687.497    7407.7115   -83095.208    380.32821 
    6750    290.95739   -1200.1862    280845.61   -75698.786    7415.3185   -83114.104    384.42377 
    6800    295.66929   -876.15884     280504.5    -75672.61    7535.4057   -83208.016    386.28327 
    6850    292.55964   -781.14434    280108.42   -75675.321    7456.1533   -83131.474    389.00144 
    6900    296.52109   -894.59502    280036.21   -75637.937    7557.1145   -83195.052    391.63352 
    6950    294.31043   -972.10752    280346.33   -75634.216    7500.7738   -83134.989    395.61458 
    7000     293.9481   -1177.4727    280522.04   -75605.465    7491.5396   -83097.004    398.43167 
    7050    296.30222   -1227.6178    280353.23   -75597.889    7551.5364   -83149.425    401.60552 
    7100    294.42912   -1218.2024    280059.23   -75602.579    7503.7986   -83106.378    403.31665 
    7150    295.15821   -936.10181     279761.8    -75672.11    7522.3803    -83194.49    405.13952 
    7200      295.381   -1060.0795    279993.11   -75713.162    7528.0582    -83241.22     408.0749 
    7250    292.74752   -1061.5341     280549.2   -75654.797    7460.9415   -83115.738    412.22036 
    7300    289.18909   -1127.2761    280706.88   -75622.714    7370.2517   -82992.966    415.74826 
    7350    292.02883   -798.25056    280261.05    -75613.42    7442.6252   -83056.046    418.03726 
    7400    298.84753   -819.64705    280046.38   -75583.066    7616.4061   -83199.472    421.07706 
    7450    291.80247   -1132.3025    280414.98   -75546.833     7436.856   -82983.689    424.03755 
    7500    295.37854   -1161.6028    280374.94   -75618.479    7527.9955   -83146.474    427.72714 
    7550    292.69585   -971.82384    280259.78   -75652.855    7459.6248    -83112.48    430.87427 
    7600    296.86171   -991.86863    280068.43    -75606.36    7565.7956   -83172.156    433.42729 
    7650    295.67231   -713.97025    279901.27   -75617.699    7535.4826   -83153.182    436.05199 
    7700    298.01293   -1144.5515    280223.68   -75600.345    7595.1354    -83195.48    440.07054 
    7750    297.76517   -1161.3324    280621.61   -75556.993    7588.8211   -83145.814    443.62802 
    7800    289.65298   -1082.1173    280782.68   -75590.692    7382.0743   -82972.766    446.87235 
    7850    290.47096   -915.39411     280434.9   -75560.592    7402.9213   -82963.514    449.89806 
    7900    295.01978   -805.60077    279937.85   -75608.927    7518.8522   -83127.779    451.78252 
    7950    291.28164   -643.11412    279588.36   -75655.286    7423.5824   -83078.868     453.5658 
    8000    291.77865   -943.90246       280006   -75637.482    7436.2491   -83073.731    456.96439 
    8050    293.30695   -1017.5821    280638.81   -75610.357    7475.1992   -83085.556    460.88512 
    8100     291.7079   -1292.6286     281076.9   -75639.359    7434.4459   -83073.804    463.57507 
    8150     293.9319    -1211.754    280889.03   -75581.645    7491.1267   -83072.771    465.26539 
    8200    296.98693   -1174.9233    280187.88   -75620.875    7568.9869   -83189.862    465.91369 
    8250    294.22522   -851.86488    279643.29   -75630.839    7498.6022   -83129.441    467.46292 
    8300    289.79647   -815.24376     279904.6   -75608.791    7385.7315   -82994.523    470.49842 
    8350    294.23075   -978.75177    280485.24   -75655.958    7498.7432   -83154.701    473.91111 
    8400    294.15125   -1327.2508    280927.49   -75652.967    7496.7169   -83149.684     476.2809 
    8450    292.80761   -1246.9205    280709.81   -75655.486    7462.4731   -83117.959    478.68783 
    8500    293.45768   -792.83475    279981.13   -75644.051    7479.0408   -83123.092    480.40105 
    8550    297.88991   -733.74404    279766.66   -75687.853    7592.0003   -83279.854    481.98797 
    8600    288.84556   -1029.7291    280118.76   -75671.343    7361.4966    -83032.84    484.73864 
    8650    292.59344   -1183.1816    280468.84   -75661.594    7457.0146   -83118.609     487.7781 
    8700    293.59751   -1084.0072    280320.79    -75666.55    7482.6045   -83149.155    490.17356 
    8750    294.61008   -826.92966     279888.2   -75640.208    7508.4106   -83148.618     491.2499 
    8800    300.56811    -1148.685    279852.74   -75659.629    7660.2567   -83319.886    492.98616 
    8850    291.49811   -912.68754    279999.09   -75699.486    7429.0994   -83128.585    494.94668 
    8900    293.29679   -1409.2961    280446.24    -75714.62    7474.9402    -83189.56    499.55399 
    8950    293.65511   -863.31049    280382.12   -75700.766    7484.0724   -83184.839    501.72255 
    9000    294.00166   -738.78073    280133.15   -75692.802    7492.9045   -83185.707    504.62707 
    9050    296.52373   -1050.6803    279863.35   -75698.232    7557.1819   -83255.414    506.47898 
    9100    291.96716   -978.80768    279749.99   -75765.448    7441.0535   -83206.501    509.85284 
    9150    292.69096   -1017.9443    280025.38   -75719.025    7459.5002   -83178.525    513.46914 
    9200    291.31587   -1255.9579    280710.43   -75719.495    7424.4547   -83143.949    517.33165 
    9250    290.11712   -1245.6036    280857.42   -75746.239    7393.9035   -83140.142    518.46154 
    9300    291.98452   -1021.7333     280115.6   -75809.385    7441.4959    -83250.88    519.59218 
    9350    295.08451    -821.7249    279162.67   -75806.147    7520.5019   -83326.649    521.76824 
    9400    290.00126   -586.76167    279162.94   -75801.681    7390.9506   -83192.631    524.82331 
    9450    294.45732   -1024.1603    280152.05   -75742.997    7504.5174   -83247.515    528.16177 
    9500    291.54418   -1092.6899    281066.42   -75752.027    7430.2733   -83182.301    532.47266 
    9550    291.45283    -1335.078       281235   -75726.559    7427.9453   -83154.504    534.89239 
    9600    293.52435   -1309.8032    280562.47   -75714.561    7480.7399   -83195.301    536.38582 
    9650    289.07949   -686.44325    279621.17   -75763.243    7367.4584   -83130.701    536.92485 
    9700     298.1845   -1273.7778    279413.11   -75768.625    7599.5081   -83368.133    540.11532 
    9750    293.90738   -537.00411    279494.72   -75772.819    7490.5018   -83263.321    542.46271 
    9800    291.65363   -1154.6166    280300.81   -75759.417    7433.0627    -83192.48     546.0801 
    9850    290.74888   -1516.0348    280764.79   -75745.136    7410.0045   -83155.141      549.997 
    9900    294.96515   -1245.6864    280497.61   -75751.541      7517.46   -83269.001    552.37349 
    9950    293.68077   -860.04663    279907.53   -75736.536    7484.7263   -83221.263    553.24658 
   10000    295.10067    -1015.716    279641.08   -75745.892    7520.9138   -83266.805    555.86856 
   10050    294.07541   -890.28877    279593.73   -75743.017    7494.7842   -83237.801    557.95376 
   10100    291.30121   -1045.2304    280134.34   -75697.858    7424.0811   -83121.939    562.15243 
   10150    292.61876   -1117.0371       280667   -75669.332      7457.66   -83126.992    566.58753 
   10200    288.20082    -976.6698     280709.6   -75641.936    7345.0649   -82987.001    570.62186 
   10250    294.73015   -1149.4701    280528.64   -75653.723    7511.4709   -83165.194    573.06965 
   10300    289.38222   -921.15894    280141.45   -75633.537    7375.1738   -83008.711    575.91216 
   10350    290.36227   -705.80757    279886.91   -75636.889    7400.1512    -83037.04    577.61624 
   10400    291.55007   -942.17033    280339.14   -75702.165    7430.4234   -83132.588    581.09399 
   10450    297.46407   -1454.9414    280726.23   -75669.697    7581.1474   -83250.845    584.94092 
   10500    292.98077   -729.11923    280352.44   -75674.718    7466.8862   -83141.604    587.77619 
   10550    296.37806   -1165.0162    279890.93   -75670.235    7553.4692   -83223.704     588.9522 
   10600    296.66442   -776.32494    279602.51    -75677.06    7560.7674   -83237.827    590.78472 
   10650    295.36168   -919.64531    279959.91   -75658.406    7527.5658   -83185.972    595.06993 
   10700    291.04571   -1321.3881    280603.74   -75677.715    7417.5695   -83095.285    599.56031 
   10750     291.6972   -1105.4767       280955   -75644.062    7434.1733   -83078.235    602.22727 
   10800    292.03036   -1445.1419    280895.42   -75660.889     7442.664   -83103.553    605.01363 
   10850    297.34488   -1346.3467    280187.95   -75619.375    7578.1097   -83197.485    607.12165 
   10900     295.9434   -710.13774    279212.96   -75633.419    7542.3916    -83175.81    608.29276 
   10950    303.01247   -611.03536    279347.23   -75645.015    7722.5533   -83367.568      611.599 
   11000     297.5274   -1212.9008    280311.36   -75673.068    7582.7612   -83255.829    615.66712 
   11050    291.43171    -1150.431    281043.14   -75683.369     7427.407   -83110.776     620.9977 
   11100     286.5975   -1256.4096    281256.19   -75642.442    7304.2025   -82946.644    625.80122 
   11150    288.94756   -1085.9296    280532.24   -75662.802    7364.0961   -83026.898    626.81026 
   11200    296.25419   -715.99964    279610.12   -75668.382    7550.3124   -83218.694    628.81211 
   11250    297.31959   -902.28233     279280.1   -75706.333    7577.4651   -83283.798    629.79235 
   11300    292.33853   -654.32373    279594.17   -75688.077    7450.5182   -83138.595    631.60388 
   11350    291.93513   -1199.1411    280393.55   -75712.943    7440.2371   -83153.181    634.89379 
   11400    294.65583   -1491.2613    280889.57   -75714.797    7509.5768   -83224.374    638.66307 
   11450    290.31924   -1110.8666     280679.2   -75757.471    7399.0546   -83156.525    641.26079 
   11500    286.90783   -944.98951    280143.88   -75757.989    7312.1117   -83070.101    642.53964 
   11550    288.81323   -856.43771    279701.54   -75783.769    7360.6727   -83144.442    644.24236 
   11600    291.48696   -637.96418    279577.75   -75767.292     7428.815   -83196.107    647.83674 
   11650    289.50361   -775.47775    279952.15   -75748.446    7378.2676   -83126.714    651.25894 
   11700    290.47304   -1140.5806    280435.66   -75701.446    7402.9744    -83104.42    654.75133 
   11750    294.37873   -1093.8128    280646.17   -75722.683    7502.5146   -83225.198       658.07 
   11800    291.43014   -1093.0619     280544.2   -75741.079    7427.3669   -83168.446    660.68105 
   11850     292.6993   -893.52885    280020.77   -75672.294    7459.7126   -83132.006    662.63494 
   11900    288.30232   -848.48907    279607.38   -75762.202    7347.6517   -83109.854    665.81368 
   11950    292.75284   -1066.3319    279901.91    -75755.78    7461.0773   -83216.857    669.63564 
   12000    292.53034   -1118.8814    280257.06   -75755.033    7455.4067    -83210.44    671.41839 
   12050    290.55763   -1103.8205    280354.25   -75744.095    7405.1302   -83149.225    673.64562 
   12100     289.7621   -961.63786    280222.01   -75715.351    7384.8555   -83100.207    675.90563 
   12150    288.52529   -1045.3521    280037.02   -75709.893    7353.3342   -83063.227    678.52085 
   12200    291.63567   -1009.6115    279767.96    -75706.19    7432.6051   -83138.796    680.50094 
   12250    295.44852   -808.41109     279624.1   -75677.215    7529.7792   -83206.994    682.67763 
   12300    294.57099   -1025.9645    279941.23   -75680.283    7507.4144   -83187.697    687.68262 
   12350    301.09366   -971.61349     280307.3   -75717.456    7673.6508   -83391.106    691.74292 
   12400    290.25383   -964.20866    280679.31   -75747.982    7397.3875   -83145.369     695.2299 
   12450    291.18947   -1163.8448    280880.25    -75714.09    7421.2333   -83135.324    697.49172 
   12500    291.80551   -736.36151    280326.58   -75681.886    7436.9335   -83118.819    700.02261 
   12550     290.9993    -605.6141    279978.91   -75735.931    7416.3865   -83152.317    701.87012 
   12600     294.0368   -779.42714    280243.73   -75677.095    7493.8002   -83170.895    705.20568 
   12650    290.80978   -885.19427    280484.73   -75691.965    7411.5565   -83103.522    708.86136 
   12700    292.46452   -966.61506    280630.26   -75663.378     7453.729   -83117.107    711.76212 
   12750    294.40278   -912.55515     280504.7   -75710.281    7503.1275   -83213.409    713.43321 
   12800    288.79816   -939.69464    280256.62    -75730.23    7360.2886   -83090.518    714.81845 
   12850     290.5882   -1085.8588    279912.83   -75734.381    7405.9095    -83140.29    717.48519 
   12900    295.75413   -746.50724    279734.14   -75724.969     7537.568   -83262.537     720.5696 
   12950    293.00042   -1202.7797    280259.76   -75724.681    7467.3871   -83192.068    723.84579 
   13000    292.50327   -1110.8287    280739.89   -75693.171    7454.7168   -83147.888    726.59602 
   13050    291.31411   -1205.2086    280558.58   -75679.362    7424.4098   -83103.772    728.52448 
   13100    295.37398   -811.00784    280105.17   -75662.442    7527.8795   -83190.321    731.00983 
   13150    290.37198   -931.98762    279915.22   -75684.109    7400.3988   -83084.508    732.74919 
   13200    296.77774   -876.24334    279505.92   -75720.592    7563.6555   -83284.248    733.97284 
   13250    289.33906   -1056.4382    279642.47   -75769.114    7374.0738   -83143.188    737.39492 
   13300    289.69661   -850.46106    280122.48   -75763.476    7383.1863   -83146.662    742.16644 
   13350    290.68214   -1129.0146    280906.32   -75721.859    7408.3035   -83130.162      747.674 
   13400    289.72519   -1118.1417    280907.38   -75746.033    7383.9147   -83129.948    749.95712 
   13450    286.64713   -1075.3981    280184.06   -75789.914    7305.4675   -83095.381    751.60203 
   13500    291.05433   -656.33149    279357.17   -75764.212    7417.7891   -83182.002    754.45379 
   13550    289.75717   -612.07144    279373.02   -75849.681    7384.7297   -83234.411    758.17268 
   13600    286.81915   -1134.4818    280163.36   -75842.702    7309.8516   -83152.554    761.64934 
   13650    287.91495   -1073.6139    280718.91    -75842.97    7337.7792    -83180.75    764.82865 
   13700    289.14698   -1017.9307    280578.29    -75833.88    7369.1785   -83203.058     766.6215 
   13750    287.89637   -900.11608    279813.24   -75822.793    7337.3056   -83160.099    767.99493 
   13800    289.52729   -770.39046    279317.52   -75874.883     7378.871   -83253.754    769.01655 
   13850    292.51516   -782.82142    279438.34     -75868.9    7455.0198    -83323.92    770.89708 
   13900    287.85878   -1063.6622     280059.3   -75833.099    7336.3475   -83169.447    774.78276 
   13950    287.10737   -1205.8067    280747.98   -75840.604    7317.1973   -83157.801    780.02139 
   14000    291.17741   -1093.4045    280627.18   -75788.537    7420.9259   -83209.462    782.53153 
   14050    286.87519    -961.3778    279796.44   -75787.466    7311.2797   -83098.746    783.31133 
   14100    285.93681   -552.18094     279117.3   -75781.919    7287.3644   -83069.283    784.45205 
   14150    288.77154   -833.33354    279457.02   -75786.145    7359.6102   -83145.755    788.00433 
   14200     288.4045    -895.5514    280300.78   -75769.097    7350.2557   -83119.353    792.76186 
   14250    289.15715   -1151.6535    280836.33   -75673.315    7369.4377   -83042.752    796.99634 
   14300    292.54656   -1241.4791    280567.15   -75707.586      7455.82   -83163.406     800.2928 
   14350    296.64215   -971.43224    279866.93   -75720.762    7560.1999   -83280.962     801.7343 
   14400    294.39113   -718.18364    279375.01   -75703.433    7502.8305   -83206.264    801.89537 
   14450    289.37033   -834.89372    279791.02   -75745.993    7374.8709   -83120.864    805.94418 
   14500    292.01196     -1024.48    280603.65   -75742.614    7442.1951   -83184.809     809.8135 
   14550    288.17009   -1199.6224    281051.11   -75783.327    7344.2816   -83127.609    811.62382 
   14600    294.97875   -892.71103    280319.12   -75786.443    7517.8065   -83304.249    812.01363 
   14650     292.6452   -869.09996    279671.74   -75811.444    7458.3339   -83269.778     814.4892 
   14700     294.4965   -879.00296    279517.67   -75785.319     7505.516   -83290.835    817.77818 
   14750    290.26967   -920.24813    279878.73   -75787.005    7397.7913   -83184.796     821.5988 
   14800    286.63977   -1075.0439    280087.77   -75831.932      7305.28   -83137.212    825.36281 
   14850    287.63318   -850.84516    279884.67   -75838.664    7330.5978   -83169.262    826.46287 
   14900    287.77256   -801.56632    279700.59   -75845.882    7334.1502   -83180.032    827.77716 
   14950    284.69149   -939.79402    279867.69   -75917.019    7255.6261   -83172.645    830.53939 
   15000     289.2739   -1030.1355    280238.84   -75904.653    7372.4133   -83277.067    833.75296 
   15050      288.101   -1262.7813    280491.34   -75901.599    7342.5207    -83244.12    835.37055 
   15100    292.27799   -1226.0012    280227.04   -75880.004    7448.9751   -83328.979    837.86338 
   15150    290.23757   -828.28858    279867.03   -75893.325    7396.9732   -83290.299    839.69381 
   15200    294.37379   -962.50097    279760.41   -75892.236    7502.3886   -83394.625    841.43625 
   15250    289.78672   -984.00164    279741.28   -75899.425    7385.4828   -83284.908    844.27286 
   15300    292.49597   -1055.6329    279793.51   -75857.046    7454.5305   -83311.576    846.84421 
   15350    293.96331   -1269.4271    280116.64   -75852.307    7491.9272   -83344.235    849.64747 
   15400    286.05136   -925.23084    280213.24   -75811.718    7290.2837   -83102.002    851.43564 
   15450    286.67439   -851.36362    280395.22   -75819.345    7306.1623   -83125.508    855.54733 
   15500    291.56643   -1048.1984    280594.52   -75798.341    7430.8403   -83229.181    858.33233 
   15550    291.64499    -969.1961    280326.72   -75808.145    7432.8427   -83240.987    860.38279 
   15600    295.58658   -1058.0533    280083.33   -75812.809    7533.2977   -83346.107    861.16505 
   15650    288.72357   -1120.6633    280130.11   -75817.755    7358.3876   -83176.142     863.7039 
   15700    290.80585   -995.35571    280285.03   -75792.885    7411.4565   -83204.341    866.77917 
   15750    289.81307   -816.43784    280193.22   -75796.101    7386.1545   -83182.255    869.38904 
   15800    293.34357   -1059.1468    280182.37   -75791.156    7476.1325   -83267.289    871.41814 
   15850    286.43056   -846.63214    280130.92   -75767.965     7299.948   -83067.913    874.16822 
   15900    291.87544   -996.84817    280280.82   -75764.094    7438.7158    -83202.81    877.08419 
   15950    292.95681   -1167.2641    280103.44   -75740.916    7466.2755   -83207.191    880.80639 
   16000    294.19495   -1065.6152    279752.51    -75714.32    7497.8306   -83212.151    881.42437 
   16050    298.25021   -803.63977    279574.11   -75674.552    7601.1827   -83275.734    884.57084 
   16100    295.86248   -690.51225    279782.78   -75666.864    7540.3293   -83207.194    887.70069 
   16150    289.85225   -1071.7165    280423.56   -75657.614    7387.1529   -83044.767     890.9568 
   16200    292.91487   -960.52935    280648.66   -75597.455    7465.2066   -83062.662    893.88796 
   16250    298.79869   -1152.2646    280383.29   -75589.815    7615.1614   -83204.976    897.32765 
   16300    297.36645   -909.21374    279849.83   -75616.428    7578.6593   -83195.087    900.70526 
   16350    293.56807   -573.41427    279707.91   -75640.747    7481.8541   -83122.601    902.13592 
   16400     295.3371   -853.58703     280035.3   -75614.864    7526.9394   -83141.803    905.06542 
   16450    291.70579   -836.57577    280552.85   -75645.662    7434.3922   -83080.054    907.98291 
   16500    296.33064   -1159.8029    280972.87   -75609.259    7552.2608    -83161.52    910.71603 
   16550    292.07054   -986.67853    280914.02   -75574.777    7443.6881   -83018.466    912.67064 
   16600    293.00759   -989.93301    280424.15   -75559.969    7467.5698   -83027.539    913.41746 
   16650    296.53461   -850.10076    279974.99   -75515.505    7557.4592   -83072.964    914.71335 
   16700    297.69115   -1079.8714    279866.52   -75599.043    7586.9346   -83185.978    918.29933 
   16750    296.41416   -1051.7768    280172.35   -75611.726    7554.3894   -83166.115    921.22489 
   16800    291.37568   -953.78431    280764.22   -75619.104    7425.9789   -83045.083    925.00578 
   16850    293.13567     -1196.57    280991.94   -75650.155    7470.8339   -83120.989    927.78199 
   16900    295.80777   -1322.4145     280598.8    -75654.77    7538.9349   -83193.705    929.51817 
   16950     288.8494   -994.83681    280081.69   -75617.461    7361.5943   -82979.055    931.10316 
   17000    296.17891   -784.88137       279765   -75667.728    7548.3937   -83216.122    932.49712 
   17050    293.00557   -886.60853    279865.05    -75638.32    7467.5184   -83105.839    935.57334 
   17100    293.44219   -1026.1839     280249.7   -75630.908    7478.6459   -83109.554     940.2967 
   17150    296.43768   -1182.1999    280710.03   -75566.444    7554.9886   -83121.433    944.34179 
   17200    298.95699   -1003.6158    280784.12   -75522.903    7619.1956   -83142.099    948.25082 
   17250    300.38216   -1188.3614    280733.28   -75539.281    7655.5174   -83194.798    951.18716 
   17300    295.82899   -876.47449    280586.01   -75492.879    7539.4756   -83032.355    952.43339 
   17350    294.01006   -1105.1076     280436.5   -75545.281    7493.1186     -83038.4    956.03723 
   17400    293.26369   -799.61038    280148.15   -75565.592    7474.0968   -83039.689    956.92356 
   17450    294.31971   -722.58366    279825.63    -75534.95    7501.0103    -83035.96    958.30936 
   17500    294.41548   -905.79879    279823.28   -75587.275     7503.451   -83090.726    960.67756 
   17550    298.86891   -923.36862    279950.85   -75639.868    7616.9509   -83256.819    963.49931 
   17600    299.23041   -704.92655    280307.88   -75611.681    7626.1639   -83237.845    966.92059 
   17650     296.0178   -965.86611    280800.44   -75553.412    7544.2877     -83097.7    969.86178 
   17700    292.62019   -1137.0953    280896.16   -75523.715    7457.6965   -82981.411    971.51419 
   17750    298.19837   -942.43717    280166.14   -75524.399    7599.8616   -83124.261    972.84142 
   17800    293.42636   -833.86593    279605.55   -75524.734    7478.2425   -83002.976    974.58088 
   17850    299.40253   -1023.7658    279754.53   -75554.823    7630.5506   -83185.373    977.39987 
   17900    298.60015    -871.6407    280033.74   -75582.636    7610.1012   -83192.737    981.01105 
   17950    295.80381   -1196.1983    280386.54   -75593.624    7538.8339   -83132.458    985.54781 
   18000    288.17279   -1416.8611    280637.06   -75641.713    7344.3505   -82986.063     988.6484 
   18050     299.3971   -1100.1464    280359.71   -75689.185    7630.4122   -83319.597    992.59366 
   18100    297.19301   -1246.0257    280020.52   -75724.063    7574.2389   -83298.302    994.32126 
   18150    294.55777    -694.0926    279865.33   -75764.266    7507.0775   -83271.343    997.21283 
   18200    291.81331   -977.68491    280330.09   -75705.981    7437.1323   -83143.113    1000.4389 
   18250    294.87399   -1237.5484    280506.84   -75645.353    7515.1367    -83160.49    1004.5224 
   18300    292.54484   -1026.5082    280181.59   -75625.192    7455.7762   -83080.969    1003.9488 
   18350    289.25871   -941.00468    280120.84    -75622.82     7372.026   -82994.846    1005.0978 
   18400    293.80412    -1039.503     280123.5   -75628.941    7487.8701   -83116.811    1007.9684 
   18450    294.58236   -1025.1313    280028.69   -75653.986    7507.7042    -83161.69    1010.6181 
   18500    291.57521   -996.92304    280136.49   -75615.605    7431.0642   -83046.669    1012.1889 
   18550    292.54419   -948.75587    280202.61   -75583.674    7455.7595   -83039.434    1013.9222 
   18600    292.54541   -902.67296    280294.48   -75553.125    7455.7906   -83008.915    1016.4877 
   18650    294.95684   -963.86287    280501.21   -75578.302    7517.2483    -83095.55    1019.4434 
   18700    298.85627   -1196.0713    280595.04   -75596.826    7616.6289   -83213.455    1021.1907 
   18750    299.30097    -891.8653       280404   -75525.603    7627.9624   -83153.565    1024.1462 
   18800    292.68521   -904.10786    280157.87   -75536.084    7459.3536   -82995.438    1026.3854 
   18850    297.21812   -1019.5194    279949.19   -75580.818     7574.879   -83155.697    1028.3058 
   18900    296.22677   -911.31565    279989.17   -75601.544    7549.6134   -83151.158    1030.1216 
   18950    295.68694   -823.85338    280460.58   -75624.317    7535.8555   -83160.173    1032.3255 
   19000     292.5649   -1407.2447    281088.14   -75582.667    7456.2875   -83038.954    1037.3813 
   19050    292.79402   -836.34906    280761.09    -75558.24    7462.1267   -83020.367    1039.3462 
   19100     294.9154   -926.11277    280110.97   -75607.179    7516.1922   -83123.371    1038.0549 
   19150     293.6407   -916.43428    279765.62   -75584.728    7483.7052   -83068.433     1041.176 
   19200    297.09968   -1107.0707    279957.84   -75592.982    7571.8604   -83164.843    1044.1726 
   19250    294.96495    -977.7198    280317.76   -75585.046    7517.4548   -83102.501    1048.6358 
   19300    295.47914   -1110.3389    280437.79   -75601.531    7530.5594    -83132.09    1051.1072 
   19350    292.94582   -705.42314    280219.96   -75626.238    7465.9956   -83092.233     1052.882 
   19400    293.28836    -1172.165    280075.77   -75641.431    7474.7254   -83116.156     1054.912 
   19450    290.80831   -904.97439    279955.08   -75669.432    7411.5192   -83080.951    1056.6794 
   19500    292.04171   -1094.8457    279988.18   -75731.083    7442.9535   -83174.036    1058.9736 
   19550    295.71829   -805.47249    279875.38   -75672.306    7536.6545   -83208.961     1062.061 
   19600    294.12001   -959.34482    280147.36   -75654.234    7495.9208   -83150.155    1067.3195 
   19650    293.74575   -935.76875    280481.79   -75608.818    7486.3825   -83095.201    1070.6232 
   19700    294.43448   -971.49255    280640.65   -75556.342    7503.9353   -83060.277    1071.7948 
   19750    292.43478   -1205.3594    280729.84   -75580.293    7452.9711   -83033.264     1075.752 
   19800    296.54594   -1088.6169    280532.93   -75603.902    7557.7479    -83161.65    1078.3755 
   19850    297.93109   -990.49856    280105.16   -75586.631    7593.0497    -83179.68    1078.3185 
   19900    300.64994   -818.23802    279836.43   -75530.429     7662.342   -83192.771    1078.4397 
   19950    295.52607   -940.82504    280147.48   -75529.849    7531.7555   -83061.604    1080.7393 
   20000    295.38835   -1251.6089    280631.87   -75495.822    7528.2455   -83024.068    1084.2484 
   20050      292.809    -1067.531    280792.88   -75533.739    7462.5086   -82996.248    1086.5978 
   20100    294.61602   -1195.3966    280690.78   -75564.415     7508.562   -83072.977    1088.6096 
   20150    292.46453   -1078.6126    280020.62   -75603.278    7453.7294   -83057.007    1087.9194 
   20200    296.13647   -800.96899    279644.25   -75613.769    7547.3121   -83161.081    1090.0436 
   20250    294.19004   -852.37637    280090.33   -75632.111    7497.7055   -83129.816    1092.4296 
   20300    293.42346   -1396.2086    280793.26   -75601.762    7478.1686    -83079.93    1095.2003 
   20350    295.33015   -1101.8546     280803.2   -75594.357    7526.7622   -83121.119    1096.5022 
   20400    294.84706    -1163.078    280629.12   -75560.579    7514.4504   -83075.029    1098.5931 
   20450    297.73206   -1380.0949    280219.27   -75528.317    7587.9771   -83116.294    1097.7086 
   20500    292.26237   -879.53007    279984.01    -75524.16     7448.577   -82972.737    1101.5854 
   20550    295.91007   -1079.6032    280395.88   -75508.829    7541.5422   -83050.371    1105.3112 
   20600    292.49084    -767.5922     280863.5   -75484.638       7454.4   -82939.038    1108.8404 
   20650    294.69794   -1115.8163    281056.61   -75434.363      7510.65   -82945.013    1110.5259 
   20700    292.29958   -996.40488    280684.16   -75511.984    7449.5254   -82961.509    1112.3955 
   20750    294.09548    -1045.021    280531.03   -75505.469    7495.2957   -83000.765    1113.9949 
   20800    293.80835   -809.36768    280321.35   -75498.182    7487.9779    -82986.16    1116.9287 
   20850    296.45534   -951.54475    280365.14   -75498.334     7555.439   -83053.773    1121.2829 
   20900    298.11359   -910.56531    280477.61   -75417.245     7597.701   -83014.946    1122.0766 
   20950    298.59788   -1249.4897    280531.41   -75474.022    7610.0435   -83084.066    1123.7916 
   21000    294.85951   -1081.4952     280513.3   -75501.501    7514.7676   -83016.269    1125.3457 
   21050    295.58999   -956.23892    280370.55   -75450.166    7533.3846    -82983.55    1129.4057 
   21100    297.80156   -1279.9763    280048.99   -75435.294    7589.7484   -83025.043    1130.2184 
   21150    296.43942   -981.54328     279707.4   -75482.287    7555.0332    -83037.32    1130.5104 
   21200    294.38481   -907.35959    279926.61   -75497.854    7502.6695   -83000.524    1132.9459 
   21250     300.3723   -1005.3629    280599.22   -75531.048    7655.2661   -83186.314    1137.3578 
   21300    296.74988   -1468.4473    281198.04   -75516.027    7562.9454   -83078.973    1141.5898 
   21350    294.61109   -1314.2293    280856.95   -75592.683    7508.4365    -83101.12    1143.4197 
   21400    293.13656   -716.31935    279880.59   -75602.831    7470.8567   -83073.688    1143.1463 
   21450    291.99737   -794.85277    279593.42   -75596.054    7441.8233   -83037.877    1143.2362 
   21500    296.13302   -774.88438    280001.05   -75568.183    7547.2242   -83115.408    1145.9912 
   21550    298.82057     -1299.28    280519.83   -75564.979    7615.7188   -83180.698    1149.2784 
   21600    292.45435   -657.80995    280374.01   -75612.282      7453.47   -83065.752     1152.171 
   21650    295.07388    -1058.644    280149.57    -75627.84    7520.2311   -83148.071    1154.1459 
   21700      295.742   -815.39644    279867.37   -75604.661    7537.2588    -83141.92    1155.6432 
   21750    296.22918   -848.19844    280026.92    -75606.53     7549.675   -83156.205    1156.8304 
   21800    289.21465   -1160.9957    280730.61   -75607.158    7370.9032   -82978.062    1159.1476 
   21850    291.57828   -1279.9033    280847.27   -75601.514    7431.1424   -83032.656    1163.2498 
   21900    295.91559   -1147.3199    280395.58   -75587.673    7541.6827   -83129.356    1163.8449 
   21950    300.24258   -1229.4749    280028.66   -75605.031    7651.9602   -83256.991    1164.4381 
   22000    298.27067   -840.94764    279980.88   -75564.174    7601.7042   -83165.878    1164.1855 
   22050    295.79188   -1197.0077    280489.65   -75547.517      7538.53   -83086.047    1169.1322 
   22100    298.39026   -1330.6402    280987.79   -75526.142     7604.752   -83130.894    1172.9334 
   22150    290.87562   -1002.2649    280708.68    -75513.54    7413.2345   -82926.774    1172.0433 
   22200    294.81229   -925.78728    280109.52   -75511.239    7513.5641   -83024.803    1172.9038 
   22250    299.97461   -702.31964     279619.6   -75543.237    7645.1307   -83188.368    1174.8761 
   22300    289.98198   -957.30812    279959.91   -75565.466    7390.4594   -82955.926    1178.9569 
   22350     291.5166   -993.77297    280422.48    -75570.15    7429.5704   -82999.721    1181.5545 
   22400    290.65587   -819.70924    280560.93   -75583.072    7407.6339   -82990.706    1184.1062 
   22450    295.92615   -1217.2169    280502.79   -75561.572     7541.952   -83103.524    1186.6562 
   22500    293.35046   -992.40736    280366.74   -75476.848    7476.3082   -82953.157    1188.6597 
   22550    294.24661   -1178.0799    280380.93   -75507.433    7499.1472    -83006.58     1191.299 
   22600    294.26029   -1117.3096    280434.13   -75537.717     7499.496   -83037.213      1192.82 
   22650    296.73082   -982.92096    280421.83   -75523.417    7562.4597   -83085.877    1194.9496 
   22700    290.75596   -1250.3707    280413.67   -75535.997     7410.185   -82946.182    1197.0423 
   22750    297.34566   -988.81845    280031.93   -75506.289    7578.1294   -83084.419    1197.4381 
   22800    293.58341   -1082.7338    280012.22    -75529.34     7482.245   -83011.585    1200.1941 
   22850     299.4099   -849.91456    280185.42   -75520.463    7630.7385   -83151.201    1204.0228 
   22900     291.4444    -1065.579    280369.18   -75460.989    7427.7305   -82888.719    1206.7358 
   22950    297.22621    -873.5193    280288.32   -75486.499    7575.0851   -83061.584    1211.1576 
   23000    299.06492   -994.00734    280218.69   -75553.758    7621.9464   -83175.704    1213.5411 
   23050    294.89118   -971.90647    280566.68   -75543.908    7515.5748   -83059.483    1215.2238 
   23100    295.00394   -1289.3966    280577.35   -75584.745    7518.4485   -83103.194    1216.5499 
   23150    296.82472   -873.60061    279941.45   -75597.953    7564.8528   -83162.806    1216.0766 
   23200    301.71835   -705.28232    279548.52   -75567.944    7689.5716   -83257.516    1218.1964 
   23250     294.6117   -762.63533    279907.68   -75549.587    7508.4519   -83058.039    1222.8555 
   23300    292.57971   -964.81346    280614.82   -75554.538    7456.6649   -83011.203     1227.967 
   23350      292.262   -1131.9113    280964.66   -75562.287    7448.5676   -83010.855    1231.0742 
   23400    292.48178   -1281.1293    280611.17   -75552.425     7454.169   -83006.594    1231.8776 
   23450    293.10243   -802.32017    279946.11   -75580.861    7469.9867   -83050.847    1233.4891 
   23500    295.35601   -824.20778    279727.81   -75613.488    7527.4214    -83140.91     1234.837 
   23550    296.78823   -802.91957     279858.7   -75612.827     7563.923    -83176.75    1236.2718 
   23600    296.11862   -922.57932    280177.46   -75622.042    7546.8572   -83168.899    1239.4519 
   23650    293.39128   -1187.7165    280495.37    -75658.37    7477.3484   -83135.718    1242.1025 
   23700    293.23839   -1281.8898    280421.91   -75672.648    7473.4519     -83146.1    1243.5474 
   23750    297.78348    -708.0641    279996.14    -75684.55    7589.2877   -83273.838    1244.7643 
   23800    292.73351   -796.54031    280002.92   -75656.213    7460.5844   -83116.798     1244.257 
   23850    288.99621   -806.94086    280381.57   -75610.513    7365.3359   -82975.848    1248.8653 
   23900    290.01801   -1234.9888    280619.48   -75615.398    7391.3774   -83006.775    1251.0548 
   23950    291.97881   -1135.1589    280387.94   -75657.079    7441.3502   -83098.429    1252.4574 
   24000    293.65428   -858.70275    280263.75   -75638.258    7484.0512   -83122.309    1254.3592 
   24050     293.0324   -1147.4049    280399.26   -75630.332     7468.202   -83098.534    1257.0124 
   24100    292.55646   -942.59491    280408.39   -75633.958    7456.0722    -83090.03    1260.3246 
   24150    297.67226   -1016.6837    280173.07   -75609.139    7586.4533   -83195.592    1260.9269 
   24200    298.39341   -979.81335    279882.35   -75630.746    7604.8323   -83235.578    1261.5699 
   24250    294.60691   -985.06924    279947.02    -75565.73    7508.3298    -83074.06    1265.0324 
   24300    294.45707   -819.92401    280108.47   -75595.212    7504.5109   -83099.723    1269.3616 
   24350    290.87756   -1226.8376    280499.95   -75619.913    7413.2839   -83033.197    1273.1172 
   24400    293.22748   -1103.7084    280527.46    -75635.93     7473.174   -83109.104     1274.836 
   24450    294.27862   -975.97867    280245.92   -75647.001    7499.9631   -83146.964    1276.2106 
   24500    294.84881   -798.87703    279790.91    -75663.88    7514.4949   -83178.375    1278.8509 
   24550    285.74917   -862.88107    279772.38   -75689.376    7282.5822   -82971.958    1279.9666 
   24600    292.34825   -840.92082    279929.28   -75709.627     7450.766   -83160.393    1283.1989 
   24650    288.28468   -933.76106    280270.39   -75695.281    7347.2019   -83042.483    1287.5028 
   24700    290.14039   -1019.3154    280526.42   -75692.561    7394.4965   -83087.058    1290.8585 
   24750    291.35471   -1254.9052    280472.72   -75675.453    7425.4447   -83100.897    1291.6195 
   24800    296.74358   -989.95539    280037.43   -75706.603    7562.7848   -83269.388    1291.5461 
   24850    297.81432   -732.11709    279611.89   -75710.551    7590.0736   -83300.625     1293.265 
   24900    289.78314   -968.07549     279758.6   -75743.999    7385.3915    -83129.39    1295.2349 
   24950    294.92389    -977.0401    280124.39   -75748.552    7516.4083    -83264.96    1297.6973 
   25000    296.06494   -1141.0139    280303.03   -75712.916    7545.4892   -83258.405    1300.8954 
   25050    293.81551   -1211.4348    280260.38   -75693.096    7488.1603   -83181.256    1303.5706 
   25100    291.32311   -1068.0755    280229.78   -75715.436    7424.6393   -83140.075     1306.509 
   25150     294.5083   -869.06037    280279.63   -75695.736    7505.8166   -83201.553    1309.9153 
   25200     293.5287   -1217.0531     280624.4   -75654.417    7480.8508   -83135.268     1313.334 
   25250    294.45815   -1160.7179    280561.64   -75638.616    7504.5386   -83143.155    1314.6592 
   25300    296.02371   -959.81791    279991.32   -75619.679    7544.4384   -83164.117    1314.7292 
   25350    294.23213    -864.6651     279728.9   -75629.029    7498.7782   -83127.807    1316.5435 
   25400    292.75384   -1240.5493    279962.51   -75648.717    7461.1026    -83109.82    1318.8419 
   25450    295.33777    -1191.604    280217.62   -75667.958    7526.9565   -83194.914    1321.3512 
   25500    293.59729   -1066.2316    280485.71   -75678.252    7482.5987   -83160.851    1324.1821 
   25550    289.11777   -1274.6285    280520.39   -75676.617    7368.4341   -83045.051    1325.8344 
   25600    291.76414   -1226.0467    280327.07   -75693.244    7435.8793   -83129.124    1328.2818 
   25650     293.2486   -1226.4006    280018.96    -75670.66    7473.7122   -83144.372     1330.052 
   25700    296.46818   -1052.3362    279673.16   -75641.727     7555.766   -83197.493    1331.1975 
   25750    297.20989   -991.09598    279857.32   -75660.678    7574.6692   -83235.347    1334.7377 
   25800    290.24678   -849.78452     280473.8   -75630.722    7397.2079   -83027.929    1339.6782 
   25850    293.71056    -1167.456    280732.13   -75631.602    7485.4856   -83117.087    1343.1156 
   25900    291.88378   -914.86147    280452.51   -75675.381    7438.9284    -83114.31    1345.9036 
   25950    293.48264    -990.1392    279976.66   -75700.981    7479.6769   -83180.658    1346.9447 
   26000     287.7306   -1045.4703    279457.02   -75736.265    7333.0808   -83069.346    1348.7401 
   26050    292.82085   -632.37907    279229.96   -75746.332    7462.8104   -83209.143    1351.1661 
   26100    289.74458    -821.1423    279755.49   -75755.113     7384.409   -83139.522     1354.459 
   26150    296.49198   -936.54801    280627.15   -75683.589    7556.3727   -83239.962     1360.024 
   26200    288.50497   -1276.9764    281291.54   -75660.255    7352.8164   -83013.071    1363.2428 
   26250    292.58087   -1126.4034    280921.93   -75625.529    7456.6944   -83082.224    1365.4842 
   26300    297.41331   -1094.9871    279891.06   -75638.955    7579.8535   -83218.808    1365.5827 
   26350     296.8448    -887.7607    279305.69   -75604.511    7565.3646   -83169.876     1366.523 
   26400    294.20532   -864.36445     279589.7   -75610.889     7498.095   -83108.984    1370.5053 
   26450    292.78442   -1052.1144    280188.48   -75649.572    7461.8822   -83111.454    1373.4759 
   26500    293.12404    -1019.774    280796.61   -75608.309    7470.5375   -83078.846    1377.6021 
   26550    292.74161   -1202.9713       280957   -75645.182    7460.7911   -83105.974     1382.694 
   26600    296.25926    -809.3586    280512.38    -75643.32    7550.4416   -83193.761    1382.6906 
   26650    294.31754    -1091.622    279749.28   -75678.313    7500.9549   -83179.268    1382.0314 
   26700    293.46736   -688.26596    279146.84   -75744.243    7479.2874   -83223.531    1381.8305 
   26750    297.61944   -1006.7824    279460.28   -75780.354    7585.1071   -83365.461    1386.8407 
   26800    294.13529   -1002.6415    280040.64    -75773.93    7496.3101    -83270.24    1391.4804 
   26850    291.91801   -1190.5954     280494.2   -75802.579    7439.8008    -83242.38    1395.5192 
   26900    293.34482   -1081.2982    280313.05   -75839.663    7476.1643   -83315.827     1397.797 
   26950     293.6949   -839.60048    279908.01   -75834.046    7485.0865   -83319.132    1399.5793 
   27000    287.31597   -565.52059     279666.3   -75854.467    7322.5134   -83176.981    1400.8667 
   27050    294.66371    -1240.158    280123.64    -75849.18    7509.7775   -83358.957    1405.3783 
   27100    286.72328   -990.27116    280606.64   -75875.402    7307.4084    -83182.81    1410.1372 
   27150    287.07784   -1113.1279    280659.13   -75768.742    7316.4445   -83085.186    1412.7453 
   27200    294.51428   -813.03559    279960.65   -75781.761    7505.9692    -83287.73    1412.7606 
   27250    291.98324   -1007.7681    279453.21   -75785.537    7441.4632       -83227    1416.2956 
   27300    290.98194    -954.0609    279743.59   -75770.269    7415.9442   -83186.213    1422.6502 
   27350    286.43949   -873.32588    280237.02   -75763.005    7300.1755    -83063.18    1427.5961 
   27400     291.0167    -1079.479    280588.69   -75726.629      7416.83   -83143.459    1430.6489 
   27450    290.59103   -1516.9631    280634.85    -75683.39    7405.9815   -83089.372    1432.7789 
   27500    292.09528   -1097.7846    280306.31   -75649.399    7444.3186   -83093.718     1436.623 
   27550    295.85051   -706.36879    279699.65   -75646.756    7540.0243    -83186.78    1439.3732 
   27600    292.69405   -620.80902    279451.38   -75632.996    7459.5789   -83092.575    1440.9546 
   27650    289.81283   -720.34789    280025.22   -75655.007    7386.1484   -83041.156    1443.6167 
   27700    293.49617   -1292.3998    280873.44    -75648.14    7480.0218   -83128.161    1450.5216 
   27750    290.75495   -1376.8121    281188.94   -75598.826     7410.159   -83008.985     1453.664 
   27800    294.51243    -1154.819    280702.81   -75657.244    7505.9219   -83163.166    1454.4247 
   27850    295.48738   -864.83843    279825.63   -75636.034    7530.7695   -83166.803    1456.1492 
   27900    298.38973   -913.19757     279359.5   -75567.361    7604.7386     -83172.1    1456.5664 
   27950    289.83428   -714.71966    279676.34   -75573.716    7386.6949   -82960.411    1461.1768 
   28000    297.74452   -1100.1209    280459.94   -75576.337    7588.2947   -83164.631    1467.7425 
   28050    295.48326   -1054.1932    281034.77   -75538.506    7530.6646    -83069.17    1472.2754 
   28100     290.2707   -1052.6817    281127.64   -75533.918    7397.8176   -82931.736    1475.6206 
   28150      292.034   -994.30635    280727.44   -75571.164    7442.7569   -83013.921    1476.1364 
   28200      295.204   -809.83369    280030.51   -75613.448    7523.5473   -83136.996     1474.538 
   28250    296.43813   -899.16007    279452.57   -75561.129    7555.0002   -83116.129    1476.3455 
   28300    296.88928    -838.5827    279526.14   -75579.683    7566.4982   -83146.181    1481.2444 
   28350     297.2459   -1044.2361    280289.94   -75604.007    7575.5869   -83179.594    1487.8826 
   28400    293.24578   -1271.2407    280894.38   -75585.725    7473.6403   -83059.366     1494.203 
   28450    296.91233   -955.03433    280600.82   -75586.358    7567.0857   -83153.444    1496.6238 
   28500    297.75679   -959.07019    280391.97   -75535.534    7588.6075   -83124.142    1499.1413 
   28550    298.68546   -1064.9492    280384.53   -75496.196    7612.2755   -83108.471    1501.0924 
   28600    300.66559   -1126.4634    280562.67   -75457.138    7662.7409   -83119.879    1503.5869 
   28650    295.61571   -1110.5105    280606.91   -75467.696      7534.04   -83001.736    1505.7108 
   28700    300.05965   -750.98759    280495.34   -75429.889     7647.298   -83077.187     1507.756 
   28750    297.10597   -992.39472    280544.44   -75465.753    7572.0207   -83037.773    1508.6576 
   28800    294.14321   -943.47265    280551.02   -75540.104     7496.512   -83036.616    1510.7116 
   28850     296.6615   -1100.4312    280552.01   -75549.079     7560.693   -83109.772     1513.024 
   28900    294.48425   -1147.8911    280397.23   -75561.699    7505.2037   -83066.903    1515.1574 
   28950    292.17026   -947.99142    280076.98   -75574.908    7446.2296   -83021.138    1515.6993 
   29000    293.99377   -825.92883     279952.5   -75621.582    7492.7036   -83114.286    1519.0933 
   29050    295.88506   -1080.6277    280206.32   -75617.347    7540.9046   -83158.251    1521.6964 
   29100    295.82386   -887.58157    280444.74   -75598.286     7539.345   -83137.631    1523.4686 
   29150    295.49959      -1067.2    280567.78   -75609.217    7531.0806   -83140.298     1527.329 
   29200    292.79388   -1174.4648    280628.89    -75596.56    7462.1233   -83058.683     1529.933 
   29250    295.44145   -954.59803    280507.41   -75551.452    7529.5989   -83081.051    1533.8184 
   29300    295.54586   -766.62053     280228.6   -75602.715    7532.2599   -83134.974    1535.3777 
   29350    294.02677   -792.43078    280123.16   -75635.085    7493.5445   -83128.629    1537.8978 
   29400    293.37205    -738.0605    280137.45   -75657.442    7476.8584   -83134.301    1540.2854 
   29450    296.51593   -1084.4261    280409.36   -75658.081    7556.9831   -83215.064     1544.349 
   29500    291.98641   -1226.7927    280608.85   -75666.907    7441.5441   -83108.451    1548.5122 
   29550    298.10636   -912.00637    280553.21    -75634.23    7597.5165   -83231.746    1551.5353 
   29600    297.61758   -1119.7073    280316.49   -75608.485    7585.0595   -83193.545    1553.4713 
   29650    294.02849   -792.60201    279825.41   -75594.644    7493.5884   -83088.233       1552.5 
   29700    291.60031   -937.28657    279887.98   -75627.817     7431.704   -83059.521    1554.0937 
   29750    292.17668   -1275.2971    280182.31    -75603.37    7446.3932   -83049.763    1557.3609 
   29800    295.74967   -1155.4668       280378   -75579.589    7537.4542   -83117.043    1560.8955 
   29850    294.56159   -1031.1013    280760.05   -75561.155    7507.1748    -83068.33    1565.0865 
   29900    297.92166    -1190.323    280788.81   -75520.788    7592.8094   -83113.598    1568.9807 
   29950    297.79617   -997.71808    280645.22    -75510.11    7589.6112   -83099.721    1572.9172 
   30000    296.27528   -1006.5467    280416.97   -75545.164    7550.8497   -83096.014    1574.9955 
   30050    298.53171   -936.06367    280346.98   -75580.457     7608.357   -83188.814    1577.2471 
   30100    292.67982   -927.34687    280274.46   -75533.176    7459.2162   -82992.392    1580.4973 
   30150    297.61162   -967.77802    280159.91   -75542.688    7584.9076   -83127.596    1584.8418 
   30200    295.05948   -673.59426    280051.72   -75543.243     7519.864   -83063.107    1588.0729 
   30250    290.49149    -780.9718    280200.34   -75548.358    7403.4446   -82951.803    1591.8578 
   30300    295.79972   -1328.4586    280807.62   -75518.147    7538.7298   -83056.876    1594.1892 
   30350    290.92718   -1151.8379     281011.2   -75531.675    7414.5487   -82946.223    1597.1117 
   30400    296.50182    -1241.114    280690.18    -75611.26    7556.6235   -83167.883    1596.8737 
   30450     296.5105   -1181.3597    279990.04   -75647.185    7556.8447   -83204.029     1595.367 
   30500    295.92687   -665.72299     279378.9   -75603.894    7541.9702   -83145.865    1594.5236 
   30550    299.37581    -1014.164    279601.35   -75606.346    7629.8696   -83236.215    1595.7731 
   30600    295.29406   -1131.7883    280183.52   -75638.219    7525.8426   -83164.061    1600.3714 
   30650    299.84443   -1321.8128    280816.33   -75653.801    7641.8128   -83295.613     1605.037 
   30700    289.75829    -850.9725    280895.82   -75644.912    7384.7583    -83029.67    1607.2522 
   30750    292.69336   -986.43598    280566.81   -75680.341    7459.5613   -83139.902    1608.0588 
   30800    292.91508   -984.47358    279932.09   -75734.405    7465.2119   -83199.617    1608.7534 
   30850     297.7114   -1028.5816    279358.06   -75766.495    7587.4506   -83353.946    1607.7066 
   30900    292.84968   -847.08515    279411.33   -75744.851    7463.5454   -83208.397    1610.8906 
   30950    293.62241   -1114.1823    279956.82   -75752.578    7483.2389   -83235.817    1613.3909 
   31000    286.32872   -1071.0049    280339.61   -75743.032    7297.3527   -83040.385    1617.6242 
   31050    289.61007   -1132.4778    280351.84   -75727.471    7380.9807   -83108.452    1619.6512 
   31100    290.39027   -1133.0547    280259.16   -75703.975    7400.8649    -83104.84    1620.9819 
   31150    294.76655   -949.05711    280099.38   -75676.693    7512.3986   -83189.091     1620.472 
   31200    291.67786   -758.01947    280048.88   -75663.466    7433.6803   -83097.146    1621.9823 
   31250     292.9435   -949.00045    280579.86    -75653.97    7465.9363   -83119.907    1627.2457 
   31300     294.0776   -1295.9611    281060.39   -75643.866      7494.84   -83138.707    1629.5505 
   31350    292.06553   -1109.8389    280807.68   -75669.766    7443.5603   -83113.326    1632.1459 
   31400    297.52739    -1058.959    280118.18   -75712.183     7582.761   -83294.944    1633.4966 
   31450    296.85237   -945.21482     279607.4   -75709.487    7565.5576   -83275.044    1631.9257 
   31500    293.30497   -858.21444    279808.06    -75701.64    7475.1487   -83176.789    1635.7753 
   31550    295.76629   -1018.7465    280227.19   -75716.586    7537.8777   -83254.464    1641.8842 
   31600    291.07927   -827.98551    280516.07   -75722.033    7418.4247   -83140.458    1645.3616 
   31650    293.80879   -1144.4429    280526.42   -75660.581    7487.9891    -83148.57    1647.5788 
   31700    288.40607   -869.36269    280108.54   -75675.892    7350.2956   -83026.187    1649.0741 
   31750     291.8372   -1179.1459    280052.57   -75679.366    7437.7413   -83117.108     1650.907 
   31800    292.47916    -806.2144    280068.05   -75685.518    7454.1021    -83139.62    1653.0914 
   31850    286.34319   -942.83117    280045.38   -75714.139    7297.7213    -83011.86    1657.4033 
   31900    292.71915   -1069.1017    280058.23    -75740.32    7460.2186   -83200.538    1660.1539 
   31950    294.52885   -1090.5733    280117.97   -75708.736    7506.3404   -83215.077    1663.2923 
   32000    292.43115   -829.96287    280030.23   -75731.571    7452.8785   -83184.449    1664.0621 
   32050    294.90678     -1101.61    280198.98   -75750.369    7515.9724   -83266.341    1666.6609 
   32100    294.42546   -1193.5942    280109.49   -75727.407    7503.7055   -83231.113    1668.8489 
   32150    294.45127   -966.82214    279818.26    -75765.71    7504.3633   -83270.074    1670.4267 
   32200    290.50065   -888.22436    279754.86    -75730.74    7403.6782   -83134.419    1673.8648 
   32250     293.6279   -922.25152     279841.2   -75714.284     7483.379   -83197.663    1677.5213 
   32300    289.20382   -1117.0273    280160.44   -75724.923    7370.6271    -83095.55    1681.9413 
   32350    289.01267    -1047.961    280710.31   -75711.152    7365.7555   -83076.907    1684.2647 
   32400     291.7211   -1389.3354    280979.88   -75706.063    7434.7823   -83140.845     1687.922 
   32450    293.24833   -1089.9798     280312.6    -75752.17    7473.7053   -83225.875    1687.6932 
   32500    293.33606   -1039.0517    279490.61    -75734.35     7475.941   -83210.291    1688.0172 
   32550    289.72818   -685.76185    279411.24   -75755.256     7383.991   -83139.247    1690.9869 
   32600    291.48074   -806.80066     279942.9   -75690.791    7428.6565   -83119.448    1695.3166 
   32650    297.31044   -1130.8078    280588.92   -75688.979     7577.232   -83266.211    1700.9717 
   32700    291.38837   -999.98194    280921.48   -75687.008    7426.3025   -83113.311     1703.717 
   32750     289.8721   -1303.7688    280765.49   -75660.158    7387.6589   -83047.817    1705.4236 
   32800    299.12781   -1176.0189     280040.7   -75698.607    7623.5492   -83322.156    1703.8693 
   32850     297.6881   -1123.7002    279395.25   -75700.905    7586.8568   -83287.762    1702.5105 
   32900    293.17847   -444.77013    279431.58   -75728.653    7471.9249   -83200.578    1704.8921 
   32950    289.58673   -954.62271    280322.72   -75750.572    7380.3861   -83130.959    1710.5466 
   33000     289.8178   -1232.4898    280805.45   -75689.024    7386.2749   -83075.299    1714.7159 
   33050    291.19439   -907.72483    280470.27   -75683.205    7421.3587   -83104.564    1715.2875 
   33100    294.67679    -1052.116    279973.14   -75712.594    7510.1108   -83222.704    1714.4284 
   33150    294.48623   -928.35934    280003.33   -75721.171    7505.2542   -83226.425    1714.7248 
   33200    292.09557   -1045.2819    280142.37   -75748.115    7444.3261   -83192.441    1719.3012 
   33250    292.85445   -969.98313    280181.07   -75756.147    7463.6668   -83219.814     1722.021 
   33300    297.61609   -1103.7637    280373.06   -75743.814    7585.0215   -83328.835    1725.3123 
   33350    293.43755   -1042.6478    280197.92   -75780.795    7478.5276   -83259.323    1728.2663 
   33400    296.02434   -801.46427    279865.48   -75752.077    7544.4543   -83296.531    1729.9593 
   33450    291.44507   -789.87644    279691.93   -75733.927    7427.7474   -83161.674    1731.5534 
   33500    297.00409   -1176.2994    280012.14   -75763.518    7569.4244   -83332.943    1735.0394 
   33550    294.40818   -1204.2412    280540.89   -75731.585    7503.2651    -83234.85    1741.5766 
   33600    289.99679   -1033.3941    280546.73   -75750.214    7390.8367    -83141.05     1744.872 
   33650    292.51287   -1193.5224    280270.06   -75754.323    7454.9614   -83209.284    1745.8425 
   33700    289.55135   -886.75184    279791.38   -75724.398    7379.4843   -83103.882     1746.896 
   33750    298.01656    -926.6766    279660.21   -75712.244     7595.228   -83307.472     1748.464 
   33800    293.81327   -857.55711    279997.68   -75715.188    7488.1033   -83203.291    1752.4146 
   33850    291.95764   -833.94706    280269.66    -75722.23    7440.8108    -83163.04    1756.0555 
   33900    292.66423   -1393.2713    280608.76   -75738.426    7458.8189   -83197.244    1760.3128 
   33950    294.28848   -1102.0478    280514.84   -75748.424    7500.2144   -83248.638    1761.9538 
   34000    291.08302   -941.54813    279951.19   -75721.545    7418.5202   -83140.066    1762.5918 
   34050     292.3983    -991.0294    279479.41   -75739.767    7452.0414   -83191.808    1761.2478 
   34100    288.73998   -856.33955    279502.62   -75758.812    7358.8057   -83117.618    1765.2459 
   34150    291.68378   -1013.5493    280144.86    -75752.04    7433.8312   -83185.871    1770.6054 
   34200    290.92412   -1035.8783    280565.46   -75754.255    7414.4707   -83168.726    1775.0372 
   34250    294.87531   -1172.9028    280498.84   -75748.515    7515.1702   -83263.685    1776.3927 
   34300    291.70314   -923.07885    280119.14   -75702.813    7434.3247   -83137.138    1778.2098 
   34350    291.89852    -1116.313    279935.43    -75721.83    7439.3041   -83161.134    1780.2007 
   34400    293.27693   -803.19281    280010.31   -75762.172    7474.4341   -83236.606    1782.7757 
   34450    289.14923   -1065.2572    280320.09   -75705.167    7369.2358   -83074.403    1785.7239 
   34500    291.85553   -1410.7508    280620.88   -75744.945    7438.2085   -83183.154    1791.2483 
   34550    292.39889   -977.04091    280160.45   -75799.638    7452.0565   -83251.695    1792.1384 
   34600    290.92406   -710.93792    279587.13   -75838.564     7414.469   -83253.033    1792.9906 
   34650    291.47992   -942.84391    279482.86   -75816.132    7428.6357   -83244.768    1795.7799 
   34700    293.28604   -895.11617    279634.44   -75783.124    7474.6662    -83257.79    1797.8971 
   34750    289.03086   -963.88683    279990.81   -75802.571    7366.2192   -83168.791    1803.1131 
   34800    292.70605   -1269.5249    280318.03   -75768.312    7459.8847   -83228.196    1806.9692 
   34850    291.41346   -1182.0576     280220.8   -75806.649    7426.9418   -83233.591    1807.3298 
   34900     285.7008   -1111.5684    279843.03   -75810.677    7281.3493   -83092.026     1806.769 
   34950    294.47305   -615.10659    279274.55   -75776.461    7504.9182   -83281.379    1806.1591 
   35000    294.30311   -699.75767    279433.43   -75780.744    7500.5873   -83281.332    1808.0156 
   35050    292.96254   -892.72961     280237.1   -75747.851    7466.4215   -83214.273    1813.3764 
   35100    294.08758   -1164.1081    280720.87   -75778.443    7495.0943   -83273.537    1819.1064 
   35150    291.58063   -1160.7599    280149.53    -75803.45    7431.2023   -83234.652    1818.8204 
   35200    291.28942   -885.54437    279230.88   -75808.861    7423.7805   -83232.642    1817.6777 
   35250    290.97398   -946.48869    278966.17   -75769.794    7415.7412   -83185.535    1820.3814 
   35300    294.03252   -915.40102    279528.19     -75737.3     7493.691   -83230.991    1824.3121 
   35350    292.03625   -1209.1605    280449.65   -75705.709    7442.8142   -83148.523    1831.3256 
   35400    292.27428   -1352.0995     280827.7   -75740.125    7448.8807   -83189.006    1836.3432 
   35450    292.22065    -1013.484    280365.71   -75721.454    7447.5139   -83168.968    1836.6801 
   35500    293.50812   -892.20576    279989.76   -75694.063    7480.3261   -83174.389    1839.0401 
   35550     290.3436   -860.87045    279784.12   -75736.114    7399.6755   -83135.789    1842.2331 
   35600    295.04531   -1060.3336    279696.12   -75649.962     7519.503   -83169.465    1845.0554 
   35650    292.29351   -689.18416    279905.49   -75639.317    7449.3708   -83088.687    1848.6306 
   35700    291.92602    -1018.353    280463.57   -75680.001     7440.005   -83120.006    1852.1578 
   35750    293.34358   -781.99934    280557.79    -75678.11    7476.1328   -83154.243    1854.4322 
   35800    294.42185   -899.90149    280375.25   -75698.352    7503.6136   -83201.966    1854.5947 
   35850    294.09808   -1224.4851    280200.65   -75673.236    7495.3619   -83168.598    1856.8977 
   35900     292.5136   -855.33828    280129.75   -75671.008      7454.98   -83125.988    1858.8926 
   35950    293.46463   -995.98199    280424.99   -75677.874    7479.2177   -83157.092     1863.072 
   36000    291.83603   -1064.5195    280214.99   -75708.664    7437.7115   -83146.376    1863.7117 
   36050    290.28918   -1072.9357    279979.34   -75746.553    7398.2885   -83144.842    1863.1544 
   36100    294.19563   -623.41852    279727.02   -75722.025    7497.8481   -83219.873    1861.9641 
   36150    290.01115   -983.28882     280297.1   -75706.877    7391.2027    -83098.08    1867.1062 
   36200    290.99042    -865.4072    280831.48   -75693.803    7416.1602   -83109.963    1872.4559 
   36250    291.34535   -1090.5278    280783.09   -75675.947    7425.2061   -83101.153    1875.3358 
   36300    293.15909   -1016.5545    280051.61   -75730.833    7471.4308   -83202.264    1872.2775 
   36350    294.09796   -487.25988    279479.57   -75672.294    7495.3589   -83167.653    1872.3361 
   36400    293.65996     -955.909     279791.7   -75716.853     7484.196   -83201.049    1876.4467 
   36450    290.96939   -1098.5061    280352.51   -75680.843    7415.6244   -83096.467    1881.3846 
   36500    296.58576   -1082.1589    280568.27   -75679.228    7558.7628   -83237.991    1881.2778 
   36550    291.97094   -1078.6473    280500.01   -75646.622    7441.1498   -83087.772    1883.0937 
   36600    294.36034   -1186.3486       280368   -75623.978    7502.0457   -83126.024    1883.3748 
   36650    293.77746   -1360.5819    280174.97   -75653.663    7487.1905   -83140.854    1886.4471 
   36700    295.46792   -1121.0125    279674.87   -75650.932    7530.2734   -83181.205    1886.7599 
   36750    294.67898   -702.44403    279448.74   -75683.705    7510.1667   -83193.872    1888.0348 
   36800    292.93634   -709.20849    280057.03   -75639.259    7465.7538   -83105.013    1894.3609 
   36850    294.84822   -1379.8478    280897.45   -75634.029      7514.48   -83148.509    1900.1871 
   36900    291.72177   -1218.8539    281030.99   -75641.512    7434.7994   -83076.311    1901.8993 
   36950    289.19077   -690.63373    280169.38   -75688.007    7370.2945   -83058.302     1901.675 
   37000      292.964   -504.09483    279240.83    -75727.75    7466.4587   -83194.209    1899.5039 
   37050    292.47439   -601.33423    279389.88   -75737.892    7453.9807   -83191.872     1900.189 
   37100    289.39801   -1188.5871    280278.58    -75682.61    7375.5763   -83058.187    1907.9989 
   37150    288.05102   -1102.6064     280711.3   -75679.478    7341.2469   -83020.725    1912.8708 
   37200    290.91429   -1191.7943    280570.69   -75695.073      7414.22   -83109.293    1913.3113 
   37250    291.08864   -1056.9093    280037.88   -75704.793    7418.6635   -83123.457    1913.3798 
   37300     290.7736   -785.21292    279664.45   -75725.168    7410.6344   -83135.803    1913.2909 
   37350    291.36974   -745.64965    279817.54   -75713.474    7425.8276   -83139.301    1915.8594 
   37400    290.47397    -919.7623    280189.28   -75690.711     7402.998   -83093.709    1920.8857 
   37450    293.25438   -970.18977    280548.35   -75692.611    7473.8595   -83166.471    1923.8369 
   37500    295.69217   -1299.9257    280534.35   -75691.711    7535.9887     -83227.7    1925.7929 
   37550    292.39703   -1067.0787    280274.99   -75685.566    7452.0089   -83137.575    1925.5978 
   37600    291.09927   -1134.1919    280104.06    -75701.86    7418.9344   -83120.794    1927.1833 
   37650    291.47836   -728.32473    279625.02   -75701.365    7428.5958   -83129.961    1927.9802 
[...]
   90850      293.826   -1016.1221    280335.16   -75500.998    7488.4275   -82989.426    4747.8227 
   90900     292.9161   -793.30804    280234.03   -75512.941     7465.238   -82978.179    4751.8603 
   90950    298.80323    -1168.249    280497.67   -75544.961    7615.2769   -83160.238    4758.2313 
   91000    298.24897   -1022.3434    280530.03   -75524.674    7601.1512   -83125.825    4760.5903 
   91050    295.89607   -973.57234    280511.99   -75552.745    7541.1854    -83093.93    4764.1047 
   91100    295.37989   -1156.2442    280530.83   -75502.974    7528.0299   -83031.004     4765.275 
   91150    295.26098   -670.56053    280359.32   -75527.336    7524.9996   -83052.336    4764.3818 
   91200    294.59708   -915.98411    280475.83   -75559.369    7508.0795   -83067.448    4766.9853 
   91250    296.43964   -1256.4544    280460.27    -75573.87    7555.0386   -83128.909    4773.9472 
   91300    298.31005   -1134.2814    280050.81   -75581.617    7602.7078   -83184.325    4773.1768 
   91350    294.62069   -813.28579    279831.89   -75587.584    7508.6812   -83096.265    4776.6711 
   91400    297.96093   -1031.2389    280197.93   -75626.157    7593.8103   -83219.967    4782.8909 
   91450    298.10169   -1224.4555    280577.99   -75644.127    7597.3976   -83241.525    4792.2701 
   91500    292.09612   -995.31722    280716.06   -75637.773    7444.3401   -83082.114    4797.6513 
   91550    302.60109    -1012.933    280414.32   -75640.584    7712.0689   -83352.653    4797.5068 
   91600    292.94799   -1272.8753    280088.49   -75668.212    7466.0508   -83134.263    4796.5317 
   91650    292.66005   -778.02181    279733.67   -75736.911    7458.7124   -83195.624     4796.677 
   91700    293.34343   -1039.4014    279851.15   -75744.083     7476.129   -83220.212    4802.2433 
   91750      290.583    -934.0901    280240.24   -75689.577    7405.7769   -83095.354    4809.0507 
   91800    291.80162   -1099.1157    280617.62   -75686.057    7436.8346   -83122.891    4814.1725 
   91850    291.53756   -1190.3043    280562.46   -75718.803    7430.1047   -83148.907    4815.9651 
   91900    291.83274   -1121.9895    280014.45   -75706.974    7437.6276   -83144.602    4811.8857 
   91950    295.26218   -920.30309    279356.39   -75765.231      7525.03   -83290.261    4808.8641 
   92000    293.80258   -543.43117    279360.57   -75730.911    7487.8307   -83218.742    4811.1326 
   92050    292.68896   -866.56458    280011.12   -75777.328    7459.4492   -83236.777    4819.1861 
   92100    290.40665   -1173.9235     280543.9   -75700.707    7401.2825   -83101.989    4828.3109 
   92150    293.22419   -1021.1795    280453.61   -75698.574    7473.0899   -83171.664    4830.2069 
   92200    296.87072    -905.3602    280143.65    -75691.81    7566.0253   -83257.836    4826.8145 
   92250    294.56197   -1368.0496    280037.03   -75672.415    7507.1845     -83179.6    4827.9452 
   92300    290.78932    -1070.227    279897.68   -75681.202    7411.0351   -83092.237    4828.9251 
   92350    294.81131   -872.92908    279799.29   -75695.416    7513.5391   -83208.955    4831.5819 
   92400    295.06878   -986.08084    279979.53   -75695.755     7520.101   -83215.856    4837.3086 
   92450    296.92629   -1032.1991    280151.66   -75681.036    7567.4414   -83248.477     4844.561 
   92500     293.3125   -1112.7927    280457.71   -75687.627    7475.3406   -83162.967    4852.7471 
   92550    293.35173   -652.84738    280274.48   -75695.223    7476.3405   -83171.564    4852.0975 
   92600      293.102   -1046.4462    280260.61   -75740.711    7469.9759   -83210.687    4856.2003 
   92650    295.19143   -1030.3871    280053.46   -75719.881    7523.2269   -83243.108    4859.4765 
   92700    290.67033   -900.98337    279964.96   -75717.597    7408.0025   -83125.599    4865.0543 
   92750    286.27437   -953.35645    279982.66    -75773.18    7295.9674   -83069.147    4865.1508 
   92800    290.49642   -1262.4676    280016.73   -75760.822    7403.5702   -83164.392    4867.7516 
   92850     290.6033   -1190.6247    280049.51   -75739.724    7406.2942   -83146.018    4872.3011 
   92900    294.33869   -865.24487    280000.56   -75750.343    7501.4939   -83251.837     4875.901 
   92950    292.51385   -1139.5256    280009.53   -75738.041    7454.9863   -83193.027    4881.1001 
   93000    292.73937   -825.28373     280006.6   -75704.962     7460.734   -83165.696    4885.4966 
   93050    293.74819   -1125.9911     280091.5   -75674.418    7486.4446   -83160.862    4888.9591 
   93100    294.09856    -782.8163    279807.55   -75642.071    7495.3742   -83137.445    4889.4312 
   93150    300.20801   -1014.1023     279972.9   -75666.779     7651.079   -83317.858     4893.191 
   93200    292.05601   -1299.7375    280203.35   -75629.604    7443.3177   -83072.922    4901.6966 
   93250    296.41714   -963.09214    280183.36   -75610.518    7554.4652   -83164.983    4907.1675 
   93300    293.49565   -1140.4897     280355.8    -75631.06    7480.0083   -83111.069    4915.9197 
   93350    293.18454   -1098.9524    280471.26   -75675.306    7472.0795   -83147.385    4917.3491 
   93400    291.43793   -1235.2396    280442.91   -75682.996    7427.5655   -83110.562    4919.7346 
   93450    290.41125   -862.23563    279846.11    -75690.83    7401.3995   -83092.229    4915.3734 
   93500    294.90782   -691.32735    279404.78   -75690.979    7515.9989   -83206.977    4911.8848 
   93550    297.06702   -1149.2544    279712.51   -75683.677    7571.0279   -83254.705    4919.0259 
   93600     291.1294    -919.8764     280297.8    -75638.71    7419.7022   -83058.412    4932.0008 
   93650    291.56556   -1364.8551    280642.68   -75640.291    7430.8182   -83071.109    4938.0982 
   93700    299.00697   -1093.3552    280523.68    -75642.66    7620.4696    -83263.13    4938.4244 
   93750    292.84034   -850.70592    280271.06    -75619.62    7463.3071   -83082.927    4937.1481 
   93800    290.68259   -1120.3708     280047.5   -75615.035    7408.3151    -83023.35    4937.8713 
   93850    293.02638   -772.30942    280044.87   -75613.332    7468.0486   -83081.381     4943.848 
   93900    294.86057   -1025.9277    280571.94   -75598.524    7514.7946   -83113.319    4954.1428 
   93950    290.10717   -1143.1837    280862.68   -75581.785    7393.6497   -82975.435    4959.0973 
   94000     296.9086   -1071.5956    280475.26   -75570.931    7566.9907   -83137.922    4953.9677 
   94050    298.04092   -653.40668    279844.21   -75548.819    7595.8487   -83144.668    4952.6666 
   94100    297.37013   -613.80121     279584.8   -75568.318    7578.7531   -83147.071    4952.8726 
   94150    297.15683   -907.01901    280034.37   -75557.663     7573.317    -83130.98    4959.9582 
   94200    293.54694   -1183.3266    280797.82   -75541.118    7481.3155   -83022.434    4974.2213 
   94250    293.98993   -1180.1132       280878   -75513.435    7492.6056    -83006.04     4979.952 
   94300     294.4886   -987.20756    280339.15   -75498.358    7505.3146   -83003.673    4973.5594 
   94350    297.49212   -638.68347    279739.59   -75517.837    7581.8622   -83099.699     4969.654 
   94400     294.4509   -662.00561    279834.47   -75546.157    7504.3538   -83050.511    4976.0969 
   94450    299.41553   -1082.1517    280625.52    -75540.08    7630.8821   -83170.963     4990.328 
   94500    300.15361   -1406.3671    281088.79    -75510.85    7649.6926   -83160.543    5001.4528 
   94550    295.98145    -1256.658    280677.12   -75553.335    7543.3613   -83096.696    4998.5038 
   94600    296.74467   -822.16433    280071.42   -75551.013    7562.8126   -83113.826    4992.0291 
   94650    296.41781   -987.63679    280017.41   -75526.173    7554.4823   -83080.656    4992.0313 
   94700    295.98046   -853.61168    280217.06   -75482.336    7543.3361   -83025.672    4996.6814 
   94750     294.6354     -1283.63    280581.17   -75529.218    7509.0559   -83038.274    5002.1498 
   94800    297.85913   -969.31638     280512.8   -75547.948    7591.2156   -83139.164    5008.7973 
   94850    298.07498   -1293.8836    280274.16   -75566.106    7596.7168   -83162.823    5007.7951 
   94900    295.75584   -1134.5451    279984.64   -75573.779    7537.6115   -83111.391    5009.2989 
   94950    290.93832   -972.32944    279966.58   -75611.828    7414.8326   -83026.661    5011.4712 
   95000    299.59512   -1229.0193    280059.69   -75622.909    7635.4591   -83258.368    5016.4854 
   95050    293.04662   -964.34145    280147.37   -75578.633    7468.5646   -83047.198     5018.783 
   95100    294.69819   -1081.0835    280071.82   -75600.343    7510.6562   -83110.999    5022.2097 
   95150     298.4177   -868.14358     280001.6   -75626.064    7605.4514   -83231.515    5023.8382 
   95200    293.78788   -669.95164    280265.93   -75632.663    7487.4562   -83120.119    5031.3638 
   95250    296.31822   -957.90594    280668.13   -75610.936    7551.9443    -83162.88    5037.9225 
   95300    295.93282    -913.3596    280365.31   -75654.958    7542.1219    -83197.08    5037.2043 
   95350    290.21672   -979.88798    279979.19   -75680.945    7396.4419   -83077.387    5036.1672 
   95400    294.06027   -1203.6705    280083.92   -75638.832    7494.3982   -83133.231    5042.6004 
   95450    290.71209    -814.5379    280183.19   -75644.175    7409.0668   -83053.242    5047.2208 
   95500    293.60655   -1170.4167    280441.38   -75643.656    7482.8349   -83126.491    5052.2144 
   95550    297.70553   -1119.0416    280563.19   -75647.638    7587.3012   -83234.939    5054.3297 
   95600    295.36039   -950.31038    280364.76   -75642.457    7527.5331    -83169.99    5056.2343 
   95650    292.97931   -1032.4386     280161.4    -75679.86    7466.8489   -83146.708      5056.26 
   95700    291.55727   -1054.9198    280089.03   -75660.012    7430.6069   -83090.619    5061.4862 
   95750    294.72558   -902.80631    279943.82   -75657.583    7511.3542   -83168.937    5063.1846 
   95800    296.98645   -1100.2735    279898.25   -75692.813    7568.9747   -83261.788    5064.0039 
   95850    291.43071   -840.83074    279804.35    -75678.55    7427.3816   -83105.931    5065.8355 
   95900    287.26751   -807.91432    279867.42   -75676.363    7321.2785   -82997.641     5070.817 
   95950    294.62986   -759.64605    280303.58   -75661.244    7508.9148   -83170.159    5077.5936 
   96000    296.16034   -1289.6709    280840.01   -75656.262    7547.9206   -83204.183     5088.213 
   96050    287.73703   -1075.8806    280879.22    -75631.77    7333.2446   -82965.014    5095.7319 
   96100    296.99047   -833.97687    280301.16   -75572.764    7569.0771   -83141.841    5092.4683 
   96150    298.01188   -1240.3458    280013.22   -75602.219    7595.1086   -83197.328     5094.969 
   96200    298.44605   -965.87567     279901.1    -75550.03     7606.174   -83156.204    5097.4216 
   96250    298.10063   -994.33069    280134.54    -75553.98    7597.3706   -83151.351    5106.3939 
   96300    295.99948   -865.79134     280502.4   -75546.209    7543.8208    -83090.03     5110.812 
   96350    298.40687   -1109.8393    280806.39   -75554.778    7605.1754   -83159.953     5120.447 
   96400    295.37454   -1271.2618    280303.77    -75601.08    7527.8935   -83128.974    5116.7413 
   96450    295.02287   -675.41295    279479.44   -75585.995     7518.931   -83104.926    5111.4434 
   96500    295.09984   -1069.0302    279630.89    -75572.18    7520.8926   -83093.073     5116.427 
   96550    297.49892   -745.37334    280053.67   -75558.802    7582.0354   -83140.837     5125.577 
   96600    297.24227   -1061.1911    280820.54   -75549.962    7575.4945   -83125.456    5135.3902 
   96650    294.62589   -1619.9091    281276.28   -75582.497    7508.8136   -83091.311    5147.0485 
   96700    292.70814   -878.33223     280648.1   -75604.493     7459.938   -83064.431    5145.1889 
   96750    299.14664   -938.47669    279871.35   -75604.113     7624.029   -83228.142    5137.9951 
   96800     296.4221   -911.35425    279421.17   -75624.182    7554.5917   -83178.774    5131.5982 
   96850     294.1316   -922.35761    279602.11   -75654.885    7496.2161   -83151.101    5141.0123 
   96900    292.77882   -949.01784    280533.15   -75601.451    7461.7394   -83063.191    5155.8661 
   96950    292.73874    -1229.131    281175.87    -75588.16    7460.7179   -83048.878    5164.6646 
   97000    293.55012   -1238.1985    280921.05   -75610.005    7481.3966   -83091.402    5164.0072 
   97050    297.47784   -917.28239    280143.26   -75600.932    7581.4981    -83182.43    5157.7103 
   97100    294.29917   -1010.6401    279355.88   -75657.166    7500.4868   -83157.653    5152.8691 
   97150    293.90669   -980.18008    279310.02    -75665.92    7490.4841   -83156.404    5158.1706 
   97200    293.45373   -954.33498    279946.47   -75644.075    7478.9401   -83123.015    5169.2949 
   97250    293.93443   -1247.2696     280844.5   -75643.887    7491.1911   -83135.078    5186.0435 
   97300    289.88358   -1413.4544    281143.33   -75655.605    7387.9514   -83043.556    5192.6379 
   97350    294.70624   -1178.6712    280529.21   -75697.103    7510.8614   -83207.964    5186.1037 
   97400    293.30938   -964.71654    279795.37   -75717.674     7475.261   -83192.935    5178.6617 
   97450    295.26695   -952.45998    279298.64    -75752.96    7525.1516   -83278.111     5174.278 
   97500    291.97909   -613.18283    279324.75   -75753.315    7441.3576   -83194.672    5175.2598 
   97550    294.79728    -971.7912    280039.33    -75718.54    7513.1815   -83231.722    5184.3802 
   97600    291.22224    -1045.065    280851.67   -75680.818    7422.0685   -83102.886    5197.9562 
   97650    293.69699   -1329.7012    281162.43   -75650.057    7485.1397   -83135.196    5206.2325 
   97700    290.78402   -971.81782    280521.05    -75663.13       7410.9    -83074.03    5198.5475 
   97750     292.2514   -1137.5301    279881.76   -75655.442    7448.2975   -83103.739    5195.3905 
   97800      296.473   -860.72994    279629.24   -75698.698    7555.8889   -83254.587    5199.8535 
   97850    293.45717   -635.32503    279907.13   -75735.725    7479.0278   -83214.752    5209.0096 
   97900    291.27124   -1202.2368    280404.13   -75762.509    7423.3173   -83185.826    5217.2397 
   97950    293.31078   -1117.7168    280610.12   -75725.988    7475.2967   -83201.285    5222.6727 
   98000     293.6465   -985.90652    280214.05   -75744.018    7483.8529   -83227.871     5221.465 
   98050    290.29095   -764.37883    279715.93   -75749.634    7398.3338   -83147.968    5220.6056 
   98100    291.70573   -789.57047    279705.97   -75770.419    7434.3908   -83204.809    5226.7977 
   98150    287.74866    -915.1093    280119.06   -75765.611    7333.5411   -83099.152    5238.5618 
   98200     286.2438   -986.41137    280528.76    -75769.07    7295.1882   -83064.258    5247.5724 
   98250    291.67203   -1305.5916    280768.45   -75757.022    7433.5317   -83190.554    5257.5034 
   98300    288.73635   -1142.0189    280598.11    -75806.14    7358.7133   -83164.853     5260.155 
   98350    285.83915    -1004.078    280139.63   -75804.991    7284.8754   -83089.867    5253.7926 
   98400    290.39228   -960.36067    279278.47   -75784.181    7400.9161   -83185.097    5245.1034 
   98450    295.66667   -647.14538    279098.87   -75758.711    7535.3388    -83294.05    5248.2683 
   98500    294.33045   -1006.7896    279944.31   -75760.835    7501.2841   -83262.119    5266.2119 
   98550    294.35254   -1102.7561    280670.96    -75786.93    7501.8471   -83288.777    5278.7454 
   98600    290.15929   -1277.4529     280822.7   -75785.998    7394.9781   -83180.976     5285.344 
   98650    288.86437   -1105.5956    280238.37   -75792.466    7361.9761   -83154.442    5281.8025 
   98700    289.97621   -767.81864     279586.6   -75783.003    7390.3122   -83173.315    5281.9549 
   98750    294.28463   -862.91265    279298.37   -75774.535    7500.1162   -83274.651    5283.5672 
   98800    298.28573   -945.57815    279489.91   -75781.453     7602.088   -83383.541    5291.7046 
   98850    291.35638   -1025.3373    280167.95   -75750.521    7425.4872   -83176.008    5305.7433 
   98900     295.0712   -999.36329    280704.39   -75749.008    7520.1626   -83269.171    5316.8307 
   98950    294.46945   -1225.8045     280665.7    -75740.05    7504.8266   -83244.877    5322.3856 
   99000    293.26473   -888.72402    280264.93   -75727.122    7474.1232   -83201.245    5323.6304 
   99050    289.54193   -919.94891    280116.93   -75733.873    7379.2442   -83113.117    5327.4891 
   99100     299.3974   -832.29392    279862.94    -75749.68    7630.4201     -83380.1    5328.4759 
   99150    292.86728   -1128.9745    279778.95   -75751.618    7463.9938   -83215.611    5333.0342 
   99200    296.87846   -866.46075    279747.43   -75778.032    7566.2224   -83344.254    5338.7529 
   99250    290.25111   -1035.1647     280058.1    -75789.64    7397.3183   -83186.958    5347.7026 
   99300    293.03145   -945.68489    280353.62   -75819.861    7468.1777   -83288.039    5356.1765 
   99350    291.37434   -978.55549    280326.77   -75828.117    7425.9448   -83254.061    5359.8059 
   99400     293.7362   -1005.0687    280155.84   -75817.645    7486.1392   -83303.784    5359.3276 
   99450    289.45183   -1247.0728    280036.04   -75809.784     7376.948   -83186.732    5358.8337 
   99500    289.83942   -806.06563    279790.72   -75835.023     7386.826   -83221.849    5358.0032 
   99550     290.9511   -897.21223    279874.67   -75794.114    7415.1582   -83209.272    5363.1041 
   99600    294.39842   -877.63634    280031.37   -75797.529    7503.0162   -83300.545    5367.1603 
   99650    287.49874   -1261.3519    280503.59   -75783.045    7327.1716   -83110.217    5375.9037 
   99700    291.53161   -880.31637    280296.35   -75769.763     7429.953   -83199.716    5376.1502 
   99750    291.70307   -1121.0893    279886.72    -75784.74    7434.3228   -83219.063    5375.8509 
   99800    292.62547   -931.41984    279467.61   -75784.174     7457.831   -83242.005    5379.6953 
   99850    293.62408   -928.51955    279522.76   -75777.606    7483.2814   -83260.888    5384.1501 
   99900     289.1284   -1079.6172    279733.74   -75796.421     7368.705   -83165.126     5389.497 
   99950    293.56616   -1159.9275    280011.02       -75779    7481.8054   -83260.805    5394.6601 
  100000    295.07221   -1136.9866    280279.21   -75736.064    7520.1884   -83256.252    5399.5993 
Loop time of 249.148 on 6 procs for 100000 steps with 8551 atoms

Performance: 346.781 ns/day, 0.069 hours/ns, 401.367 timesteps/s
99.5% CPU use with 6 MPI tasks x no OpenMP threads

MPI task timing breakdown:
Section |  min time  |  avg time  |  max time  |%varavg| %total
---------------------------------------------------------------
Pair    | 71.106     | 128.74     | 195.19     | 443.3 | 51.67
Neigh   | 30.802     | 36.391     | 40.271     |  63.4 | 14.61
Comm    | 7.5501     | 77.767     | 141.02     | 610.4 | 31.21
Output  | 0.13256    | 0.13489    | 0.14381    |   1.1 |  0.05
Modify  | 5.0019     | 5.0838     | 5.1276     |   1.7 |  2.04
Other   |            | 1.028      |            |       |  0.41

Nlocal:        1425.17 ave        1476 max        1367 min
Histogram: 1 0 0 1 1 0 1 1 0 1
Nghost:        1984.83 ave        2020 max        1954 min
Histogram: 2 0 1 0 0 0 1 0 0 2
Neighs:        0.00000 ave           0 max           0 min
Histogram: 6 0 0 0 0 0 0 0 0 0
FullNghs:      39459.3 ave       40333 max       38249 min
Histogram: 1 0 1 0 1 0 0 1 0 2

Total # of neighbors = 236756
Ave neighs/atom = 27.687522
Neighbor list builds = 20802
Dangerous builds = 0

# Create data file for import to other simulations
#
write_data data.${NAME}
write_data data.coexist_293K_-1000atm_ML
System init for write_data ...

Total wall time: 0:04:09
