
# Define the lattice
#
variable	    lattice_constant equal 6.36339
lattice		    diamond ${lattice_constant}
lattice		    diamond 6.36339
Lattice spacing in x,y,z = 6.3633900 6.3633900 6.3633900

# Define region
# multiples of lattice spacing
#
region 		    simbox block 0 9 0 8 0 8

# Create Atoms
#
create_box          1 simbox
Created orthogonal box = (0.0000000 0.0000000 0.0000000) to (57.270510 50.907120 50.907120)
  3 by 1 by 2 MPI processor grid
create_atoms        1 box
Created 4608 atoms
  create_atoms CPU = 0.001 seconds
mass                1 18.015

# Define potential
#
pair_style          sw
pair_coeff          * * /data/emrosky-sim/Freezing_Simulations/Melting/MLmW_fancy/ML_mW.sw mW
Reading sw potential file /data/emrosky-sim/Freezing_Simulations/Melting/MLmW_fancy/ML_mW.sw with DATE: 2019-02-27

# Add velocity/set timestep
#
velocity            all create ${TEMP} 120598 rot yes dist gaussian
velocity            all create 293 120598 rot yes dist gaussian
timestep            5.0

# Define output
#
compute	            1 all msd
thermo              100
thermo_style        custom step temp press vol etotal ke pe c_1[4]

# Neighbor lists
#
neigh_modify        delay 0 every 1 check yes

# Set fixes
#
fix                 1 all momentum 10 linear 1 1 1 rescale
fix                 2 all nve
fix                 3 all temp/csvr ${TEMP} ${TEMP} 500.0 928347
fix                 3 all temp/csvr 293 ${TEMP} 500.0 928347
fix                 3 all temp/csvr 293 293 500.0 928347
fix                 4 all press/berendsen iso ${PRES} ${PRES} 1000.0 modulus 20000
fix                 4 all press/berendsen iso -1000 ${PRES} 1000.0 modulus 20000
fix                 4 all press/berendsen iso -1000 -1000 1000.0 modulus 20000

# Run 0.5 ns equilibration
#
dump		    1 all custom 1000 eq.${NAME}.dump id type x y z vx vy vz
dump		    1 all custom 1000 eq.ice_293K_-1000atm_ML.dump id type x y z vx vy vz
run                 100000
Neighbor list info ...
  update every 1 steps, delay 0 steps, check yes
  max neighbors/atom: 2000, page size: 100000
  master list distance cutoff = 6.0032907
  ghost atom cutoff = 6.0032907
  binsize = 3.0016454, bins = 20 17 17
  1 neighbor lists, perpetual/occasional/extra = 1 0 0
  (1) pair sw, perpetual
      attributes: full, newton on
      pair build: full/bin/atomonly
      stencil: full/bin/3d
      bin: standard
Per MPI rank memory allocation (min/avg/max) = 4.779 | 4.779 | 4.779 Mbytes
Step Temp Press Volume TotEng KinEng PotEng c_1[4] 
       0          293   -623.02534    148418.52   -51873.535    4023.6494   -55897.184            0 
     100     195.6755   -837.74456    148980.06   -50220.062    2687.1318   -52907.194  0.098058652 
     200    226.26906   -904.15036    149343.58   -49242.234    3107.2607   -52349.494   0.10835522 
     300    249.21139   -951.95454     149558.4   -48621.989    3422.3183   -52044.307   0.13629624 
     400    264.17016    -965.7372    149706.59   -48211.366     3627.741   -51839.107   0.13951351 
     500    279.21853   -943.15884    149809.79    -47922.49    3834.3941   -51756.884   0.13667643 
     600    285.98772   -954.09898    149893.91    -47646.87    3927.3527   -51574.223   0.15474328 
     700    289.65635   -1032.2407    149957.76   -47598.525    3977.7324   -51576.257   0.14244585 
     800     287.5616   -1038.3748    149968.68   -47501.814    3948.9661    -51450.78   0.15647773 
     900    295.16145   -1010.3824    149965.95   -47480.438    4053.3317   -51533.769   0.15860188 
    1000    287.86409   -993.14955    149943.51   -47527.734    3953.1201   -51480.854   0.14897719 
    1100    290.54642   -1003.9278    149970.43   -47471.291    3989.9555   -51461.247   0.14596657 
    1200    289.39619   -983.91989    149982.76   -47460.103    3974.1598   -51434.263   0.15599477 
    1300    289.30184   -1012.6192    149966.56   -47378.015    3972.8641    -51350.88   0.15538665 
    1400    290.45522   -1011.8378    149987.86   -47484.062     3988.703   -51472.765   0.15175861 
    1500    290.30232   -1020.2435    149948.01   -47508.625    3986.6033   -51495.228   0.14988205 
    1600    296.02191   -974.50221    149952.75   -47448.912    4065.1481    -51514.06   0.15441955 
    1700     289.0016   -969.64218    149962.01   -47471.501    3968.7411   -51440.242   0.15107842 
    1800    295.62914   -968.40381    149950.43   -47464.649    4059.7544   -51524.404   0.15477207 
    1900    295.19451   -1017.6015    149970.63    -47371.58    4053.7857   -51425.366   0.15695255 
    2000    294.24781   -1025.3792    150020.82   -47319.775    4040.7851    -51360.56   0.15161834 
    2100    293.77719   -1059.0656    149998.15   -47484.764    4034.3223   -51519.086   0.15954286 
    2200      292.501   -969.92383    150002.11    -47408.46    4016.7969   -51425.257   0.14265536 
    2300    296.77641   -1002.6285    149992.95   -47341.813    4075.5093   -51417.323   0.16276758 
    2400    294.88762   -982.68986    150032.38   -47370.766    4049.5713   -51420.338   0.15293709 
    2500    299.42602   -993.63088       150025   -47424.277    4111.8954   -51536.172   0.14356309 
    2600    294.21198    -1021.571     150010.8   -47458.505    4040.2931   -51498.798   0.15727728 
    2700    294.62674   -977.85921    150004.49    -47430.17    4045.9888   -51476.158   0.13835508 
    2800    294.30881   -986.75508    149989.94   -47325.242    4041.6227   -51366.864   0.15796898 
    2900    291.14742   -997.58716    149984.52   -47347.729    3998.2088   -51345.938   0.16230739 
    3000    293.68161   -988.57032    149971.18   -47408.039    4033.0097   -51441.049   0.15638936 
    3100    298.07237   -971.87813    149979.59    -47383.25    4093.3063   -51476.556   0.15425899 
    3200     297.9433   -968.31138    149969.27   -47490.242    4091.5337   -51581.775   0.15064884 
    3300    290.49455   -968.27984    149950.86   -47554.383    3989.2431   -51543.626   0.14027086 
    3400    287.16112   -1004.0525    149926.88   -47477.947    3943.4664   -51421.413   0.15656568 
    3500    289.40128   -1038.1933    149942.89   -47447.134    3974.2297   -51421.363   0.15847964 
    3600    293.90962   -984.08705    149936.34    -47447.16    4036.1408   -51483.301   0.15301624 
    3700    295.34394   -978.03004    149960.61   -47409.372    4055.8378   -51465.209   0.15299393 
    3800    291.99956   -1016.0915    149965.34   -47401.068    4009.9108   -51410.979   0.16016739 
    3900    295.59986   -1011.3347     149954.2   -47411.187    4059.3522   -51470.539   0.15567695 
    4000    288.76576   -981.53474    149953.91   -47457.735    3965.5023   -51423.238   0.14958563 
    4100    288.48367   -1029.4015    149953.58    -47478.13    3961.6285   -51439.758   0.16201915 
    4200    287.83343   -1054.0987    149952.81   -47437.038    3952.6991   -51389.737   0.15022579 
    4300    286.28588   -1008.2283    149919.88   -47574.149    3931.4471   -51505.597    0.1573361 
    4400    292.55037   -995.23704    149947.16   -47462.684    4017.4749   -51480.158   0.14915231 
    4500    293.78037   -1002.3059    149917.29   -47517.633    4034.3659   -51551.999    0.1575249 
    4600    286.76229   -975.15416    149908.93   -47549.174    3937.9896   -51487.164   0.14860674 
    4700    292.67895    -979.9132    149943.14   -47453.523    4019.2406   -51472.763   0.14695844 
    4800    297.62745     -957.474    149962.74   -47351.661    4087.1962   -51438.857   0.14714667 
    4900    295.14826   -994.02706    149972.24   -47318.751    4053.1506   -51371.902   0.15781839 
    5000    291.26783   -1021.5232    149953.61   -47449.566    3999.8622   -51449.428   0.15645498 
    5100    294.89953   -1026.1099    149973.51   -47380.202    4049.7349   -51429.937   0.15541795 
    5200    290.13465    -978.6015    149964.94   -47445.342    3984.3008   -51429.643   0.16246119 
    5300    285.29822   -995.30849     149925.3   -47555.622     3917.884   -51473.506   0.14601566 
    5400    285.06255   -997.57993    149913.77   -47519.444    3914.6477   -51434.092   0.15513195 
    5500    295.05325   -996.27409    149898.88   -47484.158    4051.8459   -51536.004   0.15544685 
    5600    290.60759    -1026.033    149876.87   -47525.323    3990.7954   -51516.119   0.15237607 
    5700    287.31413   -1022.3364    149896.79    -47509.86    3945.5677   -51455.428    0.1542739 
    5800    294.08365   -973.28303    149920.61   -47460.872    4038.5307   -51499.403   0.15785676 
    5900      292.615   -1000.3603    149892.98   -47529.498    4018.3624   -51547.861    0.1497581 
    6000    292.82028   -991.09075    149881.18   -47504.114    4021.1814   -51525.295   0.15302661 
    6100    288.73395   -1004.3375    149900.17   -47588.837    3965.0655   -51553.903   0.15153182 
    6200    288.08551   -1002.3098    149864.62   -47560.959    3956.1608    -51517.12   0.15291487 
    6300    293.96711   -1036.5646    149900.08   -47440.569    4036.9304     -51477.5   0.16483256 
    6400    288.29683   -1019.7457    149923.12   -47494.676    3959.0628   -51453.738   0.15583161 
    6500    292.34625   -1024.0051    149924.66   -47517.186    4014.6718   -51531.858    0.1570477 
    6600    295.63068   -1004.9117    149914.16   -47518.925    4059.7755     -51578.7   0.14751635 
    6700    287.28891   -1025.9501    149917.07   -47576.708    3945.2214   -51521.929   0.15800371 
    6800     293.3225   -1005.2303    149907.76   -47529.211    4028.0782   -51557.289   0.15070905 
    6900    296.54058   -977.91295    149905.94   -47446.893    4072.2707   -51519.164   0.15314235 
    7000    293.67803   -1017.6802    149904.31   -47447.403    4032.9605   -51480.364   0.16178084 
    7100     294.2213   -971.14221    149927.89   -47455.778    4040.4211   -51496.199   0.14230107 
    7200    290.06338   -1018.7883    149905.35   -47574.237     3983.322   -51557.559   0.16105272 
    7300    289.28032   -996.08129    149878.28   -47622.781    3972.5685    -51595.35   0.14106927 
    7400    292.38909   -976.81913    149895.54   -47508.593      4015.26   -51523.853   0.15270827 
    7500    290.50808   -1018.4655    149922.07   -47443.534    3989.4289   -51432.963   0.16038784 
    7600    291.49158   -1010.7989    149916.37   -47416.198     4002.935   -51419.133    0.1550653 
    7700    291.68578    -982.5469    149913.06   -47510.445    4005.6018   -51516.047   0.15075181 
    7800    290.96173    -1041.425    149912.07   -47579.222    3995.6587   -51574.881   0.16135493 
    7900     289.8462   -997.05509    149913.18   -47513.476    3980.3396   -51493.816   0.14867385 
    8000     295.3157   -969.80641    149939.91    -47413.62    4055.4499    -51469.07   0.15211606 
    8100    297.66324   -984.42393    149949.72   -47374.588    4087.6878   -51462.276    0.1572865 
    8200    296.73508   -1031.8173    149929.49   -47400.499    4074.9417   -51475.441   0.15034378 
    8300    299.55655   -1039.8855    149949.14   -47360.275    4113.6879   -51473.963   0.16236412 
    8400    298.89971   -965.41062    149951.48   -47329.975    4104.6678   -51434.643   0.15536599 
    8500    297.01998   -998.86243    149939.04   -47423.419    4078.8541   -51502.273   0.15814751 
    8600    291.95124   -990.97912    149932.99   -47435.461    4009.2473   -51444.709   0.14979472 
    8700    294.36194   -998.48427    149916.49   -47407.362    4042.3524   -51449.714   0.16728157 
    8800     289.1679   -1036.9356    149908.94   -47444.768    3971.0248   -51415.793   0.15148428 
    8900    293.91543   -1009.7608    149914.66   -47518.003    4036.2206   -51554.223   0.16308293 
    9000    290.28713   -987.81078    149939.63   -47436.542    3986.3947   -51422.937   0.15764232 
    9100    285.76659   -1035.9011    149932.39   -47489.038     3924.316   -51413.354   0.15348945 
    9200    291.56603   -1004.5923    149929.31   -47380.202    4003.9573   -51384.159   0.16640853 
    9300    292.53351     -1006.74    149931.07   -47541.065    4017.2433   -51558.308   0.14525695 
    9400    285.44482   -998.18424    149912.48   -47496.117    3919.8972   -51416.014   0.15429569 
    9500    290.91475   -1024.5028    149924.95    -47547.34    3995.0135   -51542.354   0.15697908 
    9600     290.0608    -1016.336    149883.66   -47534.292    3983.2866   -51517.579   0.15350515 
    9700    299.18621   -981.67979    149941.81   -47406.231    4108.6021   -51514.833   0.15129411 
    9800    298.11965   -1026.8345    149968.15   -47359.593    4093.9555   -51453.548   0.16523178 
    9900    299.75334   -1021.6509    149939.31   -47393.414    4116.3902   -51509.804   0.15028912 
   10000    295.25004   -1011.6522    149936.91   -47447.216    4054.5483   -51501.765   0.15609124 
   10100    293.00367   -945.63288    149948.05   -47398.866    4023.6999   -51422.566   0.15335884 
   10200    293.67324    -1020.003    149994.01   -47373.312    4032.8947   -51406.207   0.15094557 
   10300    295.38765   -1010.7432    149984.09   -47369.578     4056.438   -51426.016   0.16073267 
   10400    292.29432    -1036.529    149975.67   -47374.986    4013.9586   -51388.945   0.15635997 
   10500    298.28494   -976.49114    149969.48   -47426.821    4096.2254   -51523.047   0.15141616 
   10600    293.53983   -1013.6389    149969.75   -47452.023    4031.0626   -51483.085   0.15059119 
   10700    292.03463   -986.47764    149953.57   -47474.542    4010.3924   -51484.934    0.1544965 
   10800    289.61523   -1018.5946    149920.96   -47601.902    3977.1678    -51579.07   0.14348486 
   10900    285.16216   -990.81368    149893.63    -47583.58    3916.0155   -51499.595   0.15798372 
   11000    284.68522   -1032.8073       149874   -47594.339     3909.466   -51503.805   0.15755173 
   11100    288.77449   -999.59465    149917.51   -47502.057    3965.6222   -51467.679   0.15381358 
   11200    291.03527   -1016.7052    149883.92   -47610.287    3996.6686   -51606.955   0.15675926 
   11300    290.36461    -1003.163    149876.45   -47528.728    3987.4587   -51516.187    0.1471249 
   11400    288.10684   -986.57129    149878.57   -47498.665    3956.4537   -51455.119   0.15881709 
   11500    296.23627   -991.44218    149907.98   -47401.231    4068.0918   -51469.323   0.15067554 
   11600    293.55954   -1027.6927    149913.83   -47400.863    4031.3333   -51432.196   0.16324788 
   11700    297.81043   -1018.8779    149938.41   -47267.588    4089.7092   -51357.297    0.1563003 
   11800    294.83329   -984.23827    149949.23   -47343.764    4048.8253    -51392.59   0.16457163 
   11900    292.00044   -1017.9004    149927.51    -47396.16    4009.9229   -51406.083   0.15336759 
   12000    290.89143   -1003.9012    149938.36   -47353.966    3994.6932   -51348.659   0.16073206 
   12100    297.31215   -973.70488    149910.24   -47409.777    4082.8664   -51492.644    0.1599795 
   12200    293.52323   -990.16061    149916.85   -47413.845    4030.8347    -51444.68   0.15136545 
   12300    290.40071   -985.87663    149888.87   -47470.782    3987.9544   -51458.736   0.16009204 
   12400    290.78621   -1009.5727    149908.96   -47466.031    3993.2483    -51459.28   0.15738169 
   12500    295.84695   -997.22788    149919.99   -47392.619    4062.7454   -51455.365   0.16401358 
   12600    299.17419   -976.29072    149971.71   -47356.836     4108.437   -51465.273    0.1495674 
   12700    291.59433    -1019.867    149974.82   -47434.977     4004.346   -51439.323    0.1635018 
   12800    297.09305   -977.52396    149961.89   -47418.229    4079.8577   -51498.086   0.14641549 
   12900    295.27647   -1001.7544    149944.84   -47485.935    4054.9112   -51540.846   0.15835102 
   13000    292.01125    -999.8276    149961.56   -47454.275    4010.0713   -51464.346   0.15151813 
   13100    289.38539   -996.46997    149938.29   -47529.917    3974.0114   -51503.928   0.15388149 
   13200    286.53152   -1017.7917    149914.75   -47558.317    3934.8205   -51493.137   0.16032261 
   13300    286.15117   -1000.0064    149903.65   -47643.445    3929.5973   -51573.042   0.14864994 
   13400    287.96281   -978.09698    149872.55   -47620.197    3954.4758   -51574.673   0.15186871 
   13500    289.28231   -991.47614    149924.74    -47536.86    3972.5959   -51509.456   0.15329575 
   13600    293.15319   -1009.0342     149918.7   -47482.503    4025.7532   -51508.257   0.15978252 
   13700    285.91843   -1016.9988    149946.45   -47518.499    3926.4012   -51444.901   0.14591796 
   13800    291.28548   -977.63089    149953.61   -47463.733    4000.1047   -51463.838   0.16355851 
   13900    295.12137   -978.29511    149950.92   -47457.251    4052.7813   -51510.032   0.14706548 
   14000    297.84724    -1045.029    149986.56   -47344.942    4090.2146   -51435.157   0.15364403 
   14100    295.98979   -975.82171    149955.75   -47433.432     4064.707   -51498.139     0.157885 
   14200    296.68824    -997.1878    149980.43   -47445.288    4074.2985   -51519.586    0.1466311 
   14300    292.61491   -1027.7445    149973.45    -47481.39    4018.3611   -51499.751   0.15555573 
   14400    290.06623   -1001.9671    149945.55    -47533.61    3983.3611   -51516.972   0.15262682 
   14500    291.44876   -1002.4384    149945.73   -47549.269    4002.3469   -51551.616   0.15278742 
   14600    291.19677   -992.34789    149966.29   -47497.783    3998.8864   -51496.669   0.14767387 
   14700    288.81561   -963.43231    149977.32   -47449.302    3966.1869   -51415.489   0.15981551 
   14800    298.33763   -1013.1209    150010.08   -47428.549    4096.9489   -51525.497   0.14437225 
   14900    292.74326   -1016.4226    149990.06   -47442.768    4020.1238   -51462.892   0.15700986 
   15000    289.85312   -1006.7233    149945.71   -47504.243    3980.4345   -51484.678   0.15483098 
   15100    291.47589   -1011.9853    149968.72   -47525.264    4002.7194   -51527.984   0.14706752 
   15200    290.71104   -970.76838    149984.87   -47452.398     3992.216   -51444.614   0.15511206 
   15300    294.50807   -1010.0385    149951.09   -47539.712    4044.3591   -51584.071   0.14929119 
   15400    291.62375   -958.77906    149939.39   -47524.101    4004.7499   -51528.851   0.14535066 
   15500    294.57152    -996.9442    149936.27   -47465.841    4045.2305   -51511.072   0.15399053 
   15600    294.10029   -1005.3483    149956.73   -47329.351    4038.7592    -51368.11   0.16254863 
   15700    299.93742   -1004.0836    149974.36   -47355.088    4118.9181   -51474.006   0.14696838 
   15800     295.9558   -1023.5894    149960.79   -47352.947    4064.2403   -51417.187   0.17127998 
   15900    294.85292   -973.04642    149963.02   -47378.313    4049.0948   -51427.408   0.14447182 
   16000    298.87089   -1034.3562    149957.73   -47424.835    4104.2719   -51529.106   0.15336782 
   16100    297.05841   -976.67954    149946.62   -47454.701    4079.3819   -51534.083    0.1555986 
   16200    292.32349   -987.42238    149958.71    -47469.22    4014.3593   -51483.579   0.14629341 
   16300    291.94085   -1031.6852     149926.6   -47489.051    4009.1046   -51498.156   0.15718303 
   16400    288.26334   -1011.4662    149934.49   -47499.307    3958.6028    -51457.91   0.15633936 
   16500    292.38778   -1004.1461    149947.91   -47413.611    4015.2421   -51428.853   0.15485132 
   16600    291.39994   -995.11249    149958.81   -47341.076    4001.6765   -51342.753   0.15584365 
   16700    296.82241   -1000.6472    149955.96   -47379.634    4076.1411   -51455.775   0.16076612 
   16800    291.35377   -1012.1209    149951.09   -47440.761    4001.0425   -51441.804   0.15029742 
   16900     297.8113   -990.47026    149965.93   -47466.208    4089.7211   -51555.929   0.15459751 
   17000    294.15799   -1011.1995    149940.84   -47516.413    4039.5517   -51555.965   0.14980176 
   17100    291.78901   -1069.9549     149938.3   -47464.477    4007.0194   -51471.496   0.15775716 
   17200    290.65707   -1029.5838    149916.16    -47529.87    3991.4749   -51521.345   0.15624342 
   17300    287.41108    -961.1005    149897.86   -47623.007    3946.8991   -51569.906   0.14910848 
   17400    291.02867   -1025.4289    149879.46   -47607.433     3996.578   -51604.011   0.14725577 
   17500    292.06526   -1011.7275    149916.77   -47506.712     4010.813   -51517.525   0.15764697 
   17600    293.94735   -1027.3662    149918.31   -47513.926     4036.659   -51550.585   0.15250326 
   17700    291.52494   -1025.9182    149938.52   -47576.291     4003.393   -51579.684   0.14676107 
   17800    291.10294   -1004.0909    149924.54    -47522.95    3997.5979   -51520.548   0.16251559 
   17900    297.66266   -1010.5561    149940.78   -47464.441    4087.6798   -51552.121   0.14961822 
   18000    296.72838   -995.22095    149977.24   -47377.273    4074.8498   -51452.123   0.15294269 
   18100     294.4197   -998.61422    149983.39   -47383.112    4043.1456   -51426.258   0.15813153 
   18200    295.19603   -989.16984     149959.6   -47433.267    4053.8065   -51487.074   0.15441486 
   18300    291.46699   -1031.9502    149966.71   -47436.824    4002.5972   -51439.421   0.15407402 
   18400    293.19706   -985.82601    149952.01   -47538.163    4026.3555   -51564.519   0.15496907 
   18500    294.93652   -980.79926    149944.88    -47472.72    4050.2428   -51522.963   0.15181962 
   18600     289.1727   -1033.6032    149975.67   -47427.036    3971.0907   -51398.126   0.15551759 
   18700    295.24505   -988.74469    149966.98   -47442.063    4054.4798   -51496.543   0.15686453 
   18800     295.1149   -1005.7583    149957.74   -47460.321    4052.6924   -51513.013   0.14771178 
   18900    291.29835   -982.43626    149963.23   -47419.296    4000.2813   -51419.577   0.16314666 
   19000    291.80796    -1015.146    149973.09   -47453.087    4007.2796   -51460.367    0.1516247 
   19100    293.79006   -985.25332    149972.13   -47363.837     4034.499   -51398.336   0.15628341 
   19200    297.73626   -974.19181    149964.12   -47384.888    4088.6905   -51473.579   0.15641527 
   19300    298.84668   -1002.8957    150001.24   -47280.559    4103.9395   -51384.498   0.15804718 
   19400    294.73193    -1008.662    150006.09   -47347.212    4047.4333   -51394.645   0.15276792 
   19500     296.7424   -988.75302    150002.99   -47347.078    4075.0422    -51422.12   0.15569743 
   19600    295.81249   -977.08496    150011.78   -47338.355    4062.2722   -51400.628   0.15933124 
   19700    297.86077   -1001.2775     149973.7   -47387.405    4090.4004   -51477.805   0.14948291 
   19800    294.23902    -985.1101    149995.23     -47343.2    4040.6644   -51383.864   0.16002743 
   19900     292.2693   -987.57839    149979.24   -47422.595     4013.615    -51436.21   0.15277417 
   20000    296.71677   -989.70632     149974.7   -47451.757    4074.6904   -51526.448   0.15156147 
   20100    294.68105   -973.63027    149962.67   -47497.133    4046.7346   -51543.867   0.14893256 
   20200    293.40103   -1006.6019    149954.12   -47471.951    4029.1566   -51501.107   0.15484135 
   20300    295.55481    -988.6907    149968.61    -47429.26    4058.7337   -51487.994   0.14600873 
   20400    293.81811   -1042.1306    149961.45   -47499.986    4034.8841    -51534.87   0.16692016 
   20500    288.32745   -1016.8133    149934.63   -47535.137    3959.4833    -51494.62   0.14739172 
   20600    291.30903   -985.16853    149923.44   -47557.103    4000.4281   -51557.531   0.14841674 
   20700    293.79268   -996.80487    149940.29   -47502.966     4034.535   -51537.501   0.15927148 
   20800     297.2345   -985.42183    149979.12   -47358.713    4081.8001   -51440.513   0.14547412 
   20900    291.08555   -997.92246    149947.97   -47464.884     3997.359   -51462.243   0.16116799 
   21000    290.12659   -1039.4722    149926.16   -47478.551    3984.1901   -51462.741   0.15290343 
   21100    294.15191   -1041.1005    149917.76   -47354.526    4039.4682   -51393.994   0.16492571 
   21200    296.93016   -1016.6656    149938.83   -47370.401    4077.6207   -51448.022   0.15899501 
   21300    300.08439   -1010.3702    149945.02   -47361.379    4120.9365   -51482.316   0.15835771 
   21400    292.80221   -1011.3426    149931.69   -47404.372    4020.9333   -51425.305   0.15748599 
   21500    297.77698   -990.43802    149962.85    -47314.95    4089.2497     -51404.2   0.16345023 
   21600    296.97577   -1015.2223    149972.58   -47320.139     4078.247   -51398.386   0.15772178 
   21700    295.92567   -1026.4645    149944.85   -47455.431    4063.8265   -51519.257   0.15469608 
   21800     291.9035   -1010.4276    149916.76   -47491.849    4008.5917   -51500.441   0.16346486 
   21900    291.95899    -966.1156    149922.73    -47463.18    4009.3537   -51472.534   0.15360961 
   22000    286.97859   -1018.2604    149919.56   -47495.693    3940.9599   -51436.653   0.15496986 
   22100     286.7377   -1008.6589    149931.51   -47535.931    3937.6518   -51473.582   0.15730275 
   22200    287.99355   -974.69492    149912.89   -47620.157    3954.8979   -51575.055   0.14971453 
   22300    291.60745   -988.84456    149926.03   -47507.022    4004.5261   -51511.548   0.14720376 
   22400    291.41708   -1008.1691    149931.67   -47446.969    4001.9118   -51448.881   0.16522743 
   22500    295.96058   -1001.9828     149946.4   -47396.164    4064.3058    -51460.47   0.15479168 
   22600    296.13276   -1003.4876    149946.33   -47444.799    4066.6703    -51511.47   0.15450031 
   22700    294.47225   -953.58724     149923.9   -47504.414    4043.8673   -51548.282   0.15757746 
   22800    291.76346    -993.3783    149944.86   -47428.519    4006.6685   -51435.188   0.15080355 
   22900    293.05382   -1005.0543    149937.14   -47461.964    4024.3885   -51486.353   0.16010909 
   23000    294.98606   -1037.1786    149931.33   -47540.528    4050.9232   -51591.452   0.15394122 
   23100    289.22548   -1024.8055    149929.91   -47476.008    3971.8155   -51447.823   0.15730247 
   23200    295.01087   -964.15365    149940.15   -47421.227    4051.2639   -51472.491     0.154357 
   23300    294.90653   -1029.8198    149945.97    -47421.45     4049.831   -51471.281   0.16295039 
   23400    295.95184   -1004.9725    149937.94   -47466.213    4064.1858   -51530.399   0.14424027 
   23500    293.69402   -990.18143    149937.59   -47354.739    4033.1801   -51387.919   0.16703012 
   23600    292.38354   -1008.1735    149948.28   -47372.662    4015.1838   -51387.846   0.15881263 
   23700    295.95754   -1004.5284    149950.14   -47367.127    4064.2641   -51431.391   0.15679924 
   23800    295.03164   -971.48632    149932.98   -47373.133    4051.5491   -51424.682   0.17000708 
   23900    292.44897   -1032.7873    149972.56   -47464.993    4016.0823   -51481.075    0.1499017 
   24000    295.48455   -991.15361     149969.8   -47409.962    4057.7687    -51467.73   0.16199526 
   24100    295.90751   -1023.4299    149979.68   -47341.084     4063.577   -51404.661   0.15999433 
   24200    293.33748   -994.04077    149950.84   -47470.768    4028.2839   -51499.052   0.15699505 
   24300    287.98612   -1017.7094     149951.8   -47514.562    3954.7959   -51469.358   0.15576229 
   24400    289.75172   -1014.8222    149955.39   -47539.474    3979.0421   -51518.517   0.15574508 
   24500     290.9182    -1005.767    149956.82   -47491.553     3995.061   -51486.614   0.14955239 
   24600    289.04028   -980.12187    149935.04   -47538.706    3969.2722   -51507.978   0.15155276 
   24700    288.83954   -964.85128     149923.1   -47538.248    3966.5155   -51504.763   0.15178504 
   24800    291.24889   -1009.2431    149948.95   -47482.121    3999.6022   -51481.723   0.15716111 
   24900    290.92836   -962.51577    149911.45   -47535.609    3995.2005    -51530.81   0.15210218 
   25000     290.2648   -1010.2461    149928.94   -47525.444    3986.0881   -51511.532    0.1574069 
   25100    283.79738   -1016.6472    149925.27   -47583.419    3897.2736   -51480.692   0.15936568 
   25200    280.07299   -1017.5816    149894.77   -47717.949    3846.1281   -51564.077   0.14977102 
   25300    289.75512   -988.44112     149902.5   -47546.957    3979.0889   -51526.046   0.15936948 
   25400    289.75452    -1007.812    149933.92   -47592.195    3979.0805   -51571.275   0.14579088 
   25500    290.82965   -951.73258    149924.81   -47473.701    3993.8449   -51467.546   0.16291626 
   25600    296.13583   -991.16926    149955.91   -47396.606    4066.7125   -51463.319   0.15291945 
   25700    289.59118   -1030.5946    149929.42   -47487.111    3976.8375   -51463.948    0.1573675 
   25800    294.59802   -986.33001    149948.99   -47343.476    4045.5944    -51389.07   0.16651517 
   25900    293.63341   -1009.9722     149964.1   -47369.198    4032.3477   -51401.545   0.15584533 
   26000    294.41129   -989.24682    149924.23   -47411.643    4043.0301   -51454.673   0.16487975 
   26100     291.9909   -1022.9281    149936.89   -47397.998    4009.7919    -51407.79     0.159905 
   26200     294.4452    -985.5232    149917.19   -47508.053    4043.4958   -51551.549    0.1577548 
   26300      294.793   -1023.5684    149899.93   -47460.844     4048.272   -51509.116   0.15467146 
   26400    289.72375   -1022.4279    149903.63   -47523.692     3978.658    -51502.35   0.15710463 
   26500    293.10768   -967.78838    149925.96   -47427.225    4025.1282   -51452.353   0.16079137 
   26600    293.67163   -990.29356     149946.1   -47375.542    4032.8726   -51408.415   0.15256381 
   26700    298.03353   -974.46393    149950.82   -47377.141    4092.7728   -51469.914   0.15855374 
   26800    295.44245   -1007.5436    149927.01   -47424.788    4057.1906   -51481.979   0.15817654 
   26900    295.13318   -1013.2221    149927.76   -47366.361    4052.9435   -51419.305   0.15926948 
   27000    296.79788   -1024.9926    149945.21   -47404.132    4075.8042   -51479.936   0.16071137 
   27100    295.63668   -985.72873    149929.11   -47340.117    4059.8579   -51399.975   0.16213351 
   27200    297.67541   -981.86707    149937.08   -47410.647     4087.855   -51498.502   0.14921108 
   27300    302.53198   -985.89305    149960.32   -47242.246    4154.5482   -51396.794   0.16733552 
   27400    295.07839   -1027.8945     149976.4   -47371.847    4052.1911   -51424.038   0.15276953 
   27500    290.80389   -1000.6309    149939.33   -47482.426    3993.4911   -51475.917   0.16024674 
   27600    283.50528     -1008.14    149923.38   -47530.893    3893.2624   -51424.155   0.15782003 
   27700    293.35023   -987.68394    149953.36   -47429.264    4028.4589   -51457.722    0.1493624 
   27800    294.47641   -967.12388    149954.13   -47401.707    4043.9244   -51445.631   0.16027062 
   27900    295.98198   -971.03751    149949.61   -47466.676    4064.5997   -51531.275   0.14885415 
   28000    292.35207   -979.06328    149903.63   -47536.658    4014.7516    -51551.41   0.14894039 
   28100     288.0189   -1033.8716    149933.96   -47518.332     3955.246   -51473.578   0.15771981 
   28200    295.30167   -990.89957     149920.8   -47478.258    4055.2573   -51533.516   0.15730144 
   28300    289.90135   -989.99498    149924.98    -47503.28    3981.0969   -51484.377   0.15023595 
   28400    290.80885   -1019.8684    149959.43   -47434.755    3993.5593   -51428.314    0.1665582 
   28500    292.27142   -1001.4261    149955.16   -47465.479    4013.6441   -51479.123   0.15097305 
   28600    290.78318    -1013.855    149944.56    -47470.08    3993.2067   -51463.287   0.15705326 
   28700    292.22902   -990.58485    149957.56   -47469.664    4013.0619   -51482.725   0.15681501 
   28800    292.00076   -967.01774    149929.56   -47513.245    4009.9272   -51523.172   0.14847373 
   28900    290.06415   -981.62652    149957.01   -47489.363    3983.3326   -51472.695   0.15058116 
   29000      294.826   -984.88881    149972.58   -47430.475    4048.7251     -51479.2   0.15498009 
   29100    300.09296   -999.63952    149962.16   -47430.706    4121.0541    -51551.76   0.14966584 
   29200     297.4156   -1019.4012    149973.88   -47362.639     4084.287   -51446.926   0.15835269 
   29300    297.32165   -1005.1437    149975.21   -47363.787    4082.9968   -51446.783   0.16087172 
   29400    296.51716   -981.15857    149965.11    -47377.98    4071.9491   -51449.929   0.15229145 
   29500    297.86827   -983.44595    149963.77   -47421.494    4090.5034   -51511.998   0.15841715 
   29600    299.68026   -1005.3809    149971.07   -47394.661    4115.3867   -51510.048   0.15513002 
   29700      292.695   -1024.6378    149959.23   -47472.505    4019.4609   -51491.966   0.15080775 
   29800    290.82031   -1015.1035    149927.47   -47561.267    3993.7166   -51554.983    0.1565551 
   29900     288.5998   -1015.1717    149946.32   -47539.976    3963.2232   -51503.199   0.15089693 
   30000    291.19325   -982.62254    149953.69   -47500.253    3998.8381   -51499.091   0.14675744 
   30100    290.94062    -992.7191    149965.16   -47474.926    3995.3689   -51470.295   0.16299848 
   30200     287.9779   -1016.6223    149952.89   -47487.283     3954.683   -51441.966   0.15029298 
   30300    294.78397   -997.92121    149952.87    -47474.47     4048.148   -51522.618   0.14940043 
   30400    290.46813   -1033.7457    149958.42   -47509.105    3988.8803   -51497.985    0.1645775 
   30500     291.3177   -1014.8452    149935.36   -47613.918    4000.5471   -51614.465   0.14138744 
   30600    292.13395   -993.19669    149960.06   -47483.438    4011.7563   -51495.195   0.15920166 
   30700    286.08684   -1014.9743    149946.51   -47514.399    3928.7138   -51443.113   0.15825989 
   30800    296.20264   -996.97567    149952.98   -47447.266      4067.63   -51514.896   0.15086538 
   30900     289.0244   -1016.3519    149977.51   -47422.088    3969.0541   -51391.142   0.16246599 
   31000    292.10057   -1023.8797    149996.24   -47456.637     4011.298   -51467.935   0.15267466 
   31100    294.00269   -985.93875    149971.74    -47468.31    4037.4189   -51505.729    0.1544847 
   31200    296.02433   -996.51458    149952.49   -47417.271    4065.1814   -51482.452   0.15784294 
   31300    293.20029   -1007.0975    149961.19    -47339.76    4026.3999   -51366.159   0.15678497 
   31400    287.38214   -1037.3902    149960.86    -47462.98    3946.5016   -51409.482   0.15949121 
   31500    291.90471   -1007.0478    149940.65   -47407.293    4008.6083   -51415.901    0.1624389 
   31600    291.29688   -966.76949    149961.16   -47438.177    4000.2612   -51438.438   0.15174157 
   31700    298.57417   -1003.2092    149963.74   -47408.609    4100.1972   -51508.806   0.15551266 
   31800    294.53672   -1004.5936     149942.4   -47472.412    4044.7526   -51517.164   0.15077475 
   31900    293.38474   -1019.7754    149939.53   -47467.622    4028.9329   -51496.555   0.15626913 
   32000    295.91832   -1007.5994    149950.43   -47416.668    4063.7255   -51480.394   0.15024964 
   32100    294.35109   -1007.6072     149949.1   -47453.971    4042.2034   -51496.175   0.16050253 
   32200    284.38424   -1048.2175    149925.24   -47573.205    3905.3328   -51478.538   0.15070977 
   32300    289.60342   -1017.4607    149934.57    -47519.75    3977.0056   -51496.755   0.15134004 
   32400    290.79355   -989.13495    149911.55   -47610.994    3993.3491   -51604.343   0.15709081 
   32500    292.49073   -994.30395    149941.23     -47471.2    4016.6558   -51487.856   0.14546631 
   32600    295.73887   -1014.4349    149965.16   -47424.279    4061.2612   -51485.541   0.16322075 
   32700    290.41497    -1028.426     149956.2   -47520.835    3988.1503   -51508.986   0.15163624 
   32800    294.80548   -1023.8575    149970.14   -47388.223    4048.4433   -51436.667   0.16050313 
   32900    290.59599    -980.8561    149960.97   -47454.312    3990.6361   -51444.948   0.15563152 
   33000     293.9229   -999.59199    149964.25    -47447.65    4036.3232   -51483.973   0.15647878 
   33100    291.83009    -1019.002    149967.19   -47477.147    4007.5835    -51484.73   0.15555535 
   33200    288.82235   -1000.6559    149935.48   -47454.667    3966.2794   -51420.947   0.15559806 
   33300    292.19762   -1030.0038     149944.3   -47456.432    4012.6306   -51469.063    0.1554305 
   33400    296.96419   -975.25666    149929.92   -47476.548     4078.088   -51554.636   0.15258675 
   33500    291.54831   -977.25592     149920.5   -47502.703     4003.714   -51506.417   0.15538168 
   33600    292.27813   -996.55259    149916.77    -47517.71    4013.7362   -51531.446   0.15523257 
   33700    297.93678    -981.6958     149911.2    -47402.22    4091.4442   -51493.664   0.15841466 
   33800    299.14801   -994.87539    149954.34   -47304.038    4108.0776   -51412.116   0.15566742 
   33900    297.96643   -1036.2729    149946.27   -47327.014    4091.8513   -51418.865   0.16564721 
   34000    296.40688   -991.69735    149920.77    -47467.56    4070.4347   -51537.994   0.14765229 
   34100    290.48482   -1010.7731    149915.16   -47493.176    3989.1095   -51482.286   0.16258697 
   34200    291.28941   -1023.8707     149911.4   -47493.366    4000.1586   -51493.525   0.15873531 
   34300    293.10861   -1004.6985    149905.28   -47525.544    4025.1409   -51550.685    0.1512783 
   34400    291.35627   -1005.4933    149913.74   -47451.182    4001.0767   -51452.259   0.16338367 
   34500    288.76466   -1008.6959    149911.46   -47371.779    3965.4872   -51337.267   0.16152628 
   34600    294.10617    -1004.672    149951.02   -47368.982      4038.84   -51407.822   0.15971644 
   34700    294.20059   -989.59816    149950.64   -47489.179    4040.1367   -51529.316   0.15489433 
   34800    293.71066   -970.84255     149931.8   -47481.948    4033.4087   -51515.357   0.15700887 
   34900    292.11243   -961.55565    149927.62   -47460.523    4011.4607   -51471.984   0.15374266 
   35000    296.93083   -980.29677    149932.76   -47438.114      4077.63   -51515.744   0.16067303 
   35100    295.33943   -1014.0807    149938.89   -47454.705    4055.7759   -51510.481   0.15087178 
   35200    293.48483   -1009.0483    149953.88    -47394.33    4030.3074   -51424.637   0.16287408 
   35300    289.62769   -1016.7703    149963.81   -47476.011    3977.3389    -51453.35   0.16271717 
   35400    293.97118   -1008.2791    149955.42   -47477.749    4036.9863   -51514.735   0.15102543 
   35500    285.91344   -1023.7626    149946.86   -47466.132    3926.3325   -51392.464   0.16464635 
   35600     298.3535   -983.94658    149954.45   -47438.001    4097.1668   -51535.168   0.15143968 
   35700    289.85517   -1022.8244    149936.02   -47448.352    3980.4627   -51428.815   0.16195006 
   35800    298.03721   -976.59956    149988.96    -47283.25    4092.8234   -51376.073   0.15760559 
   35900    302.61068   -994.05074    149969.41   -47403.998     4155.629   -51559.627   0.15811103 
   36000    292.83307   -962.60238    149926.79   -47452.677     4021.357   -51474.034   0.15001783 
   36100    289.36363   -995.21359    149911.77   -47496.033    3973.7126   -51469.746   0.16008599 
   36200    288.81296    -1012.565    149921.72   -47528.536    3966.1505   -51494.686   0.15598978 
   36300    286.85119   -1015.2911    149920.51   -47460.024    3939.2103   -51399.234   0.15416201 
   36400     287.7424   -1054.0725    149949.98   -47524.013    3951.4489   -51475.462   0.16347727 
   36500     292.4035   -1018.4648    149938.42   -47494.677    4015.4579   -51510.135   0.15260608 
   36600    292.16039   -1018.5373    149956.09   -47493.374    4012.1194   -51505.494   0.15371001 
   36700    291.02449   -979.69688    149950.49   -47531.485    3996.5205   -51528.005   0.15835909 
   36800    287.13478   -1025.3869    149914.51   -47602.486    3943.1048    -51545.59   0.15281348 
   36900    294.42902   -992.25321    149937.71   -47526.314    4043.2735   -51569.588   0.14679722 
   37000      289.631   -990.19785    149921.46   -47507.249    3977.3844   -51484.634   0.16481497 
   37100    291.52367   -996.26932    149925.29   -47555.847    4003.3756   -51559.223   0.14246187 
   37200    290.93476    -1002.929    149923.69    -47559.95    3995.2883   -51555.238   0.16321037 
   37300    290.20344   -1005.9372    149920.55   -47553.867    3985.2454   -51539.112   0.15262038 
   37400    292.74028   -986.11242    149921.92   -47569.972    4020.0828   -51590.055   0.14642221 
   37500    288.64461   -1014.6422     149933.5   -47539.693    3963.8387   -51503.532   0.16245993 
   37600    292.43093   -997.73323    149929.27   -47588.378    4015.8346   -51604.212   0.14438643 
   37700    288.11794   -956.84876     149885.6   -47664.933    3956.6061   -51621.539   0.14803144 
   37800    286.39739   -962.45321    149889.73   -47685.092    3932.9785    -51618.07   0.14958413 
   37900    284.95076    -1003.216    149928.45   -47591.024    3913.1125   -51504.137   0.15118449 
   38000    292.61695   -1037.4822    149960.39   -47524.253    4018.3892   -51542.643   0.15482018 
   38100    293.93452   -982.26386    149956.94   -47457.928    4036.4828    -51494.41   0.15740903 
   38200    296.57485   -975.98945    149959.14    -47424.28    4072.7413   -51497.021   0.15002963 
   38300    290.62704   -1020.2391    149963.07   -47477.438    3991.0625   -51468.501   0.15434634 
   38400    293.79743   -993.41289    149973.64   -47411.019    4034.6003   -51445.619   0.15376166 
   38500    291.83528   -1027.7877     149943.1   -47471.967    4007.6549   -51479.622   0.15770578 
   38600    291.47519   -988.66993    149946.95   -47429.848    4002.7098   -51432.558   0.15543786 
   38700    294.44331   -1003.0816    149964.37    -47402.38    4043.4698    -51445.85   0.15843686 
   38800    294.60386   -1000.7755    149940.26   -47436.333    4045.6745   -51482.008    0.1554444 
   38900    292.82736   -1023.7264     149945.7   -47378.405    4021.2787   -51399.684   0.16068142 
   39000    290.04625   -1011.6731    149952.86    -47433.16    3983.0868   -51416.247   0.16333899 
   39100    289.80176   -996.00242    149943.63   -47461.001    3979.7293    -51440.73    0.1504573 
   39200    288.03123   -1046.5446    149899.17   -47586.211    3955.4153   -51541.626   0.15905759 
   39300    285.93615   -994.56629    149889.73   -47589.844    3926.6444   -51516.489    0.1528976 
   39400    292.16095   -958.85013    149941.48   -47465.269    4012.1271   -51477.396   0.15145892 
   39500    294.41071   -990.90233    149966.54   -47448.065    4043.0222   -51491.087   0.15717449 
   39600    296.32045   -1006.3259    149968.57   -47452.873    4069.2478    -51522.12    0.1495275 
   39700    295.72504   -988.57544    149957.13   -47430.723    4061.0713   -51491.794   0.15999876 
   39800    293.39383   -1028.7975     149963.4   -47456.276    4029.0578   -51485.333   0.15766831 
   39900    294.81802   -997.04535    149972.55   -47422.012    4048.6156   -51470.627   0.15836886 
   40000    287.30822   -1008.4193    149971.72   -47494.302    3945.4866   -51439.788   0.15742133 
   40100    291.14613   -998.58082    149978.03   -47510.511     3998.191   -51508.702   0.15595288 
   40200    294.15084   -979.41141    149989.66   -47477.375    4039.4535   -51516.828   0.15005965 
   40300    290.35588   -986.35089    149975.09   -47482.913    3987.3388   -51470.251   0.15493411 
   40400    290.78406   -970.48603    149972.22   -47573.276    3993.2188   -51566.494   0.14562265 
   40500    295.58394    -994.4144    149986.69   -47428.516    4059.1336    -51487.65   0.15514907 
   40600     293.9286   -997.99691    149977.71   -47505.904    4036.4015   -51542.305   0.15320385 
   40700    294.43141   -966.72818    149958.62   -47510.419    4043.3064   -51553.725   0.15057113 
   40800    290.12983   -1025.6011    149959.02   -47486.107    3984.2345   -51470.341   0.16299599 
   40900    293.57614   -990.77046    149961.21   -47474.745    4031.5613   -51506.306    0.1489482 
   41000    290.14232     -1020.69    149948.86   -47540.507     3984.406   -51524.913   0.16116867 
   41100    292.39584   -1009.4613     149928.9   -47509.913    4015.3528   -51525.266   0.15344928 
   41200    298.50821   -966.25773    149946.35    -47390.56    4099.2914   -51489.851   0.15724673 
   41300     295.9137   -976.26859    149953.75   -47479.183    4063.6621   -51542.845   0.15250588 
   41400     293.9798   -996.51017    149943.17   -47424.634    4037.1046   -51461.739   0.15849853 
   41500    288.93474   -995.22342    149958.18   -47433.548    3967.8229   -51401.371   0.15757884 
   41600     293.9451   -970.52784     149948.4   -47444.071    4036.6282     -51480.7   0.15896629 
   41700     285.8544   -1007.7235    149932.91   -47549.667    3925.5218   -51475.189   0.15150407 
   41800    290.03506   -1021.6398    149946.32   -47469.748    3982.9331   -51452.681   0.15728655 
   41900    293.66119   -992.75493    149944.36   -47548.477    4032.7293   -51581.206   0.15271501 
   42000    294.49982   -985.59926    149950.75   -47522.614    4044.2459    -51566.86   0.14906314 
   42100    284.36464     -1017.85     149912.9   -47587.804    3905.0636   -51492.867   0.16024846 
   42200    286.27532   -1020.6436    149911.54   -47546.862    3931.3021   -51478.164     0.155317 
   42300    292.46624   -1020.5938    149910.15   -47514.151    4016.3195    -51530.47   0.16007773 
   42400    291.80788   -1001.3315    149905.77   -47532.672    4007.2785   -51539.951   0.15737705 
   42500    291.31224   -950.56573    149917.41   -47497.057    4000.4722   -51497.529   0.15576654 
   42600    291.19023    -1019.788    149926.33   -47536.555    3998.7965   -51535.352   0.15473894 
   42700    288.82537   -983.58079    149889.99   -47601.267    3966.3209   -51567.588   0.15177431 
   42800     289.2846   -1011.8485    149920.22   -47518.516    3972.6274   -51491.144   0.15744045 
   42900    292.00207   -1010.1831    149912.14   -47532.997    4009.9452   -51542.942   0.15367163 
   43000    287.14746   -1004.7265    149923.36   -47558.472    3943.2789   -51501.751   0.15766258 
   43100    290.78444   -1002.5546    149929.92   -47474.756    3993.2241    -51467.98   0.15539883 
   43200    292.42315   -994.50846    149933.23   -47486.045    4015.7278   -51501.773   0.15328001 
   43300    292.14135    -998.3902    149934.15   -47482.653    4011.8579   -51494.511   0.16000226 
   43400    294.67562   -1019.4397    149963.04   -47420.256    4046.6601   -51466.916   0.15400188 
   43500    291.84784   -1013.9704    149977.08   -47474.412    4007.8273   -51482.239   0.15824843 
   43600    292.19575   -1028.6548    149947.45   -47513.304     4012.605   -51525.909   0.15654567 
   43700    286.37764   -981.00583    149918.54   -47561.046    3932.7073   -51493.753    0.1488006 
   43800    288.56042   -1006.8134    149920.11   -47597.738    3962.6825    -51560.42   0.15593279 
   43900    286.18003   -1013.2503    149925.53   -47505.189    3929.9935   -51435.183   0.15887405 
   44000    286.71494   -1004.8498    149918.84   -47596.536    3937.3393   -51533.875    0.1482948 
   44100    288.86834   -998.21606    149894.75   -47547.073    3966.9111   -51513.985   0.16287086 
   44200     296.3337   -985.44553    149923.26   -47512.715    4069.4298   -51582.145   0.14696496 
   44300    292.09416   -995.01912    149917.74   -47512.195    4011.2099   -51523.405   0.16305533 
   44400     294.9335   -994.32405     149919.5   -47524.523    4050.2014   -51574.725   0.15594788 
   44500    291.87502   -991.88215       149926   -47530.947    4008.2005   -51539.147   0.15227908 
   44600    292.90974   -1006.4055     149933.1   -47539.106    4022.4099   -51561.516   0.15418464 
   44700    285.70927    -1000.721    149929.41   -47525.026    3923.5289   -51448.555   0.15514035 
   44800    289.55696   -993.19069    149929.03   -47476.831    3976.3676   -51453.198   0.15599229 
   44900    294.74841   -991.07669    149945.87   -47468.252    4047.6596   -51515.912   0.15316324 
   45000    292.62924   -980.61211    149923.85   -47508.484     4018.558   -51527.041    0.1533069 
   45100    296.42707   -1008.7673    149952.14   -47394.959     4070.712   -51465.671   0.15546496 
   45200    290.11971    -996.3963    149943.67   -47431.679    3984.0955   -51415.775   0.16013869 
   45300    296.35145   -993.74295    149958.63   -47455.012    4069.6735   -51524.686   0.14879445 
   45400    294.54086   -1027.2107    149952.29   -47524.558    4044.8094   -51569.367   0.15771606 
   45500    296.54222   -1009.5281    149927.35   -47458.943    4072.2933   -51531.237   0.15353008 
   45600    294.33991   -998.91791    149933.56   -47449.547    4042.0499   -51491.597   0.16255836 
   45700    293.32969   -1007.5871     149920.1   -47398.276    4028.1769   -51426.453   0.15551072 
   45800    293.17984    -982.5486     149922.5   -47477.023    4026.1191   -51503.142   0.15593647 
   45900    299.21591   -976.53149    149960.99   -47340.508      4109.01   -51449.518   0.15756918 
   46000    296.83246   -1022.1429    149946.75   -47408.841     4076.279    -51485.12   0.15795947 
   46100    295.92807   -991.20465    149941.55   -47310.193    4063.8594   -51374.052   0.16573896 
   46200    298.25123   -1006.8581    149951.74   -47368.566    4095.7624   -51464.328   0.15881882 
   46300    294.44842   -1030.7917    149955.04    -47363.12    4043.5399    -51406.66   0.15732077 
   46400    298.02767   -984.54633    149933.09   -47402.241    4092.6924   -51494.933   0.15552495 
   46500    293.05415   -1002.4214    149940.34   -47370.285    4024.3931   -51394.678     0.161144 
   46600     295.7984    -979.6155    149936.04   -47425.545    4062.0787   -51487.623    0.1542333 
   46700     297.9506   -990.16715    149951.86    -47368.05     4091.634   -51459.684   0.16100345 
   46800    295.54712   -1021.6809     149944.6   -47371.651    4058.6279   -51430.279   0.15723358 
   46900    289.22983    -1020.295    149926.71   -47430.192    3971.8752   -51402.068   0.16200495 
   47000    296.70839   -962.13513    149937.03   -47466.313    4074.5753   -51540.888   0.15313649 
   47100    291.46041   -988.87537    149942.97   -47472.608    4002.5069   -51475.115   0.15563065 
   47200    293.28469   -966.28825    149936.59   -47447.039     4027.559   -51474.598   0.15658599 
   47300    286.44675    -1022.498    149912.69   -47571.844    3933.6563   -51505.501   0.15061239 
   47400    290.81481   -993.15165    149908.99   -47504.273     3993.641   -51497.914    0.1578761 
   47500    295.81205   -990.53917    149900.65   -47509.542    4062.2662   -51571.808   0.15378032 
   47600     286.4817   -1023.9981    149903.03    -47502.21    3934.1362   -51436.346   0.16088868 
   47700    296.00545   -957.30229    149923.08   -47424.087     4064.922   -51489.009   0.15578018 
   47800    291.63226    -978.2393    149906.27   -47481.215    4004.8668   -51486.082   0.15400387 
   47900    289.99644   -991.33253    149895.63   -47536.944    3982.4028   -51519.347   0.15971905 
   48000    292.35601   -959.60075    149901.07   -47496.186    4014.8057   -51510.992   0.15264407 
   48100     291.9458   -1013.5034    149892.36   -47539.201    4009.1725   -51548.373   0.15952101 
   48200    293.53466   -992.74871    149885.48   -47523.963    4030.9917   -51554.954   0.15328655 
   48300    290.35079   -970.82046    149899.61   -47474.265    3987.2689   -51461.534    0.1550341 
   48400    287.87549    -997.1877    149909.13   -47516.214    3953.2767   -51469.491   0.15776788 
   48500    290.20274   -991.22099    149878.34   -47599.413    3985.2358   -51584.649   0.15682815 
   48600    285.46753   -1007.5201    149872.31   -47587.962     3920.209   -51508.171   0.15026928 
   48700    290.33243   -972.24126    149882.18   -47485.629    3987.0167   -51472.646   0.16521639 
   48800    292.76604   -1002.2562    149901.31   -47475.888    4020.4366   -51496.325    0.1570842 
   48900    292.40055   -973.14031    149878.99   -47500.364    4015.4175   -51515.781   0.15623524 
   49000    291.47519   -984.99709    149881.27   -47533.017    4002.7099   -51535.727   0.15873882 
   49100    287.84865   -1024.1305    149929.68   -47449.447     3952.908   -51402.355   0.15843634 
   49200    291.94853   -1013.4966    149919.57   -47478.612      4009.21   -51487.822   0.16235187 
   49300    288.60644   -1040.3414    149899.36   -47550.586    3963.3145   -51513.901   0.15504168 
   49400    291.67457   -1025.4787    149875.38   -47566.497    4005.4478   -51571.945   0.16138067 
   49500    290.19091   -981.25876    149915.23   -47505.761    3985.0734   -51490.834   0.15343958 
   49600    292.21311    -973.2145    149903.78   -47504.386    4012.8434   -51517.229   0.15939398 
   49700    290.49931   -968.09696    149913.07   -47502.699    3989.3085   -51492.007   0.15111045 
   49800    293.58401   -1000.1958    149920.78    -47519.02    4031.6694    -51550.69   0.15656726 
   49900    291.47913   -986.23095    149905.78   -47492.958     4002.764   -51495.722   0.15243474 
   50000    290.93808   -1003.9459    149929.53   -47508.991    3995.3339   -51504.325   0.15230085 
   50100    295.28148   -1002.2489    149932.65   -47364.368      4054.98   -51419.348   0.16499412 
   50200     298.5845   -1031.5538    149950.24   -47443.489    4100.3391   -51543.828   0.16155925 
   50300    291.74309   -1000.3214    149948.01   -47454.071    4006.3888    -51460.46   0.15932822 
   50400    293.16626   -1029.5113    149922.89   -47470.936    4025.9326   -51496.869   0.15967362 
   50500    298.17349   -972.25518    149943.47   -47377.281    4094.6949   -51471.975   0.15642794 
   50600    302.10081   -951.04664    149970.87   -47308.264    4148.6271   -51456.891   0.15585983 
   50700    290.44508   -1007.8413    149923.41   -47553.579    3988.5638   -51542.143   0.15718113 
   50800    291.03953   -1004.5445    149910.28   -47528.666    3996.7271   -51525.393   0.15072506 
   50900    288.07318   -978.65639    149914.39   -47553.761    3955.9914   -51509.752   0.15575702 
   51000    293.06407   -986.04235       149924   -47510.393    4024.5293   -51534.922   0.15634886 
   51100     287.9408   -1031.6216    149905.54   -47518.305    3954.1736   -51472.479   0.15640599 
   51200    288.61189   -968.18253    149894.67   -47579.213    3963.3893   -51542.603    0.1602801 
   51300    288.53434   -1001.0496    149911.85   -47596.248    3962.3244   -51558.572   0.15268728 
   51400     292.5796   -1002.5758    149907.17   -47533.365    4017.8762   -51551.242   0.15887858 
   51500    292.24323   -979.16824    149908.34   -47590.381    4013.2571   -51603.638   0.15398556 
   51600    291.36413   -1006.7662    149911.87   -47498.592    4001.1847   -51499.777   0.16263522 
   51700    294.43233   -1019.3318    149920.09   -47395.054     4043.319   -51438.373   0.16442884 
   51800    289.33619   -973.41496    149957.84   -47449.758    3973.3358   -51423.094    0.1576192 
   51900    293.84864   -982.00275    149944.38     -47512.5    4035.3034   -51547.803   0.15730531 
   52000    292.05532    -1020.162    149932.07   -47497.443    4010.6765    -51508.12   0.15640832 
   52100    290.05055   -1026.3256     149919.9   -47575.844    3983.1458   -51558.989   0.16091656 
   52200    288.30094   -1010.5493     149918.3   -47634.643    3959.1191   -51593.762   0.15163232 
   52300    289.11971   -978.57795     149892.4   -47607.743     3970.363   -51578.106   0.15715757 
   52400    283.15591   -1005.9954    149865.87   -47690.444    3888.4645   -51578.909   0.15039389 
   52500    290.47838   -941.81697    149879.83   -47538.802     3989.021   -51527.823   0.15772139 
   52600     293.6828   -977.72184    149909.36   -47503.394     4033.026    -51536.42   0.15692574 
   52700    298.75053   -966.11155    149917.96   -47438.542    4102.6191   -51541.161   0.15857096 
   52800    293.52593   -1015.6791    149928.46   -47412.569    4030.8719    -51443.44   0.16323581 
   52900    293.23505    -1009.815    149896.48    -47435.09    4026.8773   -51461.968   0.16409211 
   53000    300.09231   -978.75302    149904.32   -47384.977    4121.0452   -51506.023   0.15925086 
   53100    292.85053   -996.60761    149891.98   -47524.687    4021.5968   -51546.283   0.15708935 
   53200    297.23124   -974.44318    149860.66   -47566.342    4081.7553   -51648.097   0.15024851 
   53300    289.69214   -1023.1036    149888.68    -47534.36    3978.2239   -51512.584   0.15843518 
   53400    291.76126   -1006.8875    149881.49    -47457.12    4006.6383   -51463.759    0.1668953 
   53500    290.67204   -1008.8323       149919   -47453.444    3991.6805   -51445.125   0.15678113 
   53600    292.72209   -1003.1548    149910.88    -47528.05     4019.833   -51547.883   0.16261254 
   53700    293.99723   -959.68322     149935.6   -47507.228    4037.3439   -51544.572   0.14920012 
   53800    290.59822   -983.70967    149924.47   -47531.228    3990.6668   -51521.894   0.15963642 
   53900    293.60807   -1029.1907    149915.77   -47534.251    4031.9998    -51566.25   0.15667079 
   54000    287.73692   -995.06902    149916.34   -47545.022    3951.3737   -51496.396   0.15901789 
   54100     291.4945   -1028.7681    149926.97   -47517.897     4002.975   -51520.872    0.1584996 
   54200    293.30446    -984.5427    149946.96   -47468.519    4027.8304    -51496.35   0.15951086 
   54300    291.16962   -988.94026    149969.02   -47392.528    3998.5136   -51391.041   0.15841353 
   54400     294.1627    -997.3878    149981.37   -47310.461    4039.6163   -51350.078   0.16201689 
   54500    298.24813   -990.08377    149948.05   -47383.202    4095.7198   -51478.921     0.161318 
   54600    292.71831    -997.2083    149959.95   -47402.142    4019.7811   -51421.923   0.15734097 
   54700    293.54647   -1016.7745       149927   -47467.502    4031.1539   -51498.656   0.16019823 
   54800    298.20268   -999.95593    149932.91   -47394.214    4095.0958    -51489.31   0.15956184 
   54900    295.95388    -1024.179    149924.11   -47406.142    4064.2138   -51470.355   0.15888168 
   55000    295.97042   -973.58762    149952.97    -47439.39     4064.441   -51503.831   0.16012312 
   55100    292.62305   -1024.4757    149951.06   -47458.797    4018.4729    -51477.27   0.15852704 
   55200    289.80097   -983.82387    149898.74    -47567.13    3979.7185   -51546.849   0.15298231 
   55300    288.00023   -979.66222    149904.61     -47616.3    3954.9896    -51571.29   0.15588232 
   55400    290.09587   -1017.0129    149922.83   -47579.773    3983.7683   -51563.542   0.15172965 
   55500    294.64245   -994.11217    149915.22   -47540.104    4046.2045   -51586.309   0.15392045 
   55600    293.02067   -991.36533    149956.75   -47434.066    4023.9333       -51458   0.16288005 
   55700    297.55573   -961.48325    149954.44   -47386.389    4086.2114     -51472.6   0.14913912 
   55800    292.94643   -1012.0157    149975.34   -47380.493    4022.9138   -51403.407   0.16388238 
   55900    293.94472   -989.73337    149959.34    -47392.89    4036.6229   -51429.513   0.15702881 
   56000    291.62094   -1017.5458    149969.07    -47407.01    4004.7113   -51411.721   0.15963809 
   56100    294.25601   -1021.0088    149964.74   -47393.848    4040.8978   -51434.746   0.16353406 
   56200    298.74775   -1002.4466    149980.62   -47436.394    4102.5809   -51538.975   0.15495184 
   56300    289.87024   -1016.1081    149943.78   -47503.848    3980.6697   -51484.518   0.15755102 
   56400    295.51429   -990.69398    149935.48   -47553.234    4058.1771   -51611.411   0.15011557 
   56500    293.67939   -1007.7726    149910.08   -47599.447    4032.9793   -51632.427   0.15448559 
   56600     286.6512   -1023.1963    149886.07   -47655.718     3936.464   -51592.182   0.15083374 
   56700    285.62438   -1004.9656    149921.79   -47632.346    3922.3631   -51554.709   0.16126237 
   56800    288.75387   -1008.8214    149959.25   -47519.315     3965.339   -51484.654   0.15228493 
   56900    287.07448   -1008.8401    149938.76   -47622.473    3942.2767   -51564.749   0.15443698 
   57000    289.70507   -982.61375    149926.58     -47607.2    3978.4015   -51585.602   0.15375933 
   57100    287.34252   -979.54875    149935.41    -47523.74    3945.9576   -51469.698   0.15509991 
   57200    292.76398   -1009.8894    149921.23   -47473.597    4020.4082   -51494.005   0.16147173 
   57300    290.83162   -992.55354    149905.52    -47608.23    3993.8719   -51602.102   0.15818178 
   57400    294.02729   -1034.2071    149915.17   -47490.161    4037.7568   -51527.917   0.15716388 
   57500    291.82751   -996.38903    149918.83    -47454.65    4007.5481   -51462.198   0.16245667 
   57600    285.25928   -1022.0772    149895.58    -47563.82    3917.3492   -51481.169   0.15990475 
   57700    290.28509   -994.53707    149916.93   -47480.387    3986.3667   -51466.754   0.15980158 
   57800    296.19007   -955.79521    149939.03    -47424.41    4067.4573   -51491.867   0.16164468 
   57900    294.39195    -986.9256    149984.75   -47468.734    4042.7646   -51511.498   0.14795892 
   58000    291.01779   -998.60611    149947.02   -47420.902    3996.4285    -51417.33   0.16264105 
   58100    288.68944   -1022.3611    149951.11   -47475.035    3964.4543   -51439.489   0.15707766 
   58200    291.23609   -1009.4617    149972.04   -47372.396    3999.4264   -51371.822   0.16439443 
   58300    296.00516   -983.03303    149962.58   -47437.348     4064.918   -51502.266   0.16014294 
   58400    289.93978   -963.54861    149939.72   -47481.291    3981.6247   -51462.916   0.15776715 
   58500    290.14383   -1019.8048    149927.34   -47483.689    3984.4268   -51468.116   0.16113788 
   58600    299.26123   -992.65187    149903.43   -47524.801    4109.6323   -51634.434   0.15467949 
   58700    291.32923   -997.85069    149881.77   -47467.911    4000.7055   -51468.616   0.16362002 
   58800    292.31192   -981.48091    149896.55   -47515.888    4014.2003   -51530.089   0.15491521 
   58900    297.11557   -956.56389    149924.13   -47433.118    4080.1669   -51513.284   0.15343145 
   59000    296.29827   -988.61571    149941.38   -47394.773    4068.9432   -51463.716   0.15851328 
   59100    293.39271   -986.69726    149939.65   -47361.285    4029.0424   -51390.327   0.16345257 
   59200    291.00987    -1023.408    149938.45   -47479.086    3996.3198   -51475.406   0.16184754 
   59300    290.00732   -1028.7836    149927.79   -47466.424    3982.5521   -51448.976   0.15919366 
   59400    290.48709   -1010.9871    149947.68   -47446.349    3989.1407    -51435.49   0.16098429 
   59500    287.32928      -993.37    149921.88   -47552.235    3945.7757   -51498.011     0.155445 
   59600    286.97581   -991.41062     149920.9   -47527.834    3940.9216   -51468.755   0.16295233 
   59700    286.83324   -1024.8373    149926.14   -47457.595    3938.9638   -51396.558   0.16447409 
   59800    290.87684   -993.42039    149916.33   -47574.896     3994.493   -51569.389   0.15485626 
   59900    288.79055   -998.24433     149916.5   -47566.573    3965.8427   -51532.416   0.15832216 
   60000    288.19728   -982.92635    149931.25   -47532.252    3957.6957   -51489.948   0.15549093 
   60100    295.76337   -969.38936    149949.02   -47497.509    4061.5976   -51559.107   0.15309355 
   60200    290.41992   -974.56219    149957.22   -47462.612    3988.2182    -51450.83   0.16392017 
   60300    290.78993   -1012.1219    149958.03   -47419.416    3993.2995   -51412.716   0.15869984 
   60400    293.19662   -991.56907    149987.32   -47375.377    4026.3496   -51401.727   0.16396262 
   60500    293.64214   -958.97201    149977.07   -47397.995    4032.4676   -51430.462   0.16244631 
   60600    291.69168   -1001.9846    149964.38   -47465.347    4005.6829    -51471.03   0.15629902 
   60700    295.93311    -984.3587    149989.01   -47288.181    4063.9286   -51352.109   0.17139688 
   60800    297.39044    -1036.702    149998.82   -47312.269    4083.9415    -51396.21   0.16221474 
   60900    292.59382    -1023.545    149986.22   -47406.971    4018.0716   -51425.043   0.16251435 
   61000    289.22991   -1031.5163    149978.61   -47446.472    3971.8763   -51418.349    0.1630188 
   61100    294.88631    -984.6348    149979.66   -47436.887    4049.5533    -51486.44   0.16061989 
   61200    304.00702   -969.56064    149992.52   -47368.546    4174.8043    -51543.35    0.1539897 
   61300    295.93338   -997.42016    149978.98   -47465.732    4063.9324   -51529.664    0.1607053 
   61400    289.72244   -998.92055    149964.33   -47513.099    3978.6401   -51491.739   0.15201749 
   61500    290.80995   -988.91284    149953.76   -47456.707    3993.5743   -51450.281   0.15664613 
   61600    294.50705   -968.16173    149939.88   -47501.504    4044.3452   -51545.849   0.15985111 
   61700    288.68113   -1017.3452    149939.84   -47566.405    3964.3402   -51530.745   0.15638717 
   61800    290.82225   -1006.5061    149935.24   -47558.584    3993.7433   -51552.327   0.15845738 
   61900    294.49623   -1046.1672    149935.26   -47451.473    4044.1965   -51495.669   0.16511398 
   62000    290.69022   -987.91885    149949.95   -47459.681    3991.9302   -51451.611   0.15498722 
   62100    290.07061   -994.42669    149921.68   -47530.892    3983.4212   -51514.313    0.1606985 
   62200    294.22008   -966.96278    149947.85   -47417.045    4040.4042    -51457.45   0.16088055 
   62300    292.73735   -976.86211    149939.78   -47469.415    4020.0425   -51489.457   0.15184637 
   62400    291.20691   -998.97008    149917.28   -47515.444    3999.0256   -51514.469   0.16355359 
   62500    291.72744   -1003.4109    149913.38   -47501.771    4006.1739   -51507.945   0.15605661 
   62600    292.64634   -978.10944    149933.95   -47532.195    4018.7927   -51550.988   0.15204955 
   62700    290.85168   -1047.5015    149918.68   -47571.765    3994.1474   -51565.912   0.16335981 
   62800    288.51968   -1041.1712    149929.51   -47540.908     3962.123   -51503.031   0.15633158 
   62900    292.08044   -1006.5458    149933.14   -47451.258    4011.0215    -51462.28   0.16343821 
   63000    292.85453   -1029.1009     149940.4   -47483.868    4021.6517    -51505.52   0.16169371 
   63100    291.59683   -981.81592    149884.66   -47552.521    4004.3803   -51556.901   0.15317221 
   63200    295.42591    -1014.302    149909.17   -47427.724    4056.9635   -51484.688    0.1616581 
   63300    293.61133   -982.91003    149939.79   -47532.653    4032.0446   -51564.697   0.15825558 
   63400    288.89964   -998.54339    149907.47   -47617.716    3967.3409   -51585.057   0.15035187 
   63500    284.93332   -1033.7912    149915.81   -47596.333     3912.873   -51509.206   0.15558336 
   63600    284.75355   -1028.8237    149903.49   -47645.983    3910.4043   -51556.388   0.15509118 
   63700    286.79326   -990.51792    149883.13    -47608.55    3938.4148   -51546.965   0.15064067 
   63800    288.53533   -990.91576    149854.78   -47676.262    3962.3379     -51638.6   0.15587895 
   63900    289.49865   -1017.9172    149886.27   -47567.968    3975.5668   -51543.535   0.15740098 
   64000    296.13369   -959.49725    149931.12    -47481.38    4066.6831   -51548.063   0.15261688 
   64100    298.54514   -1017.4029     149945.4   -47435.908    4099.7985   -51535.707   0.15731381 
   64200    291.64929   -1039.5164    149953.52   -47428.523    4005.1006   -51433.623   0.16680407 
   64300    292.01801   -1024.0788    149954.18   -47466.381    4010.1642   -51476.545   0.15692836 
   64400    286.98105   -992.60583    149922.58   -47521.842    3940.9936   -51462.836   0.16241817 
   64500     294.2656   -959.66592    149932.71   -47509.456    4041.0294   -51550.485   0.14650206 
   64600    291.79997   -994.45874    149921.73   -47548.345    4007.1699   -51555.515   0.15573775 
   64700    288.38664   -988.38023    149900.04   -47548.362    3960.2961   -51508.658    0.1575621 
   64800    290.15155    -996.4818    149904.79    -47496.68    3984.5329   -51481.213   0.15751668 
   64900    295.37632   -977.53246    149915.66   -47405.705    4056.2824   -51461.988   0.15884902 
   65000    295.98944   -995.67218    149949.51   -47400.446    4064.7022   -51465.148   0.15547515 
   65100    292.85817   -968.99686    149944.51   -47465.695    4021.7017   -51487.397   0.15604457 
   65200    292.01712   -1031.1933    149921.09   -47482.889     4010.152   -51493.041   0.15681739 
   65300    290.34546   -1033.0664    149924.64    -47416.15    3987.1957   -51403.346   0.16926085 
   65400    288.11617   -1029.8563    149909.06   -47458.063    3956.5818   -51414.645   0.15856297 
   65500    294.76872   -983.92811    149913.16   -47392.141    4047.9385    -51440.08   0.16269994 
   65600    292.81042    -986.3565    149922.34   -47407.513     4021.046   -51428.559   0.15708628 
   65700    296.10332   -980.97254    149937.19   -47369.561    4066.2661   -51435.827    0.1637915 
   65800    294.97331   -983.10932    149922.98   -47436.529    4050.7481   -51487.277   0.15691461 
   65900    295.94978   -1002.4949    149911.07   -47446.912    4064.1576   -51511.069   0.15589996 
   66000    288.41801   -992.58736    149906.48    -47454.71    3960.7269   -51415.437   0.15831096 
   66100    293.70979   -990.02595     149923.1   -47421.277    4033.3967   -51454.673   0.16232378 
   66200    288.32929   -1004.9363    149908.21   -47557.826    3959.5085   -51517.334   0.15901886 
   66300    291.37474   -994.74772     149917.4   -47492.289    4001.3304   -51493.619   0.16143838 
   66400    288.11575   -989.69139    149908.25   -47493.435     3956.576   -51450.011   0.16219776 
   66500    289.97508   -990.08458    149901.98   -47532.149    3982.1095   -51514.259   0.15977354 
   66600     293.8395   -963.00196    149892.91   -47526.216    4035.1779   -51561.394   0.15609385 
   66700    292.91044   -938.53379    149912.19   -47512.254    4022.4195   -51534.673   0.15548754 
   66800    288.04889   -988.91535    149903.01   -47540.479    3955.6578   -51496.136   0.16186577 
   66900    287.55032   -1002.3529     149900.2   -47551.495    3948.8112   -51500.306   0.15317315 
   67000    285.96921   -1006.6524    149873.75   -47660.802    3927.0984   -51587.901   0.15870409 
   67100    289.20767   -1053.6887    149885.22   -47495.057    3971.5709   -51466.628   0.16791933 
   67200    284.04267    -1054.591    149881.88   -47603.397    3900.6421   -51504.039   0.15642652 
   67300    288.05249    -986.9039    149903.32   -47517.507    3955.7074   -51473.215   0.16223097 
   67400    294.21216   -975.81402    149902.11   -47495.491    4040.2956   -51535.787   0.15318547 
   67500    291.48591   -1016.3198    149917.25    -47478.95     4002.857   -51481.807   0.16140857 
   67600    299.18096   -1001.4426    149973.25   -47328.083      4108.53   -51436.613   0.16489876 
   67700    297.01436   -1015.5149    149957.35   -47397.817    4078.7769   -51476.594   0.15907735 
   67800    295.21613   -1003.6954    149967.28    -47444.46    4054.0827   -51498.542   0.16347549 
   67900    293.99313   -1036.3925    149960.79   -47477.806    4037.2876   -51515.093   0.16270967 
   68000    297.00591   -1004.2634    149920.14   -47512.325     4078.661   -51590.986   0.15378334 
   68100    293.09262   -990.76026    149912.75   -47521.485    4024.9213   -51546.406   0.15374021 
   68200     294.7224    -973.9554    149906.63   -47487.527    4047.3025    -51534.83   0.16053427 
   68300    294.43729   -998.31796    149935.73   -47433.927    4043.3871   -51477.315   0.15608601 
   68400    296.51613   -985.38057    149951.13   -47396.822    4071.9351   -51468.757   0.16406568 
   68500    297.81304   -1010.7828    149969.84   -47392.459    4089.7449   -51482.204   0.15845181 
   68600    282.39303   -1045.4402    149960.33   -47492.438    3877.9883   -51370.427   0.16088902 
   68700    291.17931   -1032.9565    149935.37   -47471.037    3998.6466   -51469.684   0.15938599 
   68800    290.56688   -994.36424    149933.49   -47469.248    3990.2364   -51459.484   0.15992448 
   68900    292.77574   -995.89248    149936.36     -47464.7    4020.5697    -51485.27    0.1536188 
   69000     290.6753   -980.75323    149952.71   -47472.188    3991.7253   -51463.914   0.16290553 
   69100    295.06526   -1021.0936    149932.22   -47535.039    4052.0109    -51587.05    0.1528826 
   69200    292.63241    -987.8563     149934.5   -47542.622    4018.6015   -51561.223   0.14799944 
   69300    290.26707   -991.82833    149919.82   -47571.937    3986.1192   -51558.056   0.16260415 
   69400    292.00742   -1014.6773    149916.67    -47629.41    4010.0188   -51639.429   0.14419456 
   69500    298.42366   -941.31431    149943.12   -47493.174    4098.1304   -51591.304    0.1496985 
   69600    294.30872   -1011.3085    149962.74   -47381.531    4041.6215   -51423.152   0.16034586 
   69700    288.73915   -1004.7797    149956.18    -47482.18    3965.1369   -51447.317   0.15684645 
   69800    293.82005   -989.34806    149943.48   -47480.603    4034.9108   -51515.514   0.15507481 
   69900    287.84157   -1020.2015    149918.67   -47576.992    3952.8108   -51529.803   0.16100362 
   70000    290.80724   -985.51351    149930.77   -47503.695    3993.5371   -51497.232   0.15322975 
   70100    287.44574   -1007.8351    149910.43   -47626.906     3947.375   -51574.281   0.15481742 
   70200    299.42671   -985.14227    149946.86   -47462.542    4111.9048   -51574.447   0.15231988 
   70300    295.47007   -993.17417    149934.81   -47469.529    4057.5698   -51527.099   0.15736139 
   70400    296.51532   -1000.6383     149947.1   -47355.952    4071.9239   -51427.876   0.16661107 
   70500    292.05757   -980.69847    149945.93   -47432.915    4010.7075   -51443.622   0.15369242 
   70600    292.14294   -978.29696     149930.3   -47491.751    4011.8798    -51503.63   0.15249329 
   70700    292.16981   -1003.3826    149915.49   -47461.984    4012.2487   -51474.232   0.16212534 
   70800    289.82957   -1027.2551    149932.65   -47499.334    3980.1111   -51479.445   0.15570308 
   70900    294.38133   -952.53999    149928.67   -47490.337    4042.6187   -51532.956    0.1516762 
   71000    290.82746   -1012.5722    149934.58   -47508.236    3993.8148    -51502.05     0.160136 
   71100    290.35291   -991.23543    149911.99   -47500.542    3987.2981    -51487.84   0.15038656 
   71200    286.82676   -1025.5264    149906.02   -47535.598    3938.8748   -51474.473   0.16013413 
   71300    287.81201   -989.25087    149889.61   -47588.421    3952.4048   -51540.826   0.15542917 
   71400    293.74976   -964.90611    149906.99   -47527.395    4033.9455   -51561.341    0.1503576 
   71500    292.68703   -1006.7483    149915.96    -47476.82    4019.3515   -51496.172   0.15879599 
   71600    300.03727   -987.58813    149898.09   -47489.274    4120.2894   -51609.563   0.15087804 
   71700    293.04389    -1010.071    149882.68   -47482.874    4024.2522   -51507.127   0.16065477 
   71800    289.62968    -1009.851    149869.65   -47659.742    3977.3662   -51637.109   0.15371969 
   71900    285.63464   -992.28721    149851.37   -47596.045    3922.5039   -51518.549   0.15620048 
   72000    290.36338   -966.52265    149863.58   -47561.382    3987.4419   -51548.824   0.15332476 
   72100    288.14224   -1005.6182    149890.82   -47427.082    3956.9398   -51384.022   0.16128588 
   72200    297.32599   -998.36551    149942.74   -47321.368    4083.0565   -51404.425   0.16667205 
   72300    293.87833   -1014.1449    149954.51   -47300.259    4035.7112    -51335.97   0.16124269 
   72400    293.64084   -992.15963    149943.97   -47418.193    4032.4498   -51450.643   0.16014557 
   72500    296.48506   -951.88884    149954.85    -47413.51    4071.5083   -51485.018    0.1533233 
   72600     293.5309   -994.73743    149949.38   -47352.917    4030.9401   -51383.858   0.16304372 
   72700    291.15222   -1039.2098    149934.12   -47517.041    3998.2746   -51515.316   0.15662615 
   72800    292.81302   -1011.3961    149924.83   -47443.793    4021.0818   -51464.875   0.16173306 
   72900    291.69788   -1014.1135    149945.36   -47454.222    4005.7679    -51459.99   0.15836226 
   73000    294.01183   -985.09279    149945.53   -47466.406    4037.5444    -51503.95   0.15674943 
   73100    298.33719   -1014.1859    149945.69   -47421.266    4096.9429   -51518.209   0.15430696 
   73200    293.07828    -1006.988    149974.09   -47407.809    4024.7245   -51432.533   0.15977896 
   73300    291.43366   -1030.3192     149974.7   -47384.703    4002.1396   -51386.842   0.16073515 
   73400    292.83737   -1013.9482    149995.42    -47369.46     4021.416   -51390.876   0.15659024 
   73500    298.68788   -1025.1254    149970.42   -47371.836    4101.7588   -51473.595   0.15926506 
   73600    293.03792   -1045.9769    149963.86    -47417.01    4024.1702   -51441.181   0.15704998 
   73700    291.08046   -994.00684     149921.1   -47471.529    3997.2892   -51468.818   0.16111961 
   73800    292.35929   -986.60895    149929.63   -47561.065    4014.8509   -51575.916   0.14416039 
   73900    289.70293   -1001.6617    149925.02   -47542.819     3978.372   -51521.191   0.16027807 
   74000     296.0169   -989.89557    149940.92   -47464.896    4065.0793   -51529.975   0.15294961 
   74100    300.56076   -995.69437    149987.06   -47299.014    4127.4783   -51426.492   0.15569948 
   74200    293.61118   -1004.6961    149985.01   -47466.498    4032.0426    -51498.54   0.15309522 
   74300    287.52204   -1004.3532    149948.98   -47469.881    3948.4228   -51418.303   0.15399535 
   74400    293.73182   -996.61904    149953.77   -47504.672    4033.6992   -51538.371   0.15382144 
   74500    292.62837   -990.25334    149929.77   -47520.225     4018.546   -51538.771     0.153198 
   74600    293.18823   -997.85859    149934.44   -47521.813    4026.2343   -51548.048   0.15146991 
   74700    289.26904   -996.78404    149945.48   -47435.695    3972.4137   -51408.109   0.15972769 
   74800    290.47477   -1000.8109    149936.21   -47492.997    3988.9715   -51481.969   0.15764557 
   74900    294.51116   -1044.7102    149939.94   -47496.365    4044.4016   -51540.767   0.15711265 
   75000    293.11541    -1008.493     149938.5   -47468.488    4025.2343   -51493.723    0.1574636 
   75100     299.1149   -1005.0992    149953.74   -47403.691    4107.6228   -51511.314   0.15622115 
   75200    292.96119   -991.18059    149939.69   -47446.899    4023.1165   -51470.016   0.15115403 
   75300     290.7906   -985.11441    149935.91   -47504.703    3993.3086   -51498.012   0.15666682 
   75400     291.5877   -1027.1589    149936.73   -47514.993    4004.2548   -51519.247   0.15516994 
   75500    292.10648   -972.38301    149922.71   -47505.735    4011.3791   -51517.114    0.1490407 
   75600    293.45591   -987.48108    149902.69   -47434.927    4029.9103   -51464.837   0.15931873 
   75700    297.67035   -978.52718    149939.49   -47393.938    4087.7855   -51481.723   0.15637846 
   75800     294.4325   -1037.8734    149940.37   -47419.147    4043.3213   -51462.468   0.15553613 
   75900    294.30578   -1000.0755    149936.76   -47432.132    4041.5812   -51473.713   0.16392777 
   76000    289.73102   -986.67077     149962.9   -47437.434    3978.7578   -51416.192   0.15312902 
   76100    285.67025   -1005.5696    149936.79   -47529.283    3922.9929   -51452.275   0.15378414 
   76200    288.25429   -1003.8159    149917.18   -47575.546    3958.4786   -51534.025   0.16001963 
   76300    293.76706   -1014.0324    149922.27   -47510.679    4034.1832   -51544.862   0.14939799 
   76400    289.15806   -1011.5749    149917.74   -47507.833    3970.8897   -51478.723   0.16250003 
   76500    293.39923   -994.45646    149926.78    -47496.72    4029.1319   -51525.852   0.15513828 
   76600    288.52531   -1011.6537     149914.8    -47537.31    3962.2004    -51499.51   0.15485565 
[...]
   81900     288.9465   -996.65806    149867.68   -47532.645    3967.9843    -51500.63   0.16410326 
   82000     294.9543   -999.69112    149914.22   -47451.474    4050.4871   -51501.961   0.15636032 
   82100    295.33011   -976.70179    149930.56   -47395.533    4055.6478    -51451.18   0.15891791 
   82200    294.44607   -1040.9406    149943.74    -47413.64    4043.5077   -51457.147   0.16252175 
   82300    292.76523   -990.85432    149929.67   -47485.182    4020.4254   -51505.608   0.15680283 
   82400    297.02809     -998.271    149956.49   -47363.732    4078.9656   -51442.698   0.15881903 
   82500    295.32289   -1013.6888    149991.43   -47263.227    4055.5488   -51318.775   0.16973161 
   82600    293.72123   -1014.9735    149996.79   -47373.568    4033.5537   -51407.122   0.15541298 
   82700    292.96467    -1032.999    149928.59   -47457.496    4023.1642    -51480.66   0.16233758 
   82800    297.91789    -974.0458    149915.01   -47462.601    4091.1848   -51553.785    0.1536683 
   82900    295.92076   -1027.2637    149934.39   -47418.267     4063.759   -51482.026   0.15542619 
   83000    304.65418   -959.18947    149945.32   -47350.511    4183.6916   -51534.203   0.15484854 
   83100    293.06835   -973.74121    149913.39     -47387.4     4024.588   -51411.988   0.15871741 
   83200    296.54186   -1020.3888    149931.54   -47428.796    4072.2884   -51501.084   0.15432651 
   83300    296.59683   -979.90507    149910.74   -47412.444    4073.0433   -51485.487   0.16011478 
   83400    292.91471   -1014.2269     149903.9   -47493.608    4022.4782   -51516.086   0.15417445 
   83500     288.8777   -995.40049    149876.45   -47603.232    3967.0396   -51570.271   0.15221068 
   83600    293.91356   -986.55296    149887.91   -47545.989    4036.1949   -51582.184     0.160497 
   83700     288.8675   -1008.4273     149883.1   -47572.811    3966.8994   -51539.711   0.15024195 
   83800    289.20564   -988.94231    149901.96   -47535.134     3971.543   -51506.677   0.15479057 
   83900    285.14899   -1040.7918    149902.07    -47530.41    3915.8348   -51446.245   0.15948912 
   84000    290.12737   -972.69308    149927.46   -47552.778    3984.2008   -51536.979    0.1473168 
   84100    291.04466   -989.98215    149921.22   -47477.717    3996.7975   -51474.514   0.15675345 
   84200    294.27016   -1038.0687    149918.72   -47439.134    4041.0921   -51480.226   0.15820787 
   84300    295.01854   -1003.3593    149935.91    -47490.26    4051.3692   -51541.629   0.15265339 
   84400    294.72024   -968.48749    149928.09   -47488.234    4047.2728   -51535.506    0.1554256 
   84500    295.00525   -1003.9893    149914.97   -47541.349    4051.1866   -51592.536   0.15291936 
   84600    291.82732   -1018.5999    149916.59   -47457.655    4007.5455     -51465.2   0.15868398 
   84700    295.01918   -1008.2083    149916.26   -47465.645     4051.378   -51517.023   0.15668372 
   84800    294.32899   -994.93049    149921.58   -47454.257    4041.8999   -51496.156   0.15407868 
   84900    292.27455   -1016.1211    149945.66   -47376.312    4013.6871   -51389.999   0.15542101 
   85000    289.90639   -996.79294    149927.17    -47451.61    3981.1661   -51432.776   0.15997851 
   85100    292.61146   -975.05032    149920.72    -47472.65    4018.3138   -51490.964   0.15335829 
   85200    290.56906   -996.65327    149920.68   -47512.834    3990.2664   -51503.101   0.15552755 
   85300    287.47706   -1020.3556    149914.23   -47519.468    3947.8051   -51467.273   0.15732638 
   85400    289.37736   -1006.9961    149910.43     -47550.9    3973.9012   -51524.801   0.15171997 
   85500    292.31695    -990.6539    149923.92   -47493.388    4014.2694   -51507.658   0.15400364 
   85600    288.17138   -1008.0327    149938.25   -47530.777    3957.3399   -51488.117   0.15584574 
   85700     294.3362   -981.75412    149922.12   -47470.049     4041.999   -51512.048   0.14754044 
   85800    293.34556   -1013.0193    149923.92   -47462.628    4028.3949   -51491.023   0.15916597 
   85900     295.7866   -1005.2334    149948.97   -47432.263    4061.9167    -51494.18   0.15376984 
   86000    293.95182   -991.19396    149941.21   -47483.607    4036.7204   -51520.327   0.15307828 
   86100     292.3122   -1015.7077    149923.53    -47455.18    4014.2041   -51469.384      0.16182 
   86200    295.46679   -968.36816    149944.75   -47419.941    4057.5249   -51477.466   0.15223518 
   86300    291.46751   -978.26041    149948.78   -47467.867    4002.6044   -51470.471   0.15744689 
   86400    295.92013   -993.36772       149937   -47528.577    4063.7504   -51592.327   0.14856542 
   86500    288.58139   -1016.3035    149910.25   -47558.098    3962.9705   -51521.068   0.15834441 
   86600    297.33898   -989.38131     149953.1   -47399.082    4083.2348   -51482.317    0.1535419 
   86700    298.05481   -1014.9782    149964.34    -47399.49    4093.0651   -51492.556   0.16023293 
   86800    294.99403   -985.39953    149950.07   -47520.499    4051.0326   -51571.532   0.14905084 
   86900    294.93773   -989.86435    149956.41    -47509.24    4050.2594   -51559.499   0.15517915 
   87000    289.80582   -986.83572    149964.73   -47480.186    3979.7851   -51459.971   0.14991222 
   87100    294.70824   -970.77796    149942.83   -47455.199     4047.108   -51502.307   0.15811933 
   87200    296.69848   -1021.0466    149956.14   -47386.821    4074.4391    -51461.26   0.15412761 
   87300    297.54348   -954.52396    149963.36   -47400.586    4086.0432   -51486.629   0.15288219 
   87400    296.32204   -1016.6498    149934.46   -47454.725    4069.2697   -51523.995    0.1544801 
   87500    294.03479   -993.01989    149923.99   -47427.316    4037.8598   -51465.176   0.15619964 
   87600    293.73388   -993.99646     149951.7   -47451.452    4033.7275   -51485.179   0.15498694 
   87700    296.75233   -974.99722    149943.95   -47421.361    4075.1786   -51496.539   0.15317489 
   87800    289.72888   -1006.6862    149915.18   -47508.373    3978.7284   -51487.102   0.15354178 
   87900    289.47756   -1026.9427    149910.66   -47530.953    3975.2772    -51506.23   0.15596548 
   88000    288.71082   -1019.4642    149931.06   -47501.788    3964.7479   -51466.536   0.15854936 
   88100    296.55634   -960.42384    149931.72   -47471.918    4072.4871   -51544.405   0.15109999 
   88200    288.82802    -1015.629    149909.01   -47572.713    3966.3574    -51539.07   0.15646711 
   88300    294.60898   -997.58323    149909.15   -47512.816    4045.7448   -51558.561   0.15010467 
   88400    293.74787   -989.89437    149938.58   -47440.515    4033.9196   -51474.434   0.15507126 
   88500    291.66727   -1013.9133    149935.77   -47516.416    4005.3476   -51521.763    0.1526401 
   88600    290.76938     -1042.48       149933   -47504.149    3993.0172   -51497.166   0.15417631 
   88700    294.79827   -1029.2422    149943.91   -47477.319    4048.3444   -51525.663   0.15571498 
   88800    291.57065   -997.68249    149959.89   -47540.972    4004.0207   -51544.993   0.15550337 
   88900     296.8038   -975.88789    149951.81   -47479.442    4075.8855   -51555.328   0.14723186 
   89000    294.48368   -1018.0592    149952.43   -47444.006    4044.0242    -51488.03   0.15569499 
   89100    286.52855   -1082.0391    149927.95    -47494.49    3934.7797    -51429.27   0.15986696 
   89200    291.15877    -1026.449    149942.96   -47446.826    3998.3646    -51445.19   0.15685273 
   89300    293.50029   -1031.2085    149925.38   -47568.485    4030.5197   -51599.005   0.14971729 
   89400    288.58371   -1044.3907    149938.03   -47469.266    3963.0023   -51432.269   0.16012319 
   89500    291.26136   -1003.9907    149936.96   -47565.346    3999.7734    -51565.12   0.14240838 
   89600    288.30089   -945.33716    149896.51    -47588.27    3959.1185   -51547.389   0.15296101 
   89700    288.66885   -981.04216    149930.29   -47502.945    3964.1715   -51467.116   0.14993361 
   89800    290.51385   -984.93882    149941.32   -47438.859    3989.5082   -51428.367   0.14965518 
   89900    293.90044   -993.65199    149948.05   -47420.934    4036.0147   -51456.949   0.15774691 
   90000    296.73505   -997.01399    149958.93   -47449.463    4074.9414   -51524.404   0.14658101 
   90100    296.75543   -995.85995    149962.97   -47428.923    4075.2212   -51504.144   0.15388327 
   90200    291.99712   -1024.4095    149943.61   -47508.356    4009.8772   -51518.233   0.15323325 
   90300    293.36737   -1000.0983    149917.28   -47477.532    4028.6943   -51506.226    0.1485122 
   90400     294.0451   -1010.9422    149961.46   -47467.265    4038.0013   -51505.266   0.15093531 
   90500     291.2281   -994.29273    149959.33   -47473.002    3999.3166   -51472.319   0.15450632 
   90600    283.11651    -992.8164    149954.34   -47500.489    3887.9235   -51388.412   0.15146644 
   90700    292.05481   -1001.7129    149928.35   -47533.183    4010.6695   -51543.852   0.15636377 
   90800     289.0486   -1020.5165    149944.07   -47556.047    3969.3865   -51525.434   0.14892528 
   90900    285.07263   -1041.8483    149942.04   -47523.781    3914.7862   -51438.567   0.15806825 
   91000    289.91954   -1008.2828    149914.26    -47538.64    3981.3467   -51519.987   0.15208341 
   91100    285.65844     -991.905    149883.97   -47644.991    3922.8308   -51567.822    0.1499429 
   91200    287.82859   -1008.3583    149870.16   -47588.261    3952.6325   -51540.893   0.14865723 
   91300    296.53485    -970.0232    149899.52   -47521.564     4072.192   -51593.756   0.15294632 
   91400    290.81355   -1033.9242    149914.84   -47495.506    3993.6238    -51489.13   0.15283124 
   91500     296.1632   -1007.3161    149938.16   -47333.951    4067.0884    -51401.04    0.1608557 
   91600    293.06759   -1016.0982    149940.88   -47398.501    4024.5776   -51423.078   0.15571194 
   91700    290.42318   -1007.2941    149932.98   -47474.409     3988.263   -51462.672   0.15593407 
   91800    292.73767   -998.11036    149950.67   -47444.197     4020.047   -51464.244   0.15313728 
   91900    293.23973   -1000.2427     149920.7   -47435.008    4026.9415   -51461.949   0.15310392 
   92000     293.6215   -1001.2699    149928.41    -47481.47    4032.1843   -51513.654   0.14917732 
   92100    292.83291   -1018.5814    149914.05   -47461.769    4021.3549   -51483.124   0.15440995 
   92200     292.3492   -1011.1179    149926.35   -47500.687    4014.7122   -51515.399   0.15561599 
   92300     293.2369   -1009.7885    149955.18   -47371.305    4026.9027   -51398.208   0.15584976 
   92400    294.46266   -997.03576    149944.44    -47420.33    4043.7355   -51464.066    0.1588407 
   92500    300.29702   -1035.5388    149967.08   -47417.113    4123.8564    -51540.97   0.15179064 
   92600    297.42347   -980.07522     149957.6   -47320.277    4084.3951   -51404.672   0.15675633 
   92700    289.13923   -1036.2183    149956.74   -47451.312     3970.631   -51421.943   0.15207307 
   92800    296.16567   -1015.3162    149938.88   -47460.307    4067.1223   -51527.429   0.15138947 
   92900    293.66789   -1006.0021    149941.75   -47498.438    4032.8213    -51531.26   0.14762417 
   93000    293.90078   -994.90662    149907.67   -47506.043    4036.0194   -51542.062   0.15005597 
   93100    294.07608   -1004.0433    149914.18    -47419.24    4038.4268   -51457.667   0.15410995 
   93200    292.39194   -979.90184     149918.4   -47484.359    4015.2992   -51499.658   0.15758746 
   93300    292.51132   -974.48936     149912.6    -47532.29    4016.9386   -51549.229   0.14868338 
   93400    285.35743   -1041.2975    149911.65   -47593.156    3918.6971   -51511.853   0.15508536 
   93500    286.46275   -1039.6877    149905.32    -47595.18    3933.8761   -51529.057   0.14872627 
   93600    288.17487   -1005.4177    149884.15   -47538.547    3957.3879   -51495.935    0.1525071 
   93700     291.6945   -996.06559    149901.33    -47514.39    4005.7215   -51520.112   0.15282945 
   93800    292.08935   -988.78906     149898.6   -47518.596    4011.1438    -51529.74   0.15115895 
   93900    291.54928    -972.0609    149869.34   -47589.228    4003.7273   -51592.956    0.1506996 
   94000    290.04933   -984.65505    149888.18    -47561.26    3983.1291   -51544.389   0.15363228 
   94100    297.48716   -957.10605    149923.21   -47441.616    4085.2697   -51526.886   0.14518626 
   94200     296.6847   -1014.2171    149946.52   -47437.795    4074.2499   -51512.044   0.15617677 
   94300    293.00065   -1015.3682    149935.39   -47449.095    4023.6584   -51472.753   0.15165716 
   94400    295.39487   -992.60304    149919.51   -47439.521    4056.5372   -51496.058   0.14988252 
   94500    290.65033   -1012.6514    149936.09   -47444.849    3991.3824   -51436.232   0.15712812 
   94600    297.64726   -979.86546    149929.21   -47452.096    4087.4683   -51539.565   0.14769929 
   94700    295.84704   -980.19987    149903.91   -47492.512    4062.7467   -51555.259   0.15317991 
   94800    294.91326   -1018.2627    149906.33   -47534.568    4049.9234   -51584.491   0.15077712 
   94900    290.42439   -969.77188    149885.13   -47557.082    3988.2797   -51545.362   0.15047874 
   95000    290.79433    -998.8576    149870.24   -47514.231    3993.3598   -51507.591   0.15155339 
   95100     288.8285   -982.70553    149885.11    -47471.56    3966.3639   -51437.924    0.1573911 
   95200    287.59095    -1044.903    149918.55    -47504.37    3949.3692    -51453.74   0.15088101 
   95300    288.80377   -1002.9608    149927.03   -47458.481    3966.0244   -51424.506   0.16053776 
   95400    293.77335   -1003.1205    149939.71   -47422.852    4034.2696   -51457.121   0.15338205 
   95500    292.42825    -1014.659    149947.54   -47448.059    4015.7979   -51463.857    0.1557953 
   95600    295.74725   -965.91858    149941.39   -47434.068    4061.3762   -51495.445   0.15202242 
   95700    291.55611   -1022.5742    149928.65   -47475.599    4003.8211    -51479.42    0.1575931 
   95800    300.12671   -1015.5979     149959.3   -47419.086    4121.5176   -51540.603   0.14857493 
   95900    292.94233   -1012.1428    149946.66   -47437.213    4022.8575   -51460.071   0.16161586 
   96000    294.79277   -1039.4473    149954.31   -47400.528    4048.2689   -51448.796   0.15507502 
   96100    295.04751     -1008.87    149982.49   -47350.665     4051.767   -51402.432    0.1546326 
   96200    297.87401   -979.42917    149960.86   -47373.694    4090.5822   -51464.276   0.15827467 
   96300    294.88696   -1024.8269     149953.7   -47398.432    4049.5623   -51447.994   0.15416549 
   96400    295.16113   -980.28208    149959.11   -47443.788    4053.3274   -51497.115   0.15631841 
   96500    293.60602    -993.3731    149917.83    -47432.08    4031.9717   -51464.051   0.15729988 
   96600    298.23757   -1010.7567    149924.67   -47484.035    4095.5748    -51579.61   0.15425508 
   96700    293.93958   -972.13321    149919.58   -47448.792    4036.5523   -51485.345   0.15370869 
   96800    290.67783   -1039.9672    149911.05   -47467.456      3991.76   -51459.216    0.1595943 
   96900    298.00892   -961.37454    149935.89   -47479.977    4092.4349   -51572.412   0.14503847 
   97000    293.55374   -984.49981    149929.95   -47558.328    4031.2537   -51589.581   0.15032819 
   97100     294.7174    -1018.187    149930.95   -47523.985    4047.2338   -51571.218   0.15149961 
   97200    301.18535    -986.6222    149920.15   -47464.249    4136.0555   -51600.304   0.15033182 
   97300    295.83274   -1013.9245    149958.79   -47351.374    4062.5503   -51413.924   0.15846715 
   97400     289.5808   -987.38859    149942.07    -47448.58    3976.6949   -51425.275   0.15544833 
   97500    295.00051   -1014.9852    149942.92   -47426.571    4051.1216   -51477.692   0.15042688 
   97600    296.66916   -948.18392    149955.13   -47363.903    4074.0365    -51437.94   0.16257835 
   97700    295.61471   -992.09256    149968.93   -47327.826    4059.5562   -51387.382   0.14962275 
   97800    291.08516   -1011.9464    149938.38   -47436.646    3997.3537   -51433.999   0.16005571 
   97900    297.28584   -989.76249    149931.64   -47393.193    4082.5052   -51475.699   0.15440719 
   98000    292.16298   -989.89168    149944.98   -47487.164     4012.155   -51499.319   0.15157128 
   98100    291.73372   -994.60682    149937.58   -47464.801    4006.2602   -51471.061   0.15332526 
   98200    291.39915   -996.57833    149942.76   -47462.119    4001.6656   -51463.785   0.15465012 
   98300    297.17385   -982.53501    149969.69   -47399.173    4080.9671    -51480.14   0.15464675 
   98400    290.31199   -996.88678    149961.95   -47441.533    3986.7361   -51428.269   0.15303994 
   98500    292.34094   -986.61921    149929.07   -47414.493    4014.5988   -51429.092   0.15472073 
   98600    292.99126   -1004.8303    149940.03   -47432.566    4023.5295   -51456.095   0.15737368 
   98700    296.46366   -990.24312    149957.09   -47395.078    4071.2145   -51466.293   0.15424876 
   98800      291.764   -1021.9699    149935.34    -47406.33    4006.6759   -51413.006   0.15737487 
   98900    290.23535   -1003.4764    149930.98   -47470.323    3985.6835   -51456.007   0.15659477 
   99000    294.12769   -962.68655    149920.24   -47462.059    4039.1355   -51501.194   0.15043931 
   99100    286.96406   -1006.5248    149904.68   -47523.204    3940.7603   -51463.964    0.1581502 
   99200    291.96808   -1043.9806    149923.78   -47532.676    4009.4785   -51542.154    0.1474177 
   99300    289.94752   -1004.1028    149909.59   -47450.687     3981.731   -51432.418   0.16263815 
   99400    291.56424   -1034.5535    149944.19   -47497.726    4003.9327   -51501.658   0.14806811 
   99500    296.03148   -1011.9148    149929.76   -47449.117    4065.2795   -51514.396   0.15744433 
   99600    293.19495   -981.77939    149927.25   -47439.586    4026.3266   -51465.912   0.15394113 
   99700    291.94658   -1012.2482    149924.69   -47488.707    4009.1832   -51497.891   0.15242293 
   99800    291.98067   -1010.8616    149934.77   -47502.384    4009.6514   -51512.035   0.15177865 
   99900     292.4331   -976.29541    149916.31   -47560.126    4015.8645    -51575.99   0.14910753 
  100000    292.14741   -984.11153    149925.11    -47476.29    4011.9412   -51488.231   0.15230528 
Loop time of 55.112 on 6 procs for 100000 steps with 4608 atoms

Performance: 783.858 ns/day, 0.031 hours/ns, 1814.486 timesteps/s
98.0% CPU use with 6 MPI tasks x no OpenMP threads

MPI task timing breakdown:
Section |  min time  |  avg time  |  max time  |%varavg| %total
---------------------------------------------------------------
Pair    | 37.773     | 38.334     | 39.484     |   9.4 | 69.56
Neigh   | 5.3176     | 5.4447     | 5.6757     |   6.2 |  9.88
Comm    | 7.4684     | 8.4483     | 9.127      |  19.6 | 15.33
Output  | 0.17023    | 0.17117    | 0.17546    |   0.5 |  0.31
Modify  | 1.9724     | 2.0226     | 2.0636     |   2.5 |  3.67
Other   |            | 0.6917     |            |       |  1.26

Nlocal:        768.000 ave         778 max         759 min
Histogram: 1 0 0 2 1 0 1 0 0 1
Nghost:        1395.50 ave        1402 max        1389 min
Histogram: 1 0 0 1 0 2 1 0 0 1
Neighs:        0.00000 ave           0 max           0 min
Histogram: 6 0 0 0 0 0 0 0 0 0
FullNghs:      21858.7 ave       22186 max       21582 min
Histogram: 1 0 0 2 1 1 0 0 0 1

Total # of neighbors = 131152
Ave neighs/atom = 28.461806
Neighbor list builds = 6334
Dangerous builds = 0

undump              1
unfix               2
unfix               3
unfix               4




################################################
#######         Run Simulation         #########
################################################

reset_timestep      0
log                 log.run_${NAME}
log                 log.run_ice_293K_-1000atm_ML
