
# Set production fixes - Nose/Hoover
#
fix                 2 all nph iso ${PRES} ${PRES} ${PCOUPL}
fix                 2 all nph iso -1000 ${PRES} ${PCOUPL}
fix                 2 all nph iso -1000 -1000 ${PCOUPL}
fix                 2 all nph iso -1000 -1000 10000.0
fix                 3 all temp/csvr ${TEMP} ${TEMP} ${TCOUPL} 837492
fix                 3 all temp/csvr 293 ${TEMP} ${TCOUPL} 837492
fix                 3 all temp/csvr 293 293 ${TCOUPL} 837492
fix                 3 all temp/csvr 293 293 5000.0 837492

# Define Order parameter
#
compute             2 all orientorder/atom nnn NULL cutoff 3.5
thermo              200
thermo_style        custom step temp press vol etotal ke pe c_1[4]

# Run 1ns simulation
dump		    1 all custom 400 prod.${NAME}.dump id type x y z vx vy vz c_2[*]
dump		    1 all custom 400 prod.ice_293K_-1000atm_ML.dump id type x y z vx vy vz c_2[*]
run                 200000
Neighbor list info ...
  update every 1 steps, delay 0 steps, check yes
  max neighbors/atom: 2000, page size: 100000
  master list distance cutoff = 6.0032907
  ghost atom cutoff = 6.0032907
  binsize = 3.0016454, bins = 20 18 18
  2 neighbor lists, perpetual/occasional/extra = 1 1 0
  (1) pair sw, perpetual
      attributes: full, newton on
      pair build: full/bin/atomonly
      stencil: full/bin/3d
      bin: standard
  (2) compute orientorder/atom, occasional, copy from (1)
      attributes: full, newton on
      pair build: copy
      stencil: none
      bin: none
Per MPI rank memory allocation (min/avg/max) = 5.822 | 5.822 | 5.822 Mbytes
Step Temp Press Volume TotEng KinEng PotEng c_1[4] 
       0    292.14741    -984.5577    149925.11   -47476.271    4011.9412   -51488.212   0.15230528 
     200    292.74192   -985.64407     149931.7   -47465.284    4020.1053    -51485.39    0.1513453 
     400    296.84447   -996.19948    149941.66   -47459.892    4076.4439   -51536.336   0.14812892 
     600    292.72031   -976.17905    149949.48   -47497.559    4019.8086   -51517.368   0.15002574 
     800    288.00416   -1036.7299    149929.95   -47512.059    3955.0437   -51467.102   0.15851057 
    1000    288.76829   -965.31003     149889.7   -47525.664     3965.537   -51491.201   0.15396686 
    1200    291.53842   -983.96228    149924.42    -47550.51    4003.5782   -51554.088   0.14938364 
    1400    291.90209   -1053.9641    149964.49   -47541.474    4008.5722   -51550.046   0.15334577 
    1600     292.9454   -987.66632    149915.23   -47545.012    4022.8996   -51567.912   0.14941533 
    1800    290.10264   -981.86413    149865.45   -47551.863    3983.8612   -51535.724   0.15087284 
    2000    289.47384   -1022.2564    149902.92   -47504.578    3975.2262   -51479.804   0.15677605 
    2200    291.07701   -1007.3423    149928.03   -47472.257    3997.2419   -51469.499   0.15925187 
    2400    290.63751   -1044.0418    149906.35   -47491.114    3991.2063    -51482.32   0.15430939 
    2600    288.99146    -980.6873    149894.03   -47536.027    3968.6018   -51504.628   0.14602746 
    2800    292.99314   -986.73376    149930.26   -47552.805    4023.5553    -51576.36   0.14760939 
    3000    289.22951   -1040.0787    149957.35   -47564.134    3971.8709   -51536.005   0.14964215 
    3200    292.15945   -975.64521    149883.03    -47510.94    4012.1064   -51523.047   0.15004645 
    3400    291.59947   -946.67192     149845.5   -47550.813    4004.4166    -51555.23   0.14721966 
    3600     290.6863   -987.56162    149941.85   -47578.601    3991.8763   -51570.477   0.14831643 
    3800    292.01627   -1038.3485     150012.3   -47502.682    4010.1403   -51512.822   0.14397579 
    4000    288.59425     -995.585    149929.61   -47497.847    3963.1471   -51460.994   0.14842879 
    4200     294.3012   -940.63608    149885.45   -47515.851    4041.5183   -51557.369   0.15105832 
    4400    287.49106   -996.38503    149958.18   -47501.469    3947.9974   -51449.466   0.15447342 
    4600    294.46022   -1052.8825    149980.61   -47481.568     4043.702    -51525.27   0.15395626 
    4800    296.69127   -957.31872    149890.88   -47472.797    4074.3402   -51547.137   0.14525701 
    5000    297.14595   -919.77846     149882.9   -47452.013    4080.5841   -51532.597   0.15131938 
    5200    295.38261   -1006.2931       150010   -47452.694    4056.3688   -51509.063   0.15574567 
    5400    291.71094   -1040.5971    150033.71   -47411.539    4005.9472   -51417.486   0.15908108 
    5600    291.92942   -962.87598    149894.49   -47397.598    4008.9476   -51406.545   0.16263552 
    5800    292.00202   -1007.2667    149903.29   -47387.482    4009.9446   -51397.426   0.16039478 
    6000    297.24642   -1057.8075    150038.73   -47371.239    4081.9638   -51453.203   0.15451972 
    6200    297.28472   -1003.0088    150008.02   -47364.962    4082.4897   -51447.451   0.15597849 
    6400    296.04922   -941.35677    149920.22   -47334.611    4065.5231   -51400.134   0.15621114 
    6600    293.20721   -1004.0351    149981.04   -47373.783    4026.4949   -51400.278   0.15591336 
    6800    289.47909   -1050.8654       150045   -47413.481    3975.2982   -51388.779   0.15486402 
    7000    290.08682   -1032.5594    149955.23   -47418.315    3983.6439   -51401.958   0.15201849 
    7200    298.59549   -906.98674    149900.88    -47367.51    4100.4899       -51468   0.15134282 
    7400    295.69738   -1038.0996    150052.53   -47349.365    4060.6915   -51410.057   0.15353529 
    7600    297.07163   -1044.9473    150106.85    -47381.87    4079.5635   -51461.434   0.15395958 
    7800    291.18522   -937.94473    149905.85   -47413.727    3998.7278   -51412.455   0.15245161 
    8000    293.58186   -882.41317    149866.24   -47380.453    4031.6398   -51412.092    0.1477159 
    8200    294.52881   -1076.1241    150112.69   -47413.456     4044.644     -51458.1   0.15456591 
    8400    296.02229   -1099.3368    150077.99   -47439.798    4065.1532   -51504.951   0.15117476 
    8600    293.86815   -832.95652    149747.11   -47402.737    4035.5714   -51438.308    0.1500906 
    8800    295.12691   -937.34857     149829.1   -47332.018    4052.8574   -51384.875   0.16251106 
    9000    296.42858   -1190.8887    150230.81    -47304.69    4070.7327   -51375.423   0.16184317 
    9200    298.70248   -1111.1354    150120.65    -47290.84    4101.9592   -51392.799   0.15813795 
    9400     299.9196   -768.10513    149678.98   -47347.807    4118.6735   -51466.481   0.15434289 
    9600    301.17051   -926.42326    149862.93   -47335.641    4135.8518   -51471.493   0.15802252 
    9800    294.81694   -1273.4908     150350.8   -47343.881    4048.6007   -51392.482   0.15990287 
   10000    294.59166   -1084.7758    150096.18   -47343.361    4045.5071   -51388.868   0.15977051 
   10200    298.13126   -694.94714    149607.85   -47343.143    4094.1149   -51437.258   0.15339101 
   10400    293.73229   -996.48706    149943.17    -47326.83    4033.7056   -51360.536   0.15546366 
   10600    302.14749   -1319.9159    150407.15   -47301.355    4149.2682   -51450.623   0.15824973 
   10800    296.26858   -982.24077    149966.07   -47338.954    4068.5355    -51407.49   0.16085739 
   11000    301.31355    -699.9922    149517.36   -47388.258     4137.816   -51526.074   0.15558729 
   11200     296.9788   -1040.3278    150024.42   -47399.124    4078.2886   -51477.413   0.15195643 
   11400    297.83724   -1322.0636       150396   -47417.483    4090.0773    -51507.56   0.15810371 
   11600    295.21404   -902.46014    149790.79   -47397.512    4054.0539   -51451.565   0.15452336 
   11800    295.21703   -669.61701    149497.67   -47476.513    4054.0949   -51530.608   0.14587631 
   12000    291.41203   -1158.0605    150131.76   -47468.132    4001.8425   -51469.975    0.1561737 
   12200      291.725   -1313.2305    150356.41   -47441.403    4006.1404   -51447.544   0.16101863 
   12400    295.72283   -831.14044    149749.27   -47419.167    4061.0409   -51480.208    0.1502444 
   12600     293.4011   -744.64935     149601.8   -47431.577    4029.1576   -51460.734    0.1500656 
   12800    294.67092   -1130.2281    150188.54   -47434.559    4046.5955   -51481.154   0.15825202 
   13000     292.9558   -1221.6402    150260.06   -47411.915    4023.0425   -51434.957   0.16435588 
   13200    302.11408   -787.49275    149667.27   -47393.081    4148.8094    -51541.89   0.15016593 
   13400    295.68609   -799.60657    149646.59   -47413.459    4060.5364   -51473.995   0.15250633 
   13600    297.96499   -1230.1762     150205.6    -47395.76    4091.8316   -51487.592   0.15895265 
   13800    291.35511   -1213.2388    150154.13     -47389.5    4001.0608    -51390.56   0.16346318 
   14000     297.3546   -795.75177    149668.83   -47417.653    4083.4493   -51501.102   0.15162011 
   14200    289.47483    -884.7055     149778.8   -47442.523    3975.2397   -51417.763   0.15399397 
   14400    292.73496   -1186.6668    150176.54    -47461.96    4020.0097   -51481.969    0.1551953 
   14600    292.16996   -1077.5246    150001.38    -47459.31    4012.2508    -51471.56   0.15341232 
   14800    296.94223   -809.10873    149677.36   -47447.257    4077.7864   -51525.043   0.14944265 
   15000    290.73523   -956.92506    149850.75   -47497.079    3992.5482   -51489.627   0.15234268 
   15200     290.0154   -1194.7249    150087.01   -47546.872    3982.6631   -51529.535   0.15694901 
   15400    290.20446   -1004.4673    149897.02   -47566.445    3985.2594   -51551.705   0.15105344 
   15600    289.26206   -867.64983    149719.64   -47605.462    3972.3178   -51577.779   0.14438662 
   15800    288.82152   -987.22716    149918.66    -47554.41     3966.268   -51520.678   0.14913641 
   16000    285.45019    -1129.152    150032.12   -47538.003    3919.9709   -51457.974   0.15367983 
   16200     293.3561   -947.65683    149834.07   -47488.303    4028.5396   -51516.843   0.15134938 
   16400    295.39434   -912.51074    149805.53   -47486.161      4056.53   -51542.691   0.15009361 
   16600    290.19371   -1096.9325    150026.27   -47500.045    3985.1118   -51485.157    0.1548839 
   16800    297.99459   -1062.5292    150028.21   -47454.788    4092.2382   -51547.026     0.152713 
   17000    287.17624    -929.2412    149838.04   -47480.103    3943.6741   -51423.777   0.15126846 
   17200    293.91549   -907.95374    149839.51   -47462.954    4036.2214   -51499.175   0.14969319 
   17400    287.22191   -1091.2977    150039.95   -47506.273    3944.3013   -51450.574    0.1576597 
   17600    293.12952   -1062.2158     149996.4   -47545.198     4025.428   -51570.627    0.1514132 
   17800    292.62318   -882.55208    149737.38   -47567.435    4018.4747   -51585.909   0.14865794 
   18000    286.76514   -971.95751    149813.05   -47599.643    3938.0286   -51537.671   0.15449896 
   18200    282.50263   -1148.8594    150034.08   -47620.894    3879.4934   -51500.387    0.1567253 
   18400    284.11817   -1048.0135    149894.74   -47644.085    3901.6789   -51545.764   0.15406535 
   18600    293.74135     -816.308    149685.38   -47603.782    4033.8301   -51637.612   0.14372903 
   18800    286.92439    -1019.092    149911.84   -47534.644    3940.2156    -51474.86   0.15607743 
   19000    286.49245   -1153.7446    150135.95       -47560    3934.2839   -51494.284    0.1569154 
   19200    289.30371    -984.2936    149884.39   -47537.549    3972.8898   -51510.439   0.14671498 
   19400    290.86164   -814.94045    149715.81   -47530.757    3994.2842   -51525.041   0.14551442 
   19600    284.17785   -1068.6607    150065.15   -47554.782    3902.4984    -51457.28   0.15105301 
   19800    287.83437   -1170.4984    150174.13   -47550.087    3952.7119   -51502.798   0.15457573 
   20000    292.60246   -900.29844    149766.52     -47545.8    4018.1901    -51563.99   0.14979628 
   20200    294.08205   -841.43837    149689.42   -47574.516    4038.5088   -51613.025   0.14373753 
   20400    291.44342   -1122.1432     150097.5   -47546.637    4002.2735   -51548.911   0.14923477 
   20600     286.1174    -1189.987    150118.83   -47541.901    3929.1335   -51471.034   0.15687519 
   20800    288.62872    -792.6524     149671.6   -47550.183    3963.6205   -51513.803   0.14908516 
   21000    290.69154   -852.44035    149739.09   -47545.109    3991.9484   -51537.057   0.15190466 
   21200    291.06161   -1222.0808    150185.41    -47528.45    3997.0304   -51525.481   0.15574143 
   21400     289.9887   -1084.7483    150023.76   -47526.184    3982.2964    -51508.48   0.15353418 
   21600    292.18639   -782.18299    149627.41   -47487.588    4012.4765   -51500.065    0.1512412 
   21800    294.78259   -989.69875    149903.57   -47435.528     4048.129   -51483.658   0.16048308 
   22000    289.77018   -1250.7853    150279.15   -47434.402    3979.2956   -51413.697   0.16510651 
   22200    298.92241    -950.1006    149922.72   -47399.138    4104.9795   -51504.117   0.15327565 
   22400     300.2494   -715.15727    149629.25   -47380.162    4123.2025   -51503.365   0.14803696 
   22600    297.92981   -1028.5294    150116.37    -47380.22    4091.3485   -51471.568    0.1530717 
   22800    296.77677   -1327.6379    150411.02   -47411.097    4075.5143   -51486.611   0.15862406 
   23000    295.78253    -833.5652    149768.71    -47438.26    4061.8608   -51500.121   0.15371462 
   23200    291.14843    -678.9229    149514.37   -47434.462    3998.2225   -51432.685   0.15670306 
   23400    294.64971   -1246.2889    150287.45   -47433.566    4046.3042   -51479.871   0.15892931 
   23600    292.03742   -1359.6694    150415.75   -47445.899    4010.4307    -51456.33   0.16156281 
   23800    291.17336   -667.23808    149464.88   -47398.202     3998.565   -51396.767   0.15177439 
   24000    292.95279   -688.72597       149488   -47437.469    4023.0011    -51460.47   0.15053608 
   24200    292.36949    -1426.923     150545.2   -47404.329    4014.9909    -51419.32   0.16029247 
   24400    290.70558   -1340.6792    150372.87   -47412.291    3992.1411   -51404.432   0.16182206 
   24600    290.70746   -517.45612    149275.95   -47426.436     3992.167   -51418.603   0.14801386 
   24800    297.79468   -752.60492    149649.82   -47348.112    4089.4928   -51437.605   0.15050131 
   25000    300.92544   -1531.3291    150716.08   -47329.042    4132.4862   -51461.528   0.16016044 
   25200    294.33385   -1169.6105    150210.14   -47361.473    4041.9666    -51403.44   0.15691158 
   25400    297.74862   -477.29362    149308.88   -47436.822    4088.8602   -51525.682   0.15034391 
   25600     291.0454    -931.3294    149844.43    -47455.27    3996.8076   -51452.078   0.15613771 
   25800    293.03362   -1362.2368    150493.79   -47421.158    4024.1112   -51445.269   0.15614414 
   26000    294.89131   -1022.2084    149977.17   -47407.357     4049.622   -51456.979   0.15650281 
   26200    296.34096    -703.5417    149515.94   -47461.164    4069.5295   -51530.693   0.15349714 
   26400    288.99357   -1012.2423     149923.7   -47479.268    3968.6308   -51447.899   0.16058618 
   26600    295.62512   -1181.6524    150212.09   -47484.646    4059.6991   -51544.345   0.15503923 
   26800     289.2583    -969.9044    149879.39   -47494.177    3972.2662   -51466.443   0.15282267 
   27000    290.24782   -866.81982    149700.86   -47497.373    3985.8548   -51483.227    0.1551495 
   27200     287.0033   -1040.5778    150000.27   -47486.772    3941.2992   -51428.071   0.15639621 
   27400    290.41353   -1074.9197    150105.95   -47448.758    3988.1305   -51436.889   0.15762764 
   27600    295.31548   -923.92337    149834.91   -47458.604     4055.447   -51514.051   0.15618841 
   27800     292.3319   -893.53359    149761.48   -47455.749    4014.4747   -51470.224   0.15116621 
   28000    289.94866   -1092.8982     150012.6   -47440.027    3981.7466   -51421.774   0.15623831 
   28200    294.20511   -1108.2069    150048.69   -47458.462    4040.1987   -51498.661   0.15437223 
   28400    293.06539   -924.08402    149809.01    -47456.87    4024.5474   -51481.418   0.15792076 
   28600     290.1006   -930.79899    149817.07   -47477.272    3983.8332   -51461.105   0.15461764 
   28800     291.7942   -1130.5898    150061.78   -47485.629    4007.0907    -51492.72   0.15731269 
   29000    286.66884    -1056.846    149977.43   -47522.269    3936.7062   -51458.975   0.15304365 
   29200    289.07467   -829.47134    149673.89   -47562.513    3969.7444   -51532.258   0.14841687 
   29400    284.35806   -943.89808    149764.38   -47560.955    3904.9732   -51465.928   0.15522574 
   29600    289.50398   -1145.1854     150076.9   -47516.759      3975.64   -51492.399   0.15761164 
   29800    295.98963   -1085.1054    149990.93   -47440.174    4064.7048   -51504.879   0.16053844 
   30000    290.72019   -877.05204    149743.27    -47434.13    3992.3417   -51426.471   0.16050701 
   30200    290.14221   -1006.7918    149926.93   -47441.184    3984.4045   -51425.588   0.15887532 
   30400    292.48555   -1163.7837    150172.21   -47489.928    4016.5846   -51506.513   0.15275526 
   30600    293.07292   -949.92027    149903.95   -47441.078    4024.6509   -51465.729   0.15760013 
   30800    293.74162   -822.18689    149729.84   -47410.567    4033.8338   -51444.401   0.15879269 
   31000    293.19073   -1127.4654    150067.05   -47393.484    4026.2686   -51419.753   0.16549219 
   31200    296.26683   -1166.9023    150186.06   -47394.663    4068.5115   -51463.174   0.15482944 
   31400      296.053   -866.12186    149789.25   -47398.513     4065.575   -51464.088   0.14940229 
   31600    300.02735   -783.25785    149693.63    -47462.67    4120.1532   -51582.823    0.1453826 
   31800     292.4841   -1161.2573    150147.83    -47427.55    4016.5648   -51444.115   0.15957315 
   32000    294.63804   -1155.9404     150228.2   -47395.521    4046.1439   -51441.665    0.1639517 
   32200    295.29653   -834.20494    149756.27   -47437.765    4055.1868   -51492.952   0.15256022 
   32400     299.5851   -807.14515    149710.68   -47433.852    4114.0799   -51547.932   0.14728763 
   32600    293.64705   -1193.6429    150231.58   -47411.361    4032.5352   -51443.896   0.15759262 
   32800    296.11467   -1174.2198    150209.71   -47408.965     4066.422   -51475.387   0.16390714 
   33000    299.42071   -755.57674    149637.93    -47406.25    4111.8224   -51518.072   0.15293254 
   33200    290.56608   -880.96752    149736.61     -47400.4    3990.2254   -51390.626   0.15890329 
   33400     294.5539    -1285.798    150364.64   -47351.035    4044.9885   -51396.023   0.15967088 
   33600    295.59291   -1160.9286    150189.55    -47285.58    4059.2569   -51344.837     0.162042 
   33800    297.79195   -648.83124    149538.98    -47330.51    4089.4553   -51419.965   0.15422672 
   34000    293.68035   -876.41369     149854.4   -47349.512    4032.9923   -51382.505   0.15739048 
   34200    289.19395   -1414.0924    150548.01   -47368.986    3971.3825   -51340.369   0.17487626 
   34400    296.31271   -1040.7085    150069.01   -47444.713    4069.1415   -51513.854   0.15868367 
   34600    292.98859   -552.05981     149401.1    -47425.51    4023.4928   -51449.003   0.15087809 
   34800    295.45711   -1027.6794     150007.7   -47461.211     4057.392   -51518.603   0.15251677 
   35000    290.24692   -1427.5669    150535.63   -47476.014    3985.8425   -51461.856   0.16512348 
   35200    291.37952   -905.74766    149824.48   -47474.959    4001.3961   -51476.355   0.15442972 
   35400    293.75572    -595.5961     149418.9   -47441.987    4034.0274   -51476.015   0.15426571 
   35600    297.74329   -1177.9904    150155.67   -47427.526     4088.787   -51516.313   0.16428836 
   35800    292.53293   -1361.6211    150426.65    -47421.71    4017.2353   -51438.945   0.16110194 
   36000    294.05857   -795.44128    149701.34   -47433.402    4038.1863   -51471.588    0.1497115 
   36200    295.55246    -680.9291    149543.81    -47451.33    4058.7013   -51510.032   0.15171562 
   36400    291.37415   -1171.6495    150180.79   -47469.646    4001.3223   -51470.968   0.16535152 
   36600    292.50316   -1235.4146    150238.26   -47442.048    4016.8265   -51458.875   0.16137653 
   36800    287.60307   -874.94046    149701.49   -47493.624    3949.5356    -51443.16   0.15504997 
   37000    292.91508   -833.12473     149686.7   -47484.647    4022.4832    -51507.13   0.15091317 
   37200    294.96615   -1107.1683    150087.89   -47439.296    4050.6497   -51489.946   0.15529718 
   37400    289.99393    -1127.797     150077.9   -47430.207    3982.3683   -51412.575   0.16364322 
   37600    290.39511   -878.27404    149760.59   -47462.912    3987.8775   -51450.789   0.15845556 
   37800    297.80455   -929.33866    149813.75   -47428.123    4089.6284   -51517.751    0.1576033 
   38000    291.14947    -1128.431    150080.58   -47477.248    3998.2368   -51475.485   0.15639576 
   38200    293.18313   -1028.9751    149955.07   -47473.202    4026.1643   -51499.366   0.15992986 
   38400    292.78255   -880.56887    149737.92    -47440.71    4020.6632   -51461.373   0.16692296 
   38600    295.54409   -984.38459    149900.53   -47435.797    4058.5863   -51494.384   0.16460648 
   38800    287.19485   -1127.5353    150052.38   -47483.525    3943.9296   -51427.454   0.16526359 
   39000    289.28043   -973.16114    149854.78   -47513.711    3972.5701   -51486.281   0.15694619 
   39200    287.33864   -905.25591     149760.4   -47535.001    3945.9043   -51480.906   0.15227451 
   39400    291.31591   -1033.3317     149981.1   -47523.084    4000.5224   -51523.606   0.15341044 
   39600    285.34132   -1153.9175    150040.84   -47591.874    3918.4759    -51510.35   0.16061999 
   39800    287.10275   -909.39621    149776.47   -47584.166    3942.6649   -51526.831   0.15455509 
   40000    288.34952   -915.96118    149753.47   -47598.015    3959.7862   -51557.801   0.15709474 
   40200    290.06217   -1118.9002    149994.72   -47569.201    3983.3054   -51552.506   0.15792412 
   40400    292.79853   -1050.2889    149974.67   -47563.612    4020.8827   -51584.495   0.15628004 
   40600    290.65877   -893.54354    149727.64   -47595.872    3991.4983    -51587.37   0.15064645 
   40800     286.3795   -1001.4457    149770.56   -47613.196    3932.7328   -51545.929   0.15897969 
   41000    287.26015   -1142.1497    150015.21   -47564.148    3944.8264   -51508.975   0.16222749 
   41200    287.15344   -1069.9275    149935.77   -47598.628     3943.361   -51541.989   0.15608219 
   41400    290.37976   -868.83433    149713.86   -47566.448    3987.6667   -51554.115   0.15420462 
   41600    286.94702   -1028.6932    149866.19   -47559.205    3940.5263   -51499.731     0.155429 
   41800      289.105   -1114.9717    150060.28   -47555.136     3970.161   -51525.297   0.15698653 
   42000    286.43794   -985.39317    149871.31   -47529.814    3933.5353   -51463.349   0.16023384 
   42200    289.93309   -882.02852    149725.31   -47559.269    3981.5329   -51540.802   0.16014892 
   42400    287.02275   -1091.2803    149944.55   -47608.157    3941.5663   -51549.724   0.15901338 
   42600    291.03735   -1107.5303    149994.78   -47633.599    3996.6971   -51630.296   0.15247844 
   42800    289.91202   -883.80551    149721.33   -47638.038    3981.2434   -51619.281   0.15404704 
   43000    286.58899   -899.48585    149724.22   -47592.232    3935.6096   -51527.841   0.15914296 
   43200    293.14582    -1142.496    150066.43   -47591.265    4025.6519   -51616.917   0.16042256 
   43400    286.90642   -1080.4205    150035.04   -47582.117    3939.9688   -51522.086   0.15664174 
   43600    290.58858   -846.29546    149666.85    -47584.02    3990.5343   -51574.555   0.14943498 
   43800    287.41007   -889.96354    149780.43   -47554.784    3946.8852   -51501.669    0.1537015 
   44000    288.72806   -1221.8911    150203.45   -47567.273    3964.9846   -51532.257   0.16337895 
   44200    286.99613   -1079.5029    149993.27   -47613.371    3941.2008   -51554.572   0.15916328 
   44400    284.74882   -773.62233    149534.61   -47594.177    3910.3394   -51504.516   0.15545682 
   44600     294.0952   -960.60543    149829.81   -47528.786    4038.6894   -51567.475   0.15239759 
   44800    287.94188   -1284.9798    150343.31   -47483.097    3954.1884   -51437.286   0.15852921 
   45000    291.31349   -1033.8022    149984.58   -47526.143    4000.4892   -51526.633   0.15973779 
   45200    290.86681   -687.33743    149484.48   -47554.219    3994.3552   -51548.575   0.15144873 
   45400    287.38189   -970.07867    149912.84   -47598.402    3946.4982     -51544.9   0.15232359 
   45600    283.15186   -1361.6877    150367.57   -47578.219    3888.4089   -51466.628   0.16212011 
   45800    287.99439   -937.62784    149854.31   -47560.058    3954.9094   -51514.968   0.15428813 
   46000     289.4967   -664.81834    149484.64   -47562.364    3975.5401   -51537.904   0.14893876 
   46200    291.82998   -1101.8497    150040.57    -47589.47     4007.582   -51597.052    0.1541904 
   46400    288.02233   -1271.9607    150291.32   -47566.096    3955.2931   -51521.389   0.16024309 
   46600    289.24592   -843.82516    149672.47   -47573.904    3972.0962       -51546   0.15765211 
   46800    290.59888   -722.20333    149499.89     -47540.2    3990.6758   -51530.876   0.16026164 
   47000    288.83181   -1200.7343    150157.93   -47509.719    3966.4094   -51476.128   0.16547652 
   47200    291.14572   -1255.2361    150257.53   -47477.384    3998.1854    -51475.57   0.16391331 
   47400    295.26621   -755.62538    149629.49    -47416.45    4054.7704   -51471.221   0.16058062 
   47600    300.18602   -767.27581    149654.39   -47391.831    4122.3321   -51514.163   0.16000427 
   47800    295.06814   -1263.2592    150297.71   -47350.209    4052.0503    -51402.26   0.16592252 
   48000    293.62094   -1180.4435    150205.08   -47354.373    4032.1765    -51386.55   0.16455945 
   48200    297.42612   -691.64198     149587.8   -47363.721    4084.4315   -51448.153   0.15597963 
   48400    298.82457   -880.12067    149762.06   -47343.865    4103.6359   -51447.501   0.16018215 
   48600     291.6886   -1297.0129    150319.22   -47399.194    4005.6406   -51404.834   0.16787029 
   48800    299.25675     -1088.14    150075.48   -47344.836    4109.5709   -51454.407   0.16694331 
   49000    297.34911   -729.74867    149612.29   -47328.862     4083.374   -51412.236   0.15936499 
   49200    295.47618    -996.9812    149938.43   -47360.254    4057.6538   -51417.908   0.15454203 
   49400    296.01026   -1258.1555    150311.47   -47363.187    4064.9881   -51428.175   0.16369939 
   49600    292.41228   -985.79274    149923.02    -47386.09    4015.5785   -51401.668   0.16379468 
   49800    298.13056   -739.51405    149591.12   -47371.171    4094.1053   -51465.276   0.15795588 
   50000    293.88352   -1026.1898    149989.23   -47366.221    4035.7824   -51402.003   0.16370703 
   50200    290.13801   -1211.1766    150244.39   -47399.441    3984.3469   -51383.788   0.16464801 
   50400     293.2591   -911.22513       149833    -47410.55    4027.2075   -51437.757   0.16100283 
   50600    289.57792   -810.06796    149666.52   -47434.665    3976.6554   -51411.321   0.16344311 
   50800    295.50196   -1086.0237    150069.65   -47440.526    4058.0079   -51498.534    0.1638831 
   51000    298.42626   -1162.0349    150166.18   -47373.346     4098.166   -51471.512   0.16675117 
   51200    293.21881   -877.94025    149752.04   -47410.083    4026.6543   -51436.737   0.16146873 
   51400    295.14642   -809.16613     149706.4   -47373.468    4053.1253   -51426.593   0.16014116 
   51600    299.69073   -1123.2899    150157.66   -47368.812    4115.5305   -51484.342   0.16661923 
   51800    296.14263   -1147.4422    150133.85    -47363.65    4066.8059   -51430.456   0.16462197 
   52000    298.79584   -820.23237    149704.65   -47331.646    4103.2414   -51434.887   0.15834989 
   52200    293.00324    -920.5619    149834.99   -47301.159    4023.6939   -51324.853   0.16326144 
   52400    300.36324   -1196.0455    150241.93   -47275.939    4124.7658   -51400.705   0.16583957 
   52600    292.05228   -1121.7238    150045.25   -47316.993    4010.6347   -51327.627      0.17097 
   52800    294.52265   -819.03628    149642.76   -47342.166    4044.5593   -51386.725   0.16167365 
   53000    295.37669   -965.91967    149856.07   -47344.718    4056.2875   -51401.005   0.16144188 
   53200    294.59353   -1160.8615    150200.53   -47347.406    4045.5327   -51392.939   0.16894272 
   53400    295.87692   -999.68193    149953.55    -47380.39    4063.1571   -51443.547   0.16066765 
   53600    292.59721   -796.86122     149616.1   -47411.215    4018.1181   -51429.333   0.15885651 
   53800    296.00585   -1010.9854    149918.74   -47383.545    4064.9276   -51448.473   0.16044665 
   54000    297.93929   -1239.9438    150218.47   -47368.198    4091.4786   -51459.676   0.16579932 
   54200    301.15598   -922.81215    149872.93   -47381.764    4135.6522   -51517.417   0.15854705 
   54400    295.05283   -765.33524    149633.94   -47411.826    4051.8401   -51463.666    0.1580532 
   54600    297.16663   -1056.3861    149983.46   -47402.785    4080.8681   -51483.653   0.16485273 
   54800    296.38878   -1178.3329    150156.35   -47342.687    4070.1861   -51412.873   0.16443617 
   55000    292.90125   -912.63191    149809.09   -47348.936    4022.2933   -51371.229   0.16302076 
   55200    299.89907   -814.88037    149723.94   -47381.479    4118.3915    -51499.87   0.16255679 
   55400    290.07934   -1160.7507    150111.59   -47400.016    3983.5412   -51383.557   0.17113176 
   55600    290.48835    -1155.034    150122.75     -47435.9     3989.158   -51425.058   0.16176054 
   55800    294.65737   -853.63909    149679.34   -47414.385    4046.4094   -51460.795   0.16056273 
   56000    295.10486   -847.90128    149706.38    -47400.16    4052.5546   -51452.715   0.15785916 
   56200    290.21854   -1155.3099     150152.3   -47427.757    3985.4528    -51413.21   0.16088308 
   56400    295.53218   -1105.8069    150088.25   -47431.486    4058.4229   -51489.909   0.15752683 
   56600    290.97363   -803.16899    149665.37   -47442.053    3995.8221   -51437.875   0.15692766 
   56800    296.41689   -876.42349     149782.9   -47390.914    4070.5721   -51461.486   0.15757622 
   57000    293.12091   -1258.6877    150222.94   -47392.079    4025.3098   -51417.389   0.16599402 
   57200    288.97265   -1090.6617    150048.33   -47424.096    3968.3435   -51392.439   0.16652141 
   57400    296.66968   -771.17768    149619.75   -47450.711    4074.0436   -51524.755    0.1519167 
   57600    291.92462   -944.92732    149848.56   -47437.509    4008.8817   -51446.391   0.15942641 
   57800    294.32297   -1194.9997    150258.08   -47443.495    4041.8172   -51485.312   0.15988044 
   58000    288.07084   -1062.3517    149985.35   -47460.238    3955.9594   -51416.197   0.16262544 
   58200    294.96873   -732.58813    149576.28   -47506.546    4050.6851   -51557.231   0.15179322 
   58400    295.09081   -971.60687    149880.92   -47494.822    4052.3617   -51547.183   0.15874518 
   58600    293.81398   -1229.5061    150253.71   -47466.915    4034.8274   -51501.743   0.16134774 
   58800    289.74264   -977.73448    149910.73   -47504.877    3978.9174   -51483.794    0.1560854 
   59000    285.44381   -738.77725    149551.36   -47533.517    3919.8834   -51453.401   0.16040223 
   59200    288.98159   -998.07248    149920.53   -47529.487    3968.4662   -51497.953   0.16264276 
   59400    294.72145    -1223.897    150227.01    -47466.53    4047.2894    -51513.82   0.16025037 
   59600    295.36816   -937.51046     149856.3   -47467.909    4056.1704    -51524.08   0.15293859 
   59800    292.20537   -757.54921    149602.76   -47457.005    4012.7372   -51469.742   0.16024375 
   60000    291.50672   -1054.9434    150024.52   -47438.533    4003.1428   -51441.676   0.15961429 
   60200    291.52872   -1280.3547     150244.4    -47407.36    4003.4449   -51410.804   0.16463212 
   60400    293.61051   -924.48446    149806.21   -47381.411    4032.0333   -51413.445   0.15682832 
   60600    294.79312   -769.53804    149626.86   -47425.852    4048.2737   -51474.126   0.15245435 
   60800    302.07966   -1096.7666    150100.57   -47359.167    4148.3367   -51507.504   0.15781706 
   61000    294.10727   -1236.0956    150210.85   -47395.668    4038.8551   -51434.523   0.16581504 
   61200    294.60204   -838.19948       149700   -47406.757    4045.6496   -51452.406   0.16134656 
   61400    292.43635   -777.75676    149677.92   -47405.524    4015.9091   -51421.433    0.1540314 
   61600    301.09941   -1143.3644    150231.67   -47389.234    4134.8754    -51524.11   0.15430451 
   61800    293.85556   -1154.4459    150183.54   -47389.259    4035.3984   -51424.657   0.16547253 
   62000     298.6227   -738.29257    149614.33   -47423.252    4100.8637   -51524.115   0.15590576 
   62200    294.11018   -859.48845    149742.68   -47433.919     4038.895   -51472.814   0.15581596 
   62400    295.35315   -1270.9249    150298.57   -47384.476    4055.9642    -51440.44   0.16055233 
   62600    289.17665   -1116.4706    150055.67   -47408.669    3971.1449   -51379.814   0.16291941 
   62800    292.17346   -703.58339    149552.82   -47391.405    4012.2989   -51403.704   0.15552631 
   63000    295.03829   -938.69005    149871.64   -47355.395    4051.6405   -51407.036   0.16303799 
   63200    296.76787   -1282.9181    150364.53   -47351.616    4075.3921   -51427.008   0.16327462 
   63400    298.05758    -1057.614    150030.66   -47314.017    4093.1031    -51407.12   0.16533345 
   63600    297.35579   -740.78703    149623.17   -47299.405    4083.4657   -51382.871   0.16505764 
   63800    295.59025   -1057.2386    149998.07   -47324.293    4059.2203   -51383.513   0.16535849 
   64000    294.38111   -1250.9232    150317.63   -47311.869    4042.6157   -51354.484   0.16450101 
   64200    298.13086   -1028.5237    149945.31   -47320.161    4094.1094    -51414.27   0.16078551 
   64400    304.58929   -733.90395    149680.33   -47310.108    4182.8004   -51492.909     0.153775 
   64600    295.05122   -1049.3321    150035.78   -47361.952    4051.8179    -51413.77   0.15801688 
   64800    293.87946   -1186.7477    150191.44   -47370.092    4035.7267   -51405.818   0.16171874 
   65000    296.00886   -950.34237    149821.04   -47365.219    4064.9689   -51430.188   0.16155559 
   65200    291.49939     -838.866    149692.07   -47394.126    4003.0421   -51397.168   0.15818197 
   65400    296.74553   -1065.7151    150021.68   -47416.726    4075.0852   -51491.811    0.1589718 
   65600     290.9662   -1163.1942    150125.51   -47439.273      3995.72   -51434.993   0.16699272 
   65800    292.84452    -925.1358    149826.91   -47417.788    4021.5143   -51439.302   0.16513139 
   66000    294.71397   -875.69838    149784.48   -47418.171    4047.1866   -51465.358   0.15382204 
   66200    297.39712   -1121.3701    150081.84    -47440.69    4084.0333   -51524.724   0.15372393 
   66400    295.73565     -1079.21    150063.43   -47434.429     4061.217   -51495.646   0.15965569 
   66600    292.22459   -910.75164    149798.54   -47450.445     4013.001   -51463.446   0.15918641 
   66800    293.39698   -893.00707    149795.83   -47432.753     4029.101   -51461.854   0.15468629 
   67000    293.39393   -1073.3807    150050.24   -47459.286    4029.0591   -51488.345   0.15569416 
   67200    294.85288   -1078.1087     150055.7   -47480.548    4049.0943   -51529.643   0.15615321 
   67400    291.74377   -922.13629     149832.2   -47517.131    4006.3982   -51523.529   0.15610303 
   67600    290.82831   -899.62136    149829.29   -47471.446    3993.8265   -51465.273   0.15741734 
   67800    296.32936   -1080.7414    150064.96   -47416.421    4069.3701   -51485.791   0.16102059 
   68000    297.16244   -1081.5001     150043.2   -47412.172    4080.8105   -51492.982   0.16055405 
   68200    292.36278   -920.18203    149803.18   -47489.073    4014.8987   -51503.972   0.15509773 
   68400    292.50568   -896.12105    149820.81   -47431.745    4016.8611   -51448.606   0.15764372 
   68600    297.91628   -1103.6335    150088.16   -47413.988    4091.1627    -51505.15   0.15562468 
   68800    298.19809   -1022.5679    150044.94   -47381.015    4095.0327   -51476.048   0.15312405 
   69000    294.21706   -889.34881    149813.04   -47429.945    4040.3628   -51470.308   0.15403091 
   69200    291.13257   -929.78107    149867.59   -47434.756    3998.0048   -51432.761   0.15497952 
   69400    292.78388   -1104.8099    150056.55   -47471.384    4020.6816   -51492.066   0.16392203 
   69600    294.03672   -1003.0743    149958.62   -47485.364    4037.8862    -51523.25   0.15658035 
   69800    291.31503   -871.62046    149789.82   -47453.982    4000.5104   -51454.492   0.15540908 
   70000    294.53638    -992.5308    149946.63   -47412.348    4044.7479   -51457.095   0.15563235 
   70200    295.81622   -1098.0688    150126.49   -47391.975    4062.3234   -51454.299   0.16426241 
   70400    298.34552   -937.90763    149972.61   -47408.772    4097.0572   -51505.829   0.15474194 
   70600    297.04523   -876.33193    149815.23   -47383.701    4079.2009   -51462.902   0.15194812 
   70800    291.94088    -1035.218    150050.37   -47405.893    4009.1049   -51414.998   0.15525929 
   71000    295.24798   -1164.7772     150211.7   -47448.678      4054.52   -51503.198   0.15716577 
   71200    292.72464   -942.13261    149910.15   -47462.431    4019.8681   -51482.299   0.14999687 
   71400    296.58138   -837.77529    149799.03   -47431.408    4072.8311   -51504.239   0.14933903 
   71600    296.80232   -1100.9006    150136.64   -47404.789    4075.8651   -51480.654   0.16007321 
   71800    294.86687   -1108.4425    150180.73   -47423.875    4049.2864   -51473.161   0.15759296 
   72000    299.44577   -893.98262    149828.11   -47455.213    4112.1666    -51567.38   0.15106453 
   72200    295.16516   -892.31691    149798.89   -47492.559    4053.3826   -51545.941   0.15282223 
   72400    289.24055   -1153.2083    150159.58   -47467.656    3972.0225   -51439.678   0.16082311 
   72600    296.26268   -1090.6783    150089.81   -47435.104    4068.4545   -51503.559   0.15310361 
   72800    290.41144    -791.4149    149691.35   -47516.673    3988.1018   -51504.775   0.14471073 
   73000    292.27251   -889.83652    149830.99   -47513.192    4013.6591   -51526.852   0.15069938 
   73200    294.52851   -1239.3218    150261.23    -47520.29    4044.6398    -51564.93   0.15557381 
   73400    289.83626   -1068.3004    150064.87   -47517.139    3980.2031   -51497.343   0.15454502 
   73600    298.35411   -747.23924    149636.45   -47507.349    4097.1753   -51604.525   0.14863032 
   73800    287.44711   -973.19033    149890.59   -47497.903    3947.3939   -51445.297   0.15852055 
   74000    290.77742   -1305.2868    150337.64   -47538.302    3993.1276   -51531.429   0.16352374 
   74200    292.02275   -1011.2463    149948.23   -47540.639    4010.2293   -51550.869   0.15573523 
   74400    292.53836   -655.05336    149456.84   -47509.045    4017.3099   -51526.355   0.14954113 
   74600    293.50401   -1037.4467    149968.92   -47526.905    4030.5708   -51557.476   0.15305512 
   74800    287.99719   -1354.1574    150435.39   -47526.841    3954.9479   -51481.789   0.15804424 
   75000    287.62389    -892.7696    149796.41   -47499.385    3949.8216   -51449.207   0.15131712 
   75200    287.82764   -663.00265    149387.57   -47491.668    3952.6195   -51444.288   0.15605587 
   75400    293.58407   -1130.8041    150106.06   -47470.938    4031.6702   -51502.608    0.1559758 
   75600    292.62393   -1379.7229    150444.22   -47442.276    4018.4851   -51460.761   0.16113666 
   75800    294.81028   -772.68361    149655.74   -47430.594    4048.5092   -51479.103    0.1509039 
   76000    292.33225   -660.34092    149423.81   -47418.997    4014.4795   -51433.477   0.16171256 
   76200    292.61307   -1234.2636    150216.58   -47435.302    4018.3359   -51453.638   0.16483991 
   76400    292.73613   -1310.5299    150372.94    -47399.88    4020.0259   -51419.906   0.15889203 
   76600    297.42748    -778.0678    149661.08   -47398.108    4084.4502   -51482.558   0.15126607 
   76800    292.73576   -762.72441    149619.67    -47399.36    4020.0208    -51419.38   0.16112409 
   77000    293.16932   -1206.7883    150288.47   -47392.926    4025.9746     -51418.9   0.15871884 
   77200    295.92141   -1206.9954    150261.38   -47439.198     4063.768   -51502.966   0.15425762 
   77400     297.8368   -753.09633    149642.52   -47438.095    4090.0712   -51528.167   0.14875582 
   77600    295.57825   -846.24977    149765.15   -47454.108    4059.0555   -51513.164   0.15394473 
   77800    292.16788   -1261.2398    150319.97   -47458.408    4012.2223   -51470.631   0.15893133 
   78000    289.36133   -1153.9574    150142.43   -47460.315     3973.681   -51433.996   0.16131104 
   78200    291.63817   -767.51185    149664.29    -47461.36     4004.948   -51466.308   0.15882812 
   78400    289.63707   -937.12045     149818.7   -47480.062    3977.4677    -51457.53    0.1627369 
   78600    293.46905   -1183.2972    150150.14   -47494.089    4030.0907    -51524.18   0.15533184 
   78800    295.74051   -1003.6851    149973.14   -47481.803    4061.2837   -51543.087   0.15104915 
   79000    291.54219   -855.12026    149720.33   -47466.642    4003.6299   -51470.272   0.15684658 
   79200    292.07842   -1001.5188    149942.01   -47474.755    4010.9937   -51485.749    0.1494315 
   79400    292.79046   -1126.6173    150170.14   -47423.092    4020.7719   -51443.864    0.1526227 
   79600    293.15074   -985.35593    149968.48   -47416.165    4025.7194   -51441.884   0.15405348 
   79800    296.94588   -901.77686    149806.42   -47445.648    4077.8366   -51523.485   0.15398511 
   80000    292.38644   -980.00812     149964.1   -47414.642    4015.2237   -51429.866   0.15615892 
   80200    293.08052   -1121.1958    150121.69   -47376.978    4024.7552   -51401.733   0.15795344 
   80400    293.31692   -1031.7757    149992.36   -47348.278    4028.0016    -51376.28   0.16189202 
   80600    297.86635   -899.58353    149853.55   -47370.936    4090.4771   -51461.413   0.15989911 
   80800    292.63071   -1004.0734     150013.4   -47311.298    4018.5782   -51329.877    0.1655066 
   81000    290.11401    -1096.917    150141.61   -47361.883    3984.0173     -51345.9   0.15868081 
   81200    295.71148   -976.66131    149942.14   -47345.137     4060.885   -51406.022   0.15880895 
   81400    294.16641   -926.59854    149817.03   -47323.382    4039.6673   -51363.049   0.16194126 
   81600    298.04843   -1033.1575    150067.29   -47341.686    4092.9774   -51434.663   0.15524707 
   81800    288.27793   -1088.5017    150150.55   -47342.995    3958.8032   -51301.798   0.16321449 
   82000    295.08347   -900.96336    149882.89   -47312.983    4052.2608   -51365.243   0.16578899 
   82200    291.46006   -909.38452    149850.31   -47358.858     4002.502    -51361.36   0.16203508 
   82400    295.42365   -1099.3544    150118.33    -47356.05    4056.9325   -51412.982   0.15776914 
   82600    297.29917    -1061.838    150084.76   -47400.948    4082.6881   -51483.636   0.15904533 
   82800    290.43414   -905.49724    149809.16   -47444.948    3988.4135   -51433.362    0.1625953 
   83000    295.93386   -939.48545    149882.66   -47428.631    4063.9389    -51492.57   0.15036707 
   83200    295.85864    -1119.865    150168.17   -47444.744    4062.9059    -51507.65   0.14914851 
   83400    293.30711   -1048.4984     150030.8   -47466.984    4027.8668   -51494.851   0.15548392 
   83600    290.40557   -814.78147    149729.08   -47487.308    3988.0212   -51475.329   0.14888349 
   83800      292.767   -994.65646    149919.17   -47435.009    4020.4498   -51455.459   0.15418938 
   84000    290.60443   -1187.0102    150213.96   -47461.074     3990.752   -51451.826   0.15726381 
   84200    290.65184   -993.39365    149950.18   -47451.918    3991.4031   -51443.321   0.15861433 
   84400    290.41498    -813.0322    149648.34   -47460.437    3988.1504   -51448.588   0.15738114 
   84600    293.77625   -1049.1379    149956.99   -47454.449    4034.3093   -51488.758   0.15855908 
   84800     292.4328   -1237.3714    150237.12   -47457.968    4015.8603   -51473.828   0.16733846 
   85000    296.05884   -969.38729    149876.23   -47426.947    4065.6553   -51492.602   0.15627405 
   85200    295.46008   -706.05907    149639.72   -47399.685    4057.4327   -51457.117   0.14570078 
   85400    294.34992   -1114.6241    150088.38   -47380.025    4042.1873   -51422.212   0.15938549 
   85600    295.05647   -1261.9052    150291.94    -47373.88    4051.8902    -51425.77   0.16442405 
   85800    291.75771   -876.30433    149791.51   -47394.739    4006.5895   -51401.328   0.15393923 
   86000    294.01022   -733.70052    149646.03   -47351.218    4037.5223    -51388.74   0.15184692 
   86200    295.95919   -1174.9981    150194.84   -47355.131    4064.2867   -51419.417   0.15997803 
   86400    294.14651   -1228.8416       150242   -47346.926     4039.394    -51386.32   0.17155135 
   86600     298.5158   -793.76329    149685.22   -47353.753    4099.3957   -51453.149   0.15795017 
   86800    298.02855   -818.44385     149756.2   -47384.402    4092.7045   -51477.106   0.15065086 
   87000    292.75512   -1238.2936    150298.71   -47398.201    4020.2866   -51418.488   0.16249118 
   87200    296.26946   -1122.0582    150130.55   -47370.398    4068.5476   -51438.945   0.15683921 
   87400    298.44668   -735.50758    149611.46   -47340.053    4098.4465     -51438.5   0.15374517 
   87600    296.11256   -939.77153    149831.76   -47405.625     4066.393   -51472.018   0.15280119 
   87800     297.8039   -1234.9281    150311.25   -47404.366    4089.6194   -51493.985   0.15635977 
   88000    294.62529    -1075.246    150045.84   -47358.906    4045.9688   -51404.875   0.15956159 
   88200    300.18114   -770.75222    149638.41   -47378.119    4122.2651   -51500.384   0.15324234 
   88400    294.36952   -993.87323    149970.76   -47359.372    4042.4564   -51401.828   0.16133209 
   88600    295.21194   -1242.0566    150342.51   -47367.949    4054.0251   -51421.974   0.16628067 
   88800    291.63763   -1020.4239    149974.03    -47364.67    4004.9406    -51369.61   0.16324208 
   89000    294.70792   -728.25434    149641.94   -47390.916    4047.1036   -51438.019   0.14952106 
   89200    294.46985   -1040.9355    150050.31   -47359.751    4043.8343   -51403.585   0.15813486 
   89400    296.56835   -1270.4322    150342.85   -47327.561    4072.6522   -51400.213    0.1670665 
   89600     294.8206   -893.11248    149899.66   -47355.773    4048.6509   -51404.424   0.15023873 
   89800     295.2876   -755.23369    149652.08   -47395.957    4055.0641   -51451.021   0.14753558 
   90000    289.28799   -1101.8648    150079.25   -47407.243    3972.6738   -51379.916   0.16149679 
   90200    294.14951   -1213.3511    150252.66   -47450.164    4039.4351   -51489.599   0.15802724 
   90400    296.96099   -889.14746    149801.48   -47476.765    4078.0441   -51554.809   0.14864687 
   90600    291.91674   -791.23083    149664.28   -47470.603    4008.7735   -51479.377   0.15422096 
   90800    291.71864   -1169.1675    150129.69   -47488.257     4006.053    -51494.31   0.16155209 
   91000    292.27902   -1187.5482    150170.73   -47487.137    4013.7485   -51500.885   0.15832291 
   91200    290.03385   -807.61976    149696.57   -47507.062    3982.9165   -51489.979    0.1477862 
   91400    290.51654   -838.62579    149752.86   -47497.167     3989.545   -51486.712   0.15024087 
   91600    294.17777   -1210.9478    150235.53   -47495.246    4039.8232   -51535.069   0.15105196 
   91800    288.41401   -1131.6617    150129.28   -47471.463    3960.6719   -51432.135    0.1516594 
   92000    292.78411   -795.91875    149656.12   -47493.782    4020.6847   -51514.466     0.147399 
   92200    291.29421   -910.20054    149798.47   -47514.896    4000.2245   -51515.121   0.15286284 
   92400    289.21892   -1220.7804    150233.77   -47486.434    3971.7254   -51458.159    0.1590673 
   92600     291.0226   -1061.8646    150061.44   -47547.011    3996.4946   -51543.506   0.14976364 
   92800    290.24941   -769.47907    149666.92   -47521.511    3985.8768   -51507.387   0.15387259 
   93000    289.88837    -1007.237     149945.1   -47445.548    3980.9186   -51426.467   0.16443763 
   93200    289.94898   -1250.1218    150315.81   -47438.541     3981.751   -51420.292    0.1624554 
   93400    295.11826   -973.50618     149948.9   -47447.398    4052.7386   -51500.137    0.1488985 
   93600    297.71475   -747.94547    149633.23   -47436.162    4088.3952   -51524.557   0.14697804 
   93800    295.92553   -1075.5465     150085.8   -47421.474    4063.8246   -51485.299   0.15643309 
   94000    297.05612   -1222.5258    150329.58   -47417.084    4079.3504   -51496.434    0.1559953 
   94200    292.23274   -917.34624    149804.02   -47507.552    4013.1129   -51520.665   0.14969537 
   94400    289.27179   -768.79506    149571.25   -47494.404    3972.4514   -51466.855   0.14829672 
   94600    292.90198   -1132.0972    150104.48   -47485.276    4022.3033   -51507.579   0.15536217 
   94800    284.29088   -1294.5528       150264   -47533.305    3904.0507   -51437.356   0.16408945 
   95000    287.63287   -794.73716    149713.66   -47547.701    3949.9448   -51497.646   0.15354672 
   95200    285.48396   -794.74517    149632.72   -47555.453    3920.4348   -51475.888   0.15715816 
   95400    286.43563   -1195.7882    150173.66   -47559.585    3933.5037   -51493.089   0.15514224 
   95600    288.67599   -1187.2336    150159.16    -47520.16    3964.2695   -51484.429   0.15543742 
   95800     291.8826   -778.27388    149636.36   -47491.183    4008.3046   -51499.487   0.14901018 
   96000    294.47167   -861.79415    149756.08    -47482.42    4043.8592   -51526.279   0.14854987 
   96200    294.52901   -1195.5864    150259.92   -47518.187    4044.6467   -51562.834   0.15158737 
   96400    290.09448   -1116.1277    150055.86    -47513.26    3983.7492   -51497.009   0.15449527 
   96600    290.69576   -741.59564    149593.34   -47531.957    3992.0062   -51523.964   0.15309343 
   96800    291.30836   -944.40102    149862.13   -47581.946    4000.4188   -51582.365     0.158383 
   97000    295.09987   -1214.6028    150238.04   -47560.301    4052.4861   -51612.787   0.16143243 
   97200    288.76671   -1024.0743    149993.28   -47550.453    3965.5153   -51515.968   0.15481887 
   97400    295.14424   -800.78147    149716.24   -47510.018    4053.0954   -51563.114   0.15060488 
   97600    293.29018   -1024.5542    149999.64   -47479.059    4027.6343   -51506.693   0.15823492 
   97800    295.54623   -1141.1038    150206.88   -47470.611    4058.6158   -51529.227   0.15602624 
   98000    290.85706   -978.14064    149930.96    -47444.56    3994.2213   -51438.782   0.15229094 
   98200    296.61106   -833.85753    149794.97   -47458.569    4073.2387   -51531.808   0.15036799 
   98400    294.31181   -1009.5289    150042.32   -47383.293     4041.664   -51424.957   0.15926714 
   98600    293.97442   -1098.2657     150107.3   -47429.333    4037.0308   -51466.363   0.15651582 
   98800     293.0684   -944.39469    149875.21   -47394.543    4024.5888   -51419.132   0.16127198 
   99000    296.17198   -894.09389    149850.95   -47398.205    4067.2089   -51465.414   0.15899661 
   99200    291.59625    -1060.179    150049.32   -47461.023    4004.3722   -51465.395   0.15679476 
   99400    293.65838   -1096.2551    150048.41   -47554.661    4032.6908   -51587.352   0.15463578 
   99600    290.79563   -884.99539       149844   -47580.828    3993.3778   -51574.206   0.15224672 
   99800    290.57003   -975.41094    149872.37   -47552.642    3990.2796   -51542.922   0.15336973 
  100000    294.87418   -1054.2488    150057.44   -47550.247    4049.3867   -51599.634   0.14612797 
  100200    297.69698   -1031.1457    149991.48   -47507.382    4088.1511   -51595.533   0.14793685 
  100400    286.78831   -896.89505    149803.55   -47506.572    3938.3468   -51444.919   0.15293348 
  100600    291.97057   -1005.0839    149925.17   -47454.857    4009.5127    -51464.37   0.15440847 
  100800     293.4246   -1117.1956    150122.07   -47482.345    4029.4803   -51511.826   0.15442128 
  101000    296.50324   -999.73209    149962.37   -47466.366     4071.758   -51538.124   0.15728761 
  101200    292.42269   -880.49961    149790.02   -47448.231    4015.7214   -51463.953   0.15644158 
  101400    292.32611   -1003.3634    149974.65   -47452.455    4014.3951    -51466.85   0.15746493 
  101600     291.2663   -1125.7629     150126.2   -47467.022    3999.8412   -51466.864   0.16305304 
  101800    293.20889   -942.59712    149934.78   -47435.552     4026.518    -51462.07    0.1559874 
  102000    297.59251   -876.87121    149827.78   -47440.465    4086.7165   -51527.181   0.15328953 
  102200     292.4723   -1040.2486    150038.09   -47428.354    4016.4028   -51444.756    0.1566549 
  102400    296.84108   -1073.3628     150099.2    -47369.71    4076.3974   -51446.108   0.15674699 
  102600    297.41386    -906.1493    149844.68   -47384.939    4084.2632   -51469.202   0.15160725 
  102800    295.30172   -887.52534    149813.79   -47397.176     4055.258   -51452.434   0.15248355 
  103000    291.92082   -1114.8215    150092.82   -47386.492    4008.8295   -51395.322   0.16155508 
  103200    297.09237   -1133.6277    150103.96   -47365.996    4079.8482   -51445.844   0.16332161 
  103400    294.75469   -914.93363    149781.79   -47399.337    4047.7458   -51447.083   0.16064173 
  103600    292.39973   -896.41397     149811.9   -47402.797    4015.4062   -51418.203   0.15882922 
  103800    292.53499   -1133.7967     150148.3   -47402.053    4017.2637   -51419.317   0.15579277 
  104000    291.38346   -1135.2664    150087.61   -47411.328    4001.4502   -51412.778   0.16282485 
  104200    289.22522   -842.20906    149714.67   -47429.757     3971.812   -51401.569   0.15728938 
  104400    293.21667   -904.57549    149838.75   -47445.099    4026.6249   -51471.723   0.15267922 
  104600    300.17165   -1202.3704    150201.17   -47435.491    4122.1348   -51557.626     0.152817 
  104800    292.98863   -1082.1952    149976.05   -47428.249    4023.4933   -51451.742   0.16364279 
  105000    291.69773   -787.76073    149634.68   -47461.723    4005.7658   -51467.489   0.15872341 
  105200    292.36661   -986.08558    149945.37   -47458.814    4014.9514   -51473.765   0.15946794 
  105400    294.45348   -1227.7463    150254.55   -47445.507    4043.6094   -51489.117   0.16524897 
  105600    300.08097   -921.97301    149859.83   -47450.034    4120.8895   -51570.923   0.16178652 
  105800    286.15841    -763.6206    149586.52    -47469.11    3929.6967   -51398.807   0.15543226 
  106000    298.04891    -1076.186    150040.03   -47445.744     4092.984   -51538.728   0.15333655 
  106200    292.18951    -1259.751    150295.55   -47415.975    4012.5193   -51428.495   0.16426938 
  106400    295.70423   -871.49543    149774.04   -47436.375    4060.7855   -51497.161   0.15246907 
  106600    294.32377     -735.328    149583.08    -47440.56    4041.8283   -51482.389   0.14878945 
  106800      293.916   -1122.3959    150139.99    -47425.69    4036.2284   -51461.918   0.15438649 
  107000    300.88297   -1166.6289    150250.02   -47379.363    4131.9031   -51511.266   0.16360691 
  107200    296.19361   -825.56368    149706.25   -47375.711     4067.506   -51443.217   0.16047691 
  107400    297.53721   -820.01256    149669.91   -47384.147    4085.9571   -51470.104   0.15356121 
  107600    295.07164   -1181.8628    150236.42   -47352.658    4052.0984   -51404.756   0.16419137 
  107800    291.32834   -1203.4529    150218.03   -47373.856    4000.6931    -51374.55   0.16204668 
  108000    301.38849    -735.0324    149663.77   -47359.523    4138.8451   -51498.368   0.14872635 
  108200    293.06108   -848.59139    149756.15   -47393.412    4024.4882     -51417.9    0.1493302 
  108400    289.17141   -1248.6831     150275.6   -47381.728     3971.073   -51352.801   0.16370624 
  108600    292.20304   -1102.4468    150139.03   -47354.361    4012.7051   -51367.066   0.15749697 
  108800    296.51223   -765.20831    149654.68   -47385.448    4071.8815   -51457.329   0.14818526 
  109000    292.73144   -912.96094     149852.5   -47422.178    4019.9614    -51442.14   0.15371573 
  109200    292.94643   -1231.6124    150302.05   -47416.552    4022.9138   -51439.466   0.16038499 
  109400    295.27533   -1032.8294    150016.51   -47404.932    4054.8955   -51459.827   0.15749654 
  109600    295.79343   -676.83165    149602.62   -47371.971    4062.0105   -51433.981   0.15421319 
  109800    293.70842   -1012.0763    149969.74   -47420.526    4033.3778   -51453.904   0.15930775 
  110000    290.72646   -1238.8098    150314.39   -47351.118    3992.4278   -51343.546   0.15970441 
  110200    298.65555   -967.48199    149898.86   -47345.015    4101.3148    -51446.33   0.16041214 
  110400    298.18911   -775.45998    149608.27   -47401.989    4094.9093   -51496.898   0.15383511 
  110600    293.87209   -1070.7801    149998.81   -47469.681    4035.6255   -51505.307   0.15321799 
  110800    295.96666   -1182.4115    150194.26   -47461.222    4064.3894   -51525.611   0.15706742 
  111000     286.9676   -930.00955    149763.22   -47468.728     3940.809   -51409.537   0.15385814 
  111200    296.25701   -770.78285    149649.01   -47459.262    4068.3766   -51527.639   0.15095081 
  111400    289.06233   -1153.6708       150114   -47506.156    3969.5749   -51475.731   0.15687931 
  111600    289.01746   -1188.6541    150132.01   -47558.996    3968.9588   -51527.955   0.16093757 
  111800    289.67593   -822.20932    149637.62   -47598.808    3978.0014   -51576.809   0.15141647 
  112000    289.00126   -825.34366    149668.92   -47591.064    3968.7364     -51559.8   0.14730701 
  112200    289.37351   -1184.9348    150138.83   -47541.224    3973.8483   -51515.072   0.15750692 
  112400    290.96223   -1126.9427    150061.88   -47509.726    3995.6656   -51505.391   0.15355854 
  112600    294.75885   -834.93826    149655.63   -47490.088    4047.8031   -51537.891   0.14611013 
  112800    288.00487   -927.28311    149774.21   -47504.073    3955.0533   -51459.126   0.15578562 
  113000    292.93745   -1169.4968    150131.45   -47476.936    4022.7904   -51499.726   0.16123705 
  113200    293.52972   -1029.3419    149976.33    -47513.75    4030.9238   -51544.674   0.14825933 
  113400    288.30537   -803.82814     149682.1   -47497.478      3959.18   -51456.658   0.15141496 
  113600    291.86256   -991.49151     149875.1   -47500.706    4008.0294   -51508.735   0.15525114 
  113800    294.51379   -1153.1255    150130.95    -47479.74    4044.4377   -51524.177   0.16455312 
  114000    295.23367   -994.32157    149931.18   -47467.683    4054.3236   -51522.007   0.15893286 
  114200    295.25581    -791.5443    149733.98   -47482.929    4054.6275   -51537.557   0.15007339 
  114400    294.61409   -1034.5239    150006.17   -47421.354    4045.8151   -51467.169   0.15739038 
  114600    294.04052   -1125.6469    150187.66   -47391.911    4037.9385   -51429.849   0.15158805 
  114800    295.91637   -914.48344    149921.33   -47381.114    4063.6987   -51444.813   0.15417505 
  115000    300.31752   -889.49458       149797   -47414.147    4124.1379   -51538.285   0.15532067 
  115200    295.58506   -1073.8444    150034.47    -47425.18     4059.149   -51484.329   0.15583921 
  115400    294.19306   -1114.0716    150092.26   -47436.366    4040.0332   -51476.399   0.15404699 
  115600     293.1453   -916.56392    149837.57   -47422.622    4025.6448   -51448.266   0.15334898 
  115800    286.23731   -939.79118    149820.23   -47438.282    3930.7801   -51369.062   0.16202385 
  116000    293.24945   -1074.5915    150035.86   -47421.556     4027.075   -51448.631   0.16220218 
  116200    294.16137   -1059.5531    150008.47   -47439.509     4039.598   -51479.107   0.15771805 
  116400    290.28592   -923.00202     149798.9   -47483.945    3986.3781   -51470.323   0.15528268 
  116600    288.64749   -959.95973    149828.87   -47495.671    3963.8782   -51459.549   0.15646962 
  116800     293.8913   -1050.2828    150030.86   -47447.449    4035.8893   -51483.338   0.15561349 
  117000    293.67663   -1066.0078     149990.1    -47455.33    4032.9414   -51488.271    0.1561577 
  117200    292.96106   -945.22917    149809.76   -47446.386    4023.1147   -51469.501   0.15350379 
  117400    289.62221   -947.83803    149857.59   -47472.123    3977.2636   -51449.387   0.15823914 
  117600    289.78236    -1106.119     150010.1   -47450.216    3979.4629   -51429.679   0.16663996 
  117800     293.9654   -979.09067    149942.29   -47410.225    4036.9068   -51447.132   0.15922226 
  118000       297.13    -902.0326    149847.21   -47403.831    4080.3651   -51484.196   0.15968905 
  118200    292.25161    -1008.028    149917.26   -47437.229    4013.3721   -51450.601   0.16101923 
  118400    293.87564   -1047.6816    150000.25   -47487.605    4035.6743   -51523.279   0.16378772 
  118600    291.95609   -1010.3313    149925.27   -47516.328    4009.3138   -51525.642   0.15232456 
  118800    285.19334   -1003.8124    149853.31   -47567.119    3916.4437   -51483.563   0.15866552 
  119000    290.14035   -988.92376    149894.08   -47565.993     3984.379   -51550.372     0.155121 
  119200    288.43912   -993.47083    149949.24    -47566.66    3961.0167   -51527.677   0.14637301 
  119400    285.14708   -976.35869    149917.97   -47593.166    3915.8084   -51508.975   0.15491444 
  119600    289.08418   -1019.5159    149915.03   -47533.051    3969.8751   -51502.926   0.15493285 
  119800    289.57723   -1027.8401    149968.73   -47528.458    3976.6459   -51505.103    0.1596866 
  120000    292.37268   -1018.6056     149991.7   -47547.487    4015.0347   -51562.521   0.14683098 
  120200    288.08534   -1005.7105    149961.92   -47520.668    3956.1585   -51476.826   0.15405684 
  120400    291.93421   -1017.5605    149960.64   -47568.703    4009.0134   -51577.716   0.15821609 
  120600    287.42265   -1031.1911    149960.37   -47561.789    3947.0579   -51508.847    0.1562421 
  120800    296.49208   -968.43802    149952.99   -47553.475    4071.6048    -51625.08    0.1451043 
  121000    287.84261   -980.24182    149954.49   -47537.677    3952.8251   -51490.503   0.15107739 
  121200    296.30301   -992.17689    149939.29    -47537.59    4069.0083   -51606.599   0.14863226 
  121400    286.61723    -999.1302    149937.75   -47535.256    3935.9975   -51471.254   0.15719459 
  121600    293.31864    -1002.966    149975.56   -47526.202    4028.0251   -51554.227   0.15513271 
  121800    290.02884   -1010.3421     149969.6   -47523.354    3982.8476   -51506.202   0.15068269 
  122000    288.61396   -993.11839     149928.2   -47501.703    3963.4177    -51465.12    0.1597305 
  122200    297.92375   -959.33851    149935.14   -47469.764    4091.2653   -51561.029   0.15207643 
  122400    293.69915   -991.20759    149967.73    -47421.82    4033.2506    -51455.07   0.16561194 
  122600    296.82641   -1011.3705       149979   -47341.827    4076.1959   -51418.023   0.16294599 
  122800    296.43446   -1008.9177    149967.37   -47341.339    4070.8134   -51412.152   0.15960878 
  123000    295.19204   -973.89028    149955.12   -47388.602    4053.7519   -51442.354   0.15697728 
  123200    292.49214   -1015.5663     149997.3   -47410.975    4016.6752   -51427.651    0.1515834 
  123400      287.626   -1041.9675    150009.91   -47493.122    3949.8505   -51442.973   0.16020759 
  123600    295.02548   -963.36808    149945.08   -47441.682    4051.4645   -51493.147   0.15132954 
  123800    289.50788   -982.07676    149965.59   -47463.715    3975.6935   -51439.409   0.15452812 
  124000    294.46099   -1032.1529    150056.56   -47446.012    4043.7126   -51489.725   0.15691119 
  124200     298.8213   -1034.4515    150011.44   -47431.569     4103.591    -51535.16    0.1602803 
  124400    297.27337   -955.42641    149914.27   -47446.761    4082.3339   -51529.095    0.1561802 
  124600    290.84389   -1041.0706    149965.51   -47465.843    3994.0405   -51459.883   0.16062287 
  124800     297.5564    -1070.021    150064.67   -47467.862    4086.2207   -51554.082    0.1568786 
  125000    292.10702   -1025.8925    149928.61   -47478.052    4011.3865   -51489.438   0.16105966 
  125200    291.63074    -910.0844    149805.26   -47469.638    4004.8459   -51474.484   0.14962566 
  125400    290.47984   -1027.2327    149985.04   -47536.113    3989.0412   -51525.155   0.14703011 
  125600    283.17871   -1076.2751    150085.01   -47527.633    3888.7777    -51416.41   0.15791129 
  125800    285.45719   -975.75558    149897.94   -47521.815     3920.067   -51441.882   0.15372329 
  126000    290.12148   -903.85072    149820.66   -47491.432    3984.1199   -51475.552    0.1537154 
  126200    293.41774   -1048.4211    150037.19   -47468.783    4029.3861   -51498.169   0.15726594 
  126400    290.50991   -1118.5283    150127.54   -47496.022     3989.454   -51485.476   0.15922466 
  126600     291.3707     -926.718    149845.27   -47526.726    4001.2749   -51528.001   0.15594804 
  126800    293.92727   -838.68306    149756.48   -47499.199    4036.3832   -51535.583   0.15080307 
  127000    290.02174   -1147.3523    150116.71   -47511.636    3982.7501   -51494.386   0.16735287 
  127200     294.3162   -1154.7123    150154.17   -47545.843    4041.7242   -51587.567   0.15132489 
  127400    291.14556   -845.40906    149767.36   -47550.986    3998.1832   -51549.169   0.14582451 
  127600    293.40957   -840.87514     149769.1   -47546.662    4029.2738   -51575.936   0.14509414 
  127800    290.08358   -1136.6761     150157.1   -47528.417    3983.5994   -51512.016   0.15254556 
  128000    286.59049   -1101.6432    150083.62   -47525.774    3935.6303   -51461.404    0.1551328 
  128200    292.40267   -819.14093    149689.41   -47497.304    4015.4465   -51512.751    0.1474221 
  128400    290.87032   -918.76442    149828.34   -47522.468    3994.4034   -51516.872   0.15420803 
  128600    286.94248   -1244.4464    150205.44   -47547.959     3940.464   -51488.423    0.1590303 
  128800     291.1155   -1006.8493    149962.65   -47588.417    3997.7703   -51586.187   0.15396633 
  129000    286.49717   -798.88176    149583.05   -47627.295    3934.3488   -51561.644   0.15180254 
  129200    284.75571   -1000.6068    149891.64   -47580.538     3910.434   -51490.972   0.15103608 
  129400    291.24545   -1230.4316    150282.92   -47573.792    3999.5548   -51573.347   0.14978765 
  129600    288.50703   -1003.7042    149937.95   -47578.765    3961.9493   -51540.714   0.15103443 
  129800    289.61046   -750.06626    149576.29   -47595.541    3977.1022   -51572.643   0.14580092 
  130000    282.42562   -1050.2654     149971.8   -47600.205    3878.4357   -51478.641    0.1515817 
  130200    285.48255   -1258.1358    150271.64   -47613.358    3920.4154   -51533.774    0.1561577 
  130400    289.69917   -883.39487     149796.3   -47605.848    3978.3205   -51584.168   0.14830784 
  130600    289.68927   -738.67891    149581.03   -47564.141    3978.1845   -51542.326   0.15101215 
  130800    291.02056   -1174.7002    150142.67   -47578.404    3996.4666   -51574.871   0.15738587 
  131000    289.01354   -1258.4207    150279.66   -47594.475     3968.905    -51563.38   0.16283094 
  131200    286.69048   -799.66557    149671.11    -47576.45    3937.0033   -51513.453   0.15066984 
  131400    284.18003   -827.01896    149642.47   -47579.738    3902.5284   -51482.266   0.15179671 
  131600    290.17174    -1237.797     150263.4    -47564.04    3984.8101    -51548.85   0.15923795 
  131800    290.63624   -1184.9314    150173.37   -47537.135    3991.1889   -51528.324   0.15118546 
  132000    294.19817   -753.32352    149569.03    -47489.36    4040.1035   -51529.463    0.1494558 
  132200    289.12647   -862.44974    149766.63   -47494.957    3970.4558   -51465.412   0.15535487 
  132400    294.00506   -1312.4791    150358.39   -47489.546    4037.4515   -51526.997   0.15930366 
  132600    290.41329   -1077.3705    150113.31   -47467.847    3988.1273   -51455.974   0.15368557 
  132800    292.97499   -724.79942    149577.11   -47446.042    4023.3059   -51469.347   0.14817275 
  133000     294.6094   -958.68415    149872.56   -47437.211    4045.7507   -51482.962   0.16108748 
  133200    288.77766    -1292.486    150349.01   -47376.171    3965.6657   -51341.837   0.17078307 
  133400    298.34857   -1003.2493    150029.42   -47368.081    4097.0991    -51465.18   0.15476291 
  133600    293.08524   -761.08917    149641.28   -47385.558      4024.82   -51410.378    0.1547162 
  133800    294.92231   -1006.2724       150005   -47401.829    4050.0477   -51451.877   0.15377319 
  134000    300.46524   -1224.7936    150279.81   -47346.641    4126.1665   -51472.807   0.15660582 
  134200    298.84536   -922.65568    149904.84   -47365.551    4103.9213   -51469.472   0.15485966 
  134400    296.56946   -834.82475    149744.36   -47367.017    4072.6673   -51439.684   0.16153922 
  134600    294.73412   -1087.0631    150083.35   -47378.689    4047.4634   -51426.152   0.16383481 
  134800     295.9056   -1130.6596     150134.7   -47420.049    4063.5509     -51483.6   0.15556979 
  135000     294.0156   -899.53479    149793.41    -47479.58    4037.5962   -51517.176   0.15292057 
  135200    289.98446   -864.71209    149735.74   -47490.567    3982.2382   -51472.805   0.16206717 
  135400    291.15454   -1114.4772    149986.76   -47508.534    3998.3065    -51506.84   0.16005618 
  135600    291.49219   -1042.2863    149979.43   -47471.032    4002.9433   -51473.975   0.15761849 
  135800    287.47499   -965.09091    149762.41   -47545.266    3947.7767   -51493.043   0.15557849 
  136000    290.78058   -924.31384    149729.86    -47577.61     3993.171   -51570.781   0.15324814 
  136200    286.25543   -1072.0979    149926.31   -47585.079     3931.029   -51516.108   0.15772375 
  136400    289.34408   -1071.1688    149987.01   -47537.975    3973.4442   -51511.419   0.15579861 
  136600    291.25124   -985.31899    149874.93    -47481.56    3999.6345   -51481.195   0.15791469 
  136800    292.06618   -936.81494    149853.42   -47492.456    4010.8257   -51503.282   0.15806543 
  137000    287.07431     -1011.16    149976.31   -47495.661    3942.2743   -51437.935   0.15689451 
  137200    294.16345    -1031.234    149999.31    -47528.09    4039.6267   -51567.716    0.1488611 
  137400    288.75658   -985.41279    149850.76   -47486.696    3965.3763   -51452.072   0.15891459 
  137600    291.31081   -921.21416    149866.09   -47478.901    4000.4524   -51479.353   0.15550083 
  137800     292.0016   -1059.7041    150058.33   -47450.579    4009.9388   -51460.518   0.15551266 
  138000    287.58249   -1060.9448    150017.27   -47447.084     3949.253   -51396.337   0.15389402 
  138200    291.96748   -900.14331    149802.24   -47501.734    4009.4702   -51511.204   0.15626366 
  138400    289.79709    -940.1867    149852.06    -47486.18    3979.6652   -51465.845    0.1567256 
  138600    290.23889   -1063.1177    150029.84   -47497.226    3985.7323   -51482.958   0.15354256 
  138800    296.84064   -1019.2306    149931.76   -47449.089    4076.3913    -51525.48   0.16121066 
  139000     294.7347   -929.95425    149780.02   -47438.723    4047.4713   -51486.194   0.16456136 
  139200    294.94029   -1009.8884    149920.95   -47437.982    4050.2947   -51488.277   0.15757194 
  139400    295.27418   -1104.4121    150070.74   -47460.518    4054.8798   -51515.398   0.15404914 
  139600    294.88032   -993.27001    149880.22   -47443.757    4049.4711   -51493.228   0.16225763 
  139800    292.98176    -903.3126    149755.48   -47405.559     4023.399   -51428.958    0.1672357 
  140000     295.1178   -1033.7509    149977.06    -47367.73    4052.7323   -51420.462   0.15349433 
  140200     293.0936   -1110.5041    150091.85    -47407.24    4024.9348   -51432.175     0.154983 
  140400    293.25339   -913.10939    149825.87   -47436.249    4027.1291   -51463.378   0.15694394 
  140600    292.02479   -886.38573    149749.81   -47437.742    4010.2573       -51448   0.15516819 
  140800    289.17653   -1101.0254    150065.69   -47426.037    3971.1432    -51397.18   0.16093395 
  141000    288.37151   -1156.4116    150122.73   -47462.248    3960.0882   -51422.336   0.16314332 
  141200    292.41137   -849.94777    149750.16   -47419.689     4015.566   -51435.255   0.15806452 
  141400    297.97268    -855.3638       149788   -47427.208    4091.9372   -51519.145   0.14995569 
  141600    294.59841   -1233.1714    150273.71   -47402.228    4045.5997   -51447.828   0.16319026 
  141800    288.40379   -1150.0406    150119.29   -47458.077    3960.5315   -51418.608   0.16275406 
  142000    292.88098   -723.30262    149516.66   -47483.591     4022.015   -51505.606   0.15096906 
  142200    291.84904   -901.38356    149781.61   -47477.999    4007.8438   -51485.843   0.15233271 
  142400    295.40827   -1344.6476    150420.04   -47471.582    4056.7212   -51528.303   0.15617808 
  142600    294.81191   -1056.7626    150037.06   -47468.006    4048.5316   -51516.538   0.15468206 
  142800    293.03358   -652.48696    149448.17   -47480.291    4024.1106   -51504.402   0.15634365 
  143000    285.25236   -1073.2595    149950.66   -47537.272    3917.2543   -51454.526    0.1591476 
  143200    294.05982   -1326.9167     150419.9   -47496.078    4038.2034   -51534.281   0.15993301 
  143400    289.94786   -978.09801    149817.62   -47469.516    3981.7356   -51451.252    0.1683891 
  143600    290.30707   -675.27372     149411.2   -47464.227    3986.6685   -51450.896    0.1565064 
  143800    291.08055   -1150.2821    150055.54   -47468.949    3997.2904    -51466.24   0.15601289 
  144000    289.09166   -1329.7669    150314.67   -47449.758    3969.9778   -51419.736   0.16562166 
  144200    292.42544    -802.9204    149643.31   -47432.548    4015.7593   -51448.307   0.16037777 
  144400     299.4191    -710.4693    149521.24   -47438.136    4111.8003   -51549.936   0.14952966 
  144600    295.05167   -1165.4871     150218.9   -47401.019    4051.8241   -51452.843    0.1511848 
  144800    295.66109   -1251.7711     150275.3   -47368.611    4060.1931   -51428.804   0.16797879 
  145000    289.16122    -817.3155    149608.15    -47422.24    3970.9331   -51393.173   0.16313438 
  145200    294.20005   -751.24218       149636    -47454.06    4040.1293   -51494.189   0.14901827 
  145400    290.64989   -1287.8927    150254.97    -47449.45    3991.3763   -51440.827   0.16711396 
  145600     288.7793   -1182.8381    150139.22   -47468.854    3965.6883   -51434.543   0.16790172 
  145800    295.66783   -718.17172    149548.73   -47493.226    4060.2856   -51553.512   0.14408621 
  146000    289.72356   -908.89535    149723.14   -47479.594    3978.6554    -51458.25   0.15200097 
  146200    293.97177   -1232.0769    150237.52   -47502.098    4036.9944   -51539.092   0.16379248 
  146400    293.46252   -1061.3283    149990.12   -47458.177     4030.001   -51488.178    0.1609535 
  146600    294.51535   -759.27319    149587.25   -47427.356    4044.4591   -51471.816   0.14595723 
  146800    296.96852   -927.57105    149922.63   -47378.567    4078.1475   -51456.715    0.1508731 
  147000    293.67998    -1269.832    150303.23   -47386.827    4032.9873   -51419.814   0.17005136 
  147200    295.88477   -968.29173    149969.72   -47359.008    4063.2648   -51422.273   0.15839982 
  147400    292.36746   -803.11308    149651.16    -47430.04    4014.9631   -51445.003   0.15758971 
  147600    287.73941   -1042.2817    149978.72   -47438.882    3951.4079    -51390.29   0.16454092 
  147800    290.58589   -1235.6162    150214.95     -47477.4    3990.4974   -51467.897   0.15793702 
  148000     289.2621   -925.31973    149853.08   -47447.339    3972.3184   -51419.658   0.15441365 
  148200    295.21579     -805.344    149689.58   -47493.596     4054.078   -51547.674   0.15078144 
  148400    289.83056   -1134.0144    150059.53   -47538.305    3980.1248    -51518.43   0.15582234 
  148600    290.52937   -1173.2544    150149.78   -47505.231    3989.7212   -51494.952   0.15604806 
  148800     292.4313   -914.60252    149798.86   -47514.918    4015.8397   -51530.757   0.14840286 
  149000    290.39359   -836.18135    149753.04   -47523.029    3987.8566   -51510.886   0.14670894 
  149200    294.26026   -1149.6448     150150.9   -47524.308     4040.956   -51565.264   0.15104016 
  149400    290.67476   -1129.0107    150118.95   -47546.136    3991.7178   -51537.854   0.15528698 
  149600    288.37821   -809.75922       149737   -47551.565    3960.1802   -51511.746     0.152007 
  149800    292.52577   -905.91487    149829.73   -47537.733     4017.137    -51554.87    0.1444563 
  150000    290.90223    -1175.228    150173.44   -47491.499    3994.8417   -51486.341   0.15525263 
  150200    291.18127    -1057.513    150051.03   -47437.491    3998.6735   -51436.165   0.15814653 
  150400    297.71483   -822.36303       149765   -47413.289    4088.3963   -51501.685    0.1444775 
  150600    291.32591   -989.50745    149955.75   -47462.639    4000.6598   -51463.299   0.14998616 
  150800    294.11283   -1158.1321    150208.82    -47420.74    4038.9315   -51459.672   0.15755161 
  151000    293.49246   -1025.6792    149974.88   -47464.392    4030.4121   -51494.804   0.15335699 
  151200    297.70524   -792.87199    149701.65   -47455.384    4088.2645   -51543.648   0.14521748 
  151400    296.63316   -1043.3729    149961.56   -47364.775    4073.5421   -51438.317   0.15859889 
  151600    299.92205   -1234.8943    150289.57   -47347.074    4118.7072   -51465.781   0.16865122 
  151800    290.75937   -1009.7987    149997.35   -47361.984    3992.8798   -51354.864   0.15762796 
  152000    296.57795   -757.69063    149661.39   -47369.236    4072.7839    -51442.02   0.15467346 
  152200    299.22562   -1028.2373    150061.07   -47385.791    4109.1433   -51494.934   0.16113496 
  152400    295.19769   -1299.9398    150427.45   -47427.104    4053.8294   -51480.933   0.15337991 
  152600    294.60107   -929.85177    149848.44   -47405.166    4045.6363   -51450.802   0.14814126 
  152800    300.47945   -579.99271    149433.33   -47341.866    4126.3617   -51468.228   0.14988168 
  153000    293.93563   -1222.1854    150257.91   -47401.106     4036.498   -51437.604   0.16502709 
  153200    296.21937   -1448.4287     150612.6   -47333.076    4067.8597   -51400.936   0.15977905 
  153400    292.93747   -674.33312    149544.38   -47403.604    4022.7907   -51426.395   0.14922564 
  153600    296.98326   -499.75357    149306.94   -47435.129    4078.3499   -51513.479   0.14955899 
  153800    295.84027   -1390.6294    150501.78    -47448.84    4062.6537   -51511.493   0.15842925 
  154000    295.74167    -1418.169    150551.71    -47460.07    4061.2996    -51521.37   0.15741733 
  154200    298.42984   -565.21491    149345.77   -47424.527    4098.2152   -51522.742   0.14926808 
  154400    293.02727   -674.40361    149503.52   -47416.466    4024.0239    -51440.49   0.15206497 
  154600    292.72932   -1444.9548    150545.43   -47421.524    4019.9323   -51441.456   0.16025791 
  154800    292.15019   -1190.7601    150225.34   -47441.904    4011.9794   -51453.883   0.15516005 
  155000    291.44348   -597.34383    149416.18   -47440.786    4002.2744   -51443.061   0.15139204 
[...]
  163200    294.67511   -1122.9866    150122.56   -47500.243     4046.653   -51546.896   0.15032053 
  163400    290.31055   -774.53331    149629.95   -47541.559    3986.7164   -51528.275   0.14572568 
  163600    286.85299   -886.45639     149794.7   -47489.112    3939.2351   -51428.347    0.1510477 
  163800    290.77089   -1259.9545    150272.02   -47543.078     3993.038   -51536.116   0.14955453 
  164000    293.29695   -1069.5291    150030.25   -47563.508    4027.7274   -51591.235   0.14933483 
  164200    290.18475   -709.74597    149588.73   -47566.783    3984.9888   -51551.772   0.15078874 
  164400    290.01801    -1010.112    149902.96   -47505.499     3982.699   -51488.198   0.15523783 
  164600    291.80304   -1266.6473    150277.84   -47477.589     4007.212   -51484.802   0.15375759 
  164800     288.4628   -996.40858    149908.59   -47521.437    3961.3419   -51482.779   0.15686602 
  165000    291.30534   -762.74442    149600.32   -47502.022    4000.3773   -51502.399   0.15595476 
  165200    292.47644   -1048.0353    150010.74   -47493.259    4016.4596   -51509.719   0.15476674 
  165400    293.73903   -1246.8711    150227.34   -47517.688    4033.7983   -51551.487   0.15609267 
  165600    293.54276   -897.12165    149776.65   -47462.213    4031.1029   -51493.316   0.14973169 
  165800    293.44735   -757.26203    149635.22    -47489.41    4029.7926   -51519.203   0.14453125 
  166000    289.96575   -1129.5909    150104.48   -47441.175    3981.9814   -51423.156   0.15648881 
  166200    291.85075   -1201.5134    150177.28   -47469.632    4007.8672   -51477.499   0.16265068 
  166400    292.73525   -833.59021    149700.62   -47472.545    4020.0137   -51492.559   0.15435184 
  166600    289.74587    -897.7312    149712.54   -47468.025    3978.9618   -51446.986   0.15006814 
  166800    289.97489   -1177.1232    150142.56    -47520.99    3982.1068   -51503.097   0.15702037 
  167000    287.16215   -1099.7225    150059.95   -47522.538    3943.4806   -51466.018   0.15835669 
  167200    297.23099   -799.52158    149667.62   -47477.452    4081.7519   -51559.204   0.14592576 
  167400    290.85865   -954.79917    149814.09   -47522.203    3994.2431   -51516.446     0.147752 
  167600    286.43822   -1175.1167     150144.3   -47497.569    3933.5391   -51431.108    0.1551816 
  167800    287.64487   -1069.4516    149957.01   -47569.348    3950.1096   -51519.458   0.15249266 
  168000     288.3416   -848.72612    149641.81   -47561.991    3959.6776   -51521.668   0.15279355 
  168200    288.83275   -969.50591    149827.16   -47556.546    3966.4222   -51522.968   0.15161834 
  168400    292.32463   -1146.8642    150097.44   -47508.161    4014.3748   -51522.536   0.15485541 
  168600    292.12028   -1017.4124    149928.77   -47522.147    4011.5687   -51533.715   0.15267331 
  168800    286.67314   -868.85517    149743.27     -47565.8    3936.7653   -51502.565   0.15276373 
  169000    291.19784    -1020.365    149950.94   -47548.911    3998.9011   -51547.812   0.15386541 
  169200      289.618   -1123.4695    150106.71   -47515.338    3977.2058   -51492.544    0.1540604 
  169400    288.95348    -953.2109    149885.02   -47544.794    3968.0802   -51512.874   0.15327738 
  169600    287.88719    -881.6359    149751.46    -47557.84    3953.4372   -51511.277   0.15411297 
  169800    288.66227   -1041.7988    150019.26   -47560.244    3964.0811   -51524.325   0.15170098 
  170000     285.9927   -1182.7093    150146.21   -47597.582     3927.421   -51525.003   0.15395087 
  170200    280.91442   -941.25038    149840.87   -47611.035    3857.6832   -51468.718   0.15283761 
  170400    286.56081   -873.96219    149749.01   -47583.217    3935.2226    -51518.44   0.15032585 
  170600    289.14841   -1079.7643    150088.35   -47559.481    3970.7572   -51530.238   0.15280482 
  170800    289.35301   -1152.8144    150128.39   -47582.629    3973.5668   -51556.196   0.15810148 
  171000    293.41917   -868.24165    149721.72   -47588.048    4029.4057   -51617.454   0.14610283 
  171200    288.31225   -841.44716    149694.48    -47615.42    3959.2745   -51574.694   0.14385915 
  171400    288.94267   -1144.6782    150098.91   -47604.507    3967.9318   -51572.439   0.15354878 
  171600    291.43699   -1107.6687    150053.45   -47569.098    4002.1853   -51571.283   0.15732649 
  171800    291.05672   -780.08462    149614.08   -47552.757    3996.9631   -51549.721   0.14723944 
  172000    288.75632   -916.07489    149764.23   -47557.656    3965.3727   -51523.029   0.15123563 
  172200    296.42686   -1258.5719    150261.63   -47556.356    4070.7091   -51627.066    0.1506578 
  172400    290.01557   -1058.6278    150050.21   -47526.563    3982.6654   -51509.229   0.15122605 
  172600    291.56281   -714.98045    149551.86   -47518.821     4003.913   -51522.734   0.14781065 
  172800    294.01236   -938.07258    149889.32   -47523.832    4037.5518   -51561.384   0.14891065 
  173000    291.02575   -1331.0034    150384.51   -47533.345    3996.5379   -51529.883    0.1583659 
  173200    290.73276   -983.85971    149881.37   -47579.169    3992.5144   -51571.683   0.14533109 
  173400    293.00602   -639.81671    149381.21   -47571.024    4023.7321   -51594.756   0.14950903 
  173600    292.73069   -1044.8758    149977.78   -47514.621    4019.9512   -51534.572   0.15648305 
  173800    292.48225   -1395.3075    150470.06   -47505.205    4016.5394   -51521.745   0.16093647 
  174000    297.43073   -882.11271    149760.67   -47479.642    4084.4948   -51564.137   0.15086852 
  174200    289.40268   -601.87424    149352.56   -47477.601    3974.2489    -51451.85   0.14895146 
  174400    300.19909   -1146.2689    150156.82   -47450.779    4122.5116   -51573.291   0.15167011 
  174600    292.97518   -1387.4223    150455.89   -47454.785    4023.3085   -51478.093   0.16004156 
  174800    296.40119   -814.10483    149636.64   -47431.317    4070.3566   -51501.674   0.15827939 
  175000     291.0018   -707.04713    149503.45   -47481.666    3996.2089   -51477.875   0.15272346 
  175200    295.67002   -1269.4865    150310.82   -47467.553    4060.3157   -51527.869   0.16080261 
  175400    289.87439   -1242.0743    150314.98   -47475.294    3980.7268    -51456.02   0.15569018 
  175600    289.90808   -718.54872    149580.88   -47497.287    3981.1894   -51478.476   0.15356306 
  175800    289.49523   -814.32197    149661.51   -47481.285    3975.5199   -51456.804   0.15597648 
  176000    292.54642   -1266.6909    150250.09   -47459.338    4017.4206   -51476.759   0.16166488 
  176200    298.61996     -1168.94    150120.99   -47410.407     4100.826   -51511.233   0.15966919 
  176400    297.01465   -815.55198    149681.01   -47456.921     4078.781   -51535.702   0.14619679 
  176600    291.62556    -929.3569    149845.36   -47434.001    4004.7748   -51438.776   0.15302712 
  176800    299.24208   -1162.7374    150176.84   -47437.139    4109.3694   -51546.508   0.15503888 
  177000    289.55631   -1080.4735    149988.46    -47454.83    3976.3587   -51431.189   0.16201233 
  177200    290.97228   -897.88801    149726.65   -47473.316    3995.8035   -51469.119   0.15816774 
  177400     286.0439   -986.71299    149879.52    -47561.27    3928.1241   -51489.394   0.15639904 
  177600    294.02471   -1081.1309    150051.52   -47524.152    4037.7213   -51561.873   0.15245013 
  177800    292.90772   -1033.6748    149886.12   -47504.927    4022.3822   -51527.309   0.15469056 
  178000    291.96714   -915.27281    149746.91   -47463.865    4009.4655   -51473.331   0.16006324 
  178200    293.25282   -1004.9715    149934.84   -47498.035    4027.1213   -51525.156   0.15925391 
  178400    291.79338   -1088.1537    150012.21   -47471.143    4007.0794   -51478.223   0.15654696 
  178600    289.53319   -981.90723     149807.9   -47490.745    3976.0412   -51466.787   0.15214584 
  178800    290.28307   -877.96911    149774.48   -47459.597     3986.339   -51445.936   0.15648574 
  179000    292.87997   -1088.5915    150030.31   -47430.199    4022.0011     -51452.2   0.15932614 
  179200    296.96828    -1097.738     150080.8   -47453.739    4078.1442   -51531.884   0.15628579 
  179400    289.27425   -921.92689    149825.16   -47429.348    3972.4852   -51401.833   0.15792351 
  179600    294.36659   -910.37617    149808.96   -47437.617    4042.4162   -51480.033   0.15425219 
  179800    293.22453   -1093.4303    150064.53    -47462.03    4026.7328   -51488.763   0.15579579 
  180000    295.77148   -1092.9581    150024.73   -47429.746    4061.7091   -51491.456   0.15766127 
  180200    295.22946   -876.65767    149741.59   -47394.796    4054.2657   -51449.062    0.1593869 
  180400    297.98723   -954.41307    149873.12   -47349.536     4092.137   -51441.673   0.15753728 
  180600    298.20917   -1172.1039    150177.77   -47434.294    4095.1849   -51529.479   0.15493744 
  180800    295.85743   -1019.9468    149978.97   -47400.461    4062.8893   -51463.351   0.15864109 
  181000    296.34699   -799.82489     149664.9   -47447.011    4069.6123   -51516.623   0.15437003 
  181200    295.07534   -992.98503     149946.3   -47426.552    4052.1493   -51478.701   0.15841938 
  181400    291.42906   -1262.7711    150262.65   -47461.308    4002.0763   -51463.384   0.16238748 
  181600    294.82609   -943.73616    149877.08   -47487.996    4048.7264   -51536.723   0.15540362 
  181800    297.39014   -750.19572    149557.08   -47463.434    4083.9374   -51547.372   0.15118105 
  182000    291.40163   -1073.2501    149976.03   -47466.444    4001.6997   -51468.144   0.15886193 
  182200    292.22656   -1237.8294    150231.06   -47477.866    4013.0281   -51490.894   0.16420547 
  182400    291.10562   -914.19338    149765.15    -47485.17    3997.6346   -51482.805   0.15641631 
  182600    291.72354   -746.38341    149566.57   -47451.603    4006.1203   -51457.723   0.15460951 
  182800    296.88516   -1146.7326    150113.32   -47409.087    4077.0027    -51486.09   0.16259696 
  183000    293.36366   -1240.1305    150281.05   -47406.141    4028.6434   -51434.785   0.15917575 
  183200    295.43599    -784.9417    149738.78   -47396.534    4057.1019   -51453.635   0.14937851 
  183400    291.70532   -783.73432    149689.95    -47407.25    4005.8702    -51413.12   0.15835776 
  183600    293.95975   -1203.7006    150268.19   -47428.568    4036.8293   -51465.397   0.16210898 
  183800    288.87094   -1205.9955    150183.27   -47462.054    3966.9467       -51429    0.1626201 
  184000    293.47807   -723.48586    149575.52   -47484.226    4030.2146   -51514.441   0.15056833 
  184200    292.61022    -851.1676    149686.69   -47526.426    4018.2968   -51544.723   0.15645843 
  184400    296.06261   -1252.9788    150240.92   -47527.399     4065.707   -51593.106   0.15744073 
  184600    293.94511   -1095.5649    150055.11   -47537.443    4036.6282   -51574.072   0.15692619 
  184800    290.91394   -714.85026    149536.39    -47532.42    3995.0024   -51527.422   0.15188087 
  185000    291.46916   -913.10252    149812.78   -47519.449     4002.627   -51522.077   0.15346857 
  185200    286.34816    -1231.713    150253.47   -47569.144    3932.3025   -51501.446   0.15493569 
  185400    292.07141   -1027.0788    149945.02   -47552.503    4010.8974   -51563.401   0.15538016 
  185600    291.18181   -795.05035    149601.78   -47560.746     3998.681   -51559.427    0.1568861 
  185800    289.49702    -994.6988     149901.9   -47501.677    3975.5445   -51477.221   0.15647299 
  186000    294.78884   -1179.2649    150172.09   -47483.388    4048.2148   -51531.603   0.15947842 
  186200    295.55317   -995.71888    149911.25   -47479.527     4058.711   -51538.238    0.1586909 
  186400    296.34288   -840.37929    149746.07   -47431.107    4069.5558   -51500.663    0.1542998 
  186600    294.11093   -1061.9121    150014.68   -47462.231    4038.9054   -51501.136   0.15891165 
  186800    290.33922   -1146.6674     150088.5   -47486.119    3987.1101   -51473.229   0.16239826 
  187000    295.60601   -944.44927    149826.93   -47462.068    4059.4367   -51521.504   0.15606542 
  187200    290.42393   -899.09396    149784.67   -47481.412    3988.2733   -51469.685   0.15497311 
  187400    292.99926   -1072.3405    149996.06   -47464.327    4023.6393   -51487.966   0.15846006 
  187600    291.12834     -1070.35    149982.65   -47504.805    3997.9466   -51502.752   0.15628499 
  187800    295.22389   -910.25264    149786.62   -47496.017    4054.1893   -51550.206   0.15677736 
  188000    293.82308   -965.72113    149855.44   -47469.553    4034.9525   -51504.505   0.15956942 
  188200    290.79273   -1111.5222    150060.27   -47457.002    3993.3379    -51450.34   0.16484798 
  188400    284.57961    -1043.234    149955.67   -47445.332    3908.0156   -51353.348   0.16418672 
  188600    294.01751    -893.2763    149797.89   -47454.298    4037.6225    -51491.92   0.15635836 
  188800    295.96306   -986.31929    149921.65   -47466.059      4064.34   -51530.399   0.15744238 
  189000    295.24945    -1076.464    150019.62   -47457.301    4054.5403   -51511.842   0.15432626 
  189200    294.22215   -958.54749    149891.82   -47462.239    4040.4327   -51502.672   0.15495259 
  189400     295.6343   -923.83838    149810.51    -47424.98    4059.8251   -51484.805   0.15825685 
  189600    290.60613   -1016.1266    149962.46   -47436.985    3990.7754    -51427.76   0.15895464 
  189800    288.50644   -1075.2246    150050.44   -47473.932    3961.9413   -51435.873   0.15534789 
  190000     289.7422   -1013.2829    149878.63   -47508.885    3978.9114   -51487.796   0.16437814 
  190200    286.75234   -925.32037    149779.93   -47482.722    3937.8528   -51420.575   0.16546629 
  190400    292.42763   -1075.5499    149937.57   -47478.654    4015.7894   -51494.443    0.1634735 
  190600    292.82166    -1065.403    150005.85   -47420.266    4021.2003   -51441.466     0.162655 
  190800    295.77198   -957.41353     149848.2   -47455.616    4061.7158   -51517.331    0.1573957 
  191000    290.41436         -925    149797.09   -47469.314    3988.1419   -51457.456   0.15704133 
  191200    292.73292    -1049.673    149989.98   -47460.654    4019.9818   -51480.635   0.15810573 
  191400    289.46636   -1096.1936    149994.84   -47484.336    3975.1233   -51459.459   0.16315906 
  191600    293.04654    -911.7317    149790.35   -47441.375    4024.2885   -51465.663   0.15644239 
  191800    290.62542   -924.68941    149832.19   -47473.956    3991.0403   -51464.997   0.15010629 
  192000    292.11686    -1089.223     150040.7   -47470.196    4011.5216   -51481.717   0.16242895 
  192200    289.39046   -1065.7662    149981.43   -47440.324    3974.0811   -51414.406   0.16125649 
  192400    296.09996   -901.46795    149753.77   -47452.397      4066.22   -51518.616   0.15597228 
  192600    285.31734   -903.68256    149859.12   -47481.547    3918.1466   -51399.694   0.15690363 
  192800     296.7513   -1169.5695    150164.78   -47454.368    4075.1645   -51529.533   0.15638737 
  193000    295.87332   -1000.9395    149986.86   -47446.882    4063.1076   -51509.989   0.15317127 
  193200     298.5842   -769.14253    149681.49   -47405.417    4100.3349   -51505.752   0.15116332 
  193400    290.69068   -1024.9541    150003.86   -47403.449    3991.9365   -51395.386   0.16250878 
  193600    295.86461   -1255.6208    150291.83   -47411.915     4062.988   -51474.902   0.16127788 
  193800    294.76637   -864.50544       149778   -47469.161    4047.9063   -51517.068   0.15384763 
  194000    296.04755   -652.82352     149499.2   -47499.147    4065.5002   -51564.648   0.15174581 
  194200    289.49413   -1156.8943    150183.05   -47473.539    3975.5048   -51449.044   0.16305289 
  194400    291.15313   -1284.1948    150377.93   -47450.124    3998.2871   -51448.411   0.16785127 
  194600    294.12706   -748.14283    149622.75   -47486.357    4039.1269   -51525.483   0.15452709 
  194800    290.57172    -690.2626    149548.15   -47472.631    3990.3028   -51462.934   0.15829335 
  195000    292.04599   -1284.0504    150341.98   -47442.548    4010.5484   -51453.096   0.16372507 
  195200    292.19368   -1249.0127    150271.54    -47428.37    4012.5766   -51440.947   0.16249485 
  195400    295.34923   -706.81996    149471.84   -47441.884    4055.9104   -51497.794   0.15464861 
  195600    293.09146    -815.7919    149633.38   -47445.784    4024.9054   -51470.689   0.15683858 
  195800    292.34642   -1344.2067    150363.42   -47478.734    4014.6741   -51493.409   0.16314248 
  196000    295.02585   -1155.4155    150098.25   -47453.766    4051.4696   -51505.236   0.16057934 
  196200    295.55765   -654.01055    149444.58   -47449.674    4058.7726   -51508.446   0.14987516 
  196400    292.94433   -912.68621    149810.64   -47447.543     4022.885   -51470.428   0.15608122 
  196600    293.00552   -1348.9269    150393.36   -47504.347    4023.7253   -51528.072   0.16403908 
  196800    293.27773   -1035.4459     149958.8   -47502.197    4027.4634    -51529.66   0.15791933 
  197000    289.63892   -734.51872    149507.24   -47519.467    3977.4931    -51496.96   0.15708371 
  197200    286.89859   -1049.6233    149951.48   -47570.054    3939.8612   -51509.915   0.15544932 
  197400    288.78793   -1274.5452    150271.29   -47521.275    3965.8068   -51487.082   0.16035005 
  197600    294.42187   -891.14168    149828.15   -47441.471    4043.1754   -51484.646    0.1520929 
  197800    295.38335   -772.05707    149649.21   -47431.758     4056.379   -51488.137   0.15186321 
  198000    288.87557   -1140.6278    150076.68   -47455.054    3967.0104   -51422.064   0.16649597 
  198200    291.33125    -1192.136    150150.94    -47479.25    4000.7332   -51479.983   0.15775221 
  198400    297.16368   -848.35889    149735.23   -47412.358    4080.8275   -51493.185   0.15811265 
  198600     293.3861   -830.05717    149735.37   -47403.019    4028.9516   -51431.971   0.15920903 
  198800    293.44936   -1178.4947    150119.98   -47430.336    4029.8203   -51460.156    0.1658237 
  199000    291.94138   -1108.9934    150038.39   -47437.249    4009.1118   -51446.361   0.16574203 
  199200    296.05604   -859.30586    149699.53   -47436.956    4065.6167   -51502.573   0.15747465 
  199400    292.41861   -949.37967    149826.07   -47446.866    4015.6654   -51462.532   0.15944346 
  199600    288.48869   -1194.9179    150143.37   -47463.678    3961.6974   -51425.376   0.16103788 
  199800    293.15414   -1027.2364    149983.57   -47445.083    4025.7662   -51470.849   0.15741263 
  200000    297.46053   -803.40699    149666.14    -47469.88    4084.9041   -51554.785   0.15454636 
Loop time of 107.636 on 6 procs for 200000 steps with 4608 atoms

Performance: 802.704 ns/day, 0.030 hours/ns, 1858.110 timesteps/s
97.8% CPU use with 6 MPI tasks x no OpenMP threads

MPI task timing breakdown:
Section |  min time  |  avg time  |  max time  |%varavg| %total
---------------------------------------------------------------
Pair    | 74.513     | 75.403     | 76.492     |   7.1 | 70.05
Neigh   | 10.546     | 10.852     | 11.291     |   9.2 | 10.08
Comm    | 10.418     | 11.174     | 12.316     |  20.9 | 10.38
Output  | 3.0412     | 3.0423     | 3.0467     |   0.1 |  2.83
Modify  | 5.7099     | 5.8302     | 5.8953     |   2.9 |  5.42
Other   |            | 1.335      |            |       |  1.24

Nlocal:        768.000 ave         781 max         759 min
Histogram: 2 0 0 1 0 2 0 0 0 1
Nghost:        1390.50 ave        1398 max        1378 min
Histogram: 1 0 0 0 0 2 0 0 2 1
Neighs:        0.00000 ave           0 max           0 min
Histogram: 6 0 0 0 0 0 0 0 0 0
FullNghs:      21858.3 ave       22258 max       21615 min
Histogram: 2 0 0 1 2 0 0 0 0 1

Total # of neighbors = 131150
Ave neighs/atom = 28.461372
Neighbor list builds = 12719
Dangerous builds = 0
write_data		data.${NAME}
write_data		data.ice_293K_-1000atm_ML
System init for write_data ...
Total wall time: 0:02:42
