
# Create simulation box of size 50 x 50 x 50 Angstrom
#
lattice	            sc 1
Lattice spacing in x,y,z = 1.0000000 1.0000000 1.0000000
region 	            all block 0 ${X} ${YZ_LO} ${YZ_HI} ${YZ_LO} ${YZ_HI} units box
region 	            all block 0 53.4 ${YZ_LO} ${YZ_HI} ${YZ_LO} ${YZ_HI} units box
region 	            all block 0 53.4 -0.07112227757689027.0 ${YZ_HI} ${YZ_LO} ${YZ_HI} units box
region 	            all block 0 53.4 -0.07112227757689027.0 50.978242277576925.0 ${YZ_LO} ${YZ_HI} units box
region 	            all block 0 53.4 -0.07112227757689027.0 50.978242277576925.0 -0.07112227757689027.0 ${YZ_HI} units box
region 	            all block 0 53.4 -0.07112227757689027.0 50.978242277576925.0 -0.07112227757689027.0 50.978242277576925.0 units box
create_box          1 all
Created orthogonal box = (0.0000000 -0.071122278 -0.071122278) to (53.400000 50.978242 50.978242)
  3 by 1 by 2 MPI processor grid

# fill box with 4175 randomly distributed atoms
#
create_atoms        1 random 4608 63782 all
Created 4608 atoms
  create_atoms CPU = 0.001 seconds
mass                1 18.015

# Define potential
#
pair_style          sw
pair_coeff          * * /data/emrosky-sim/Freezing_Simulations/Melting/MLmW_fancy/ML_mW.sw mW
Reading sw potential file /data/emrosky-sim/Freezing_Simulations/Melting/MLmW_fancy/ML_mW.sw with DATE: 2019-02-27

# Run minimization
#
minimize            1.0e-8 1.0e-8 10000 1000
WARNING: Using 'neigh_modify every 1 delay 0 check yes' setting during minimization (../min.cpp:187)
Neighbor list info ...
  update every 1 steps, delay 0 steps, check yes
  max neighbors/atom: 2000, page size: 100000
  master list distance cutoff = 6.0032907
  ghost atom cutoff = 6.0032907
  binsize = 3.0016454, bins = 18 18 18
  1 neighbor lists, perpetual/occasional/extra = 1 0 0
  (1) pair sw, perpetual
      attributes: full, newton on
      pair build: full/bin/atomonly
      stencil: full/bin/3d
      bin: standard
Per MPI rank memory allocation (min/avg/max) = 4.236 | 4.249 | 4.255 Mbytes
Step Temp E_pair E_mol TotEng Press 
       0            0    7211746.3            0    7211746.3    4925514.9 
     669            0   -49914.536            0   -49914.536    -582.0539 
Loop time of 1.24067 on 6 procs for 669 steps with 4608 atoms

98.9% CPU use with 6 MPI tasks x no OpenMP threads

Minimization stats:
  Stopping criterion = max force evaluations
  Energy initial, next-to-last, final = 
       7211746.2990659  -49913.6550536436  -49914.5357259524
  Force two-norm initial, final = 1.6564860e+08 7.5233384
  Force max component initial, final = 88164011.0 1.3087131
  Final line search alpha, max atom move = 0.019222252 0.025156413
  Iterations, force evaluations = 669 1000

MPI task timing breakdown:
Section |  min time  |  avg time  |  max time  |%varavg| %total
---------------------------------------------------------------
Pair    | 0.97948    | 1.0564     | 1.1417     |   5.2 | 85.15
Neigh   | 0.028794   | 0.029263   | 0.02992    |   0.2 |  2.36
Comm    | 0.048073   | 0.13377    | 0.21076    |  14.5 | 10.78
Output  | 0          | 0          | 0          |   0.0 |  0.00
Modify  | 0          | 0          | 0          |   0.0 |  0.00
Other   |            | 0.02126    |            |       |  1.71

Nlocal:        768.000 ave         793 max         752 min
Histogram: 1 1 0 2 0 1 0 0 0 1
Nghost:        1568.33 ave        1590 max        1549 min
Histogram: 1 1 0 1 0 1 0 1 0 1
Neighs:        0.00000 ave           0 max           0 min
Histogram: 6 0 0 0 0 0 0 0 0 0
FullNghs:      21856.0 ave       23109 max       21052 min
Histogram: 1 1 1 0 1 1 0 0 0 1

Total # of neighbors = 131136
Ave neighs/atom = 28.458333
Neighbor list builds = 29
Dangerous builds = 0

# Add velocity/set timestep
#
velocity            all create ${TEMP} 120598 rot yes dist gaussian
velocity            all create 293 120598 rot yes dist gaussian
timestep            5.0

# Define output
#
compute	            1 all msd
thermo	            100
thermo_style        custom step temp press vol etotal ke pe c_1[4] density

# Neighbor lists
#
neigh_modify        delay 0 every 1 check yes

# Set fixes
#
fix                 1 all momentum 10 linear 1 1 1 rescale
fix                 2 all nve
fix                 3 all temp/csvr ${TEMP} ${TEMP} 500.0 928347
fix                 3 all temp/csvr 293 ${TEMP} 500.0 928347
fix                 3 all temp/csvr 293 293 500.0 928347
fix                 4 all press/berendsen iso ${PRES} ${PRES} 1000.0 modulus 20000
fix                 4 all press/berendsen iso -1000 ${PRES} 1000.0 modulus 20000
fix                 4 all press/berendsen iso -1000 -1000 1000.0 modulus 20000

# Run 0.5 ns equilibration
#
dump                1 all custom 1000 eq.${NAME}.dump id type x y z vx vy vz
dump                1 all custom 1000 eq.liq_293K_-1000atm_ML.dump id type x y z vx vy vz
run                 100000
Per MPI rank memory allocation (min/avg/max) = 3.486 | 3.501 | 3.505 Mbytes
Step Temp Press Volume TotEng KinEng PotEng c_1[4] Density 
     669          293    739.64049    139162.41   -45890.886    4023.6494   -49914.536 1.1796321e-33    0.9905442 
     700    152.94972   -807.29558    140310.31    -45286.92    2100.3961   -47387.316   0.18824657    0.9824404 
     800    209.70518   -786.77963    141190.59   -43875.437    2879.7956   -46755.233    0.6963241    0.9763152 
     900    236.42431   -733.41353    141825.33    -42997.34    3246.7185   -46244.059    1.2950507   0.97194566 
    1000    254.64474    -829.2795    142160.84   -42401.712    3496.9322   -45898.644    1.9637039   0.96965185 
    1100     271.0794   -949.23755    142355.58   -41926.313    3722.6228   -45648.936    2.7723327   0.96832534 
    1200    282.39233   -706.08553    142551.62   -41634.863    3877.9787   -45512.841    3.6397898   0.96699371 
    1300    284.19786   -1064.2281    143030.09   -41370.304    3902.7733   -45273.077    4.6310502   0.96375885 
    1400    288.21688   -1018.7525    142826.07   -41301.213    3957.9648   -45259.178     5.576267   0.96513553 
    1500    286.19254   -1291.9616    142728.48   -41151.521    3930.1653   -45081.686    6.5095207   0.96579548 
    1600    291.27942   -1188.5354    142573.53   -41124.676    4000.0215   -45124.697    7.4150765   0.96684511 
    1700    289.60868   -831.73371    142448.66   -41116.147    3977.0778   -45093.225    8.2793253   0.96769261 
    1800     292.8657   -824.94003    142758.66   -41034.054    4021.8051   -45055.859    9.2347449   0.96559128 
    1900    295.40093   -1118.7973       143004   -40968.344    4056.6204   -45024.964    10.261407   0.96393468 
    2000    296.87735   -925.03147    143134.76   -40963.477    4076.8955   -45040.372    11.334088   0.96305412 
    2100    289.25666   -1076.6177    143058.21   -41064.304    3972.2437   -45036.548    12.372262   0.96356939 
    2200    285.63927   -892.02529    142860.36    -41084.16    3922.5675   -45006.728    13.373931   0.96490392 
    2300    291.16237   -939.61284    143030.69   -40982.079     3998.414   -44980.493    14.463655   0.96375483 
    2400    296.69976    -1175.485    143121.46   -40981.788    4074.4567   -45056.244    15.562539   0.96314359 
    2500    294.33172   -1303.9649    143117.92   -40943.651    4041.9374   -44985.588    16.478085   0.96316743 
    2600    300.69841   -1165.2642    142969.78   -40840.668    4129.3686   -44970.037    17.504774    0.9641654 
    2700    296.24704   -1149.6944    143117.62   -40852.086    4068.2397   -44920.326    18.520991    0.9631694 
    2800    297.67748   -1093.8725    142821.95   -40949.016    4087.8834   -45036.899     19.54284    0.9651634 
    2900     291.9272   -1108.3539     142770.7   -40926.788    4008.9171   -44935.706     20.55288   0.96550982 
    3000    294.32803   -1005.6848    142710.95   -40904.331    4041.8867   -44946.218     21.62395    0.9659141 
    3100    298.65702   -936.33969    142958.47   -40898.988    4101.3349   -45000.323    22.733864    0.9642417 
    3200    295.66688   -1010.7212    142985.78   -40875.912    4060.2726   -44936.184    23.655098    0.9640575 
    3300    292.26981   -808.49631    142792.58   -40907.977     4013.622   -44921.599    24.801528   0.96536189 
    3400    295.88187      -862.33    142541.54   -40902.297    4063.2249   -44965.522    25.934616   0.96706204 
    3500     298.5086   -883.68506    142500.15   -40832.428    4099.2968   -44931.725    27.003182   0.96734295 
    3600    292.94873   -919.56262    142522.88   -40878.345    4022.9453   -44901.291    28.169855   0.96718866 
    3700    299.46798   -928.89949    142569.57   -40854.889    4112.4716   -44967.361    29.344542   0.96687195 
    3800    296.97258    -735.1403    142735.14   -40856.842    4078.2032   -44935.045    30.311034   0.96575035 
    3900     291.0895   -883.88745     142656.2   -40982.583    3997.4133   -44979.997    31.173988   0.96628482 
    4000      288.924   -1009.4622    142924.24   -41017.437    3967.6754   -44985.113    32.099676   0.96447263 
    4100    297.08894   -884.88246    143086.85   -40902.188    4079.8012   -44981.989    33.033008   0.96337657 
    4200    295.05991    -863.0727    143064.31   -40944.301    4051.9373   -44996.239    34.175081   0.96352831 
    4300    298.16561    -1206.245    142805.02   -40874.242    4094.5866   -44968.829      35.2796   0.96527779 
    4400    291.94883   -974.43634    142858.93   -40862.183    4009.2142   -44871.398    36.520876   0.96491353 
    4500    292.34247   -890.91464    143131.95   -40836.263    4014.6199   -44850.883    37.762802     0.963073 
    4600    295.11035   -915.05161    142953.16   -40894.515      4052.63   -44947.145    38.876633   0.96427748 
    4700    296.75291   -1046.8442    143254.54   -40931.144    4075.1866   -45006.331    39.868261   0.96224888 
    4800    291.56361   -1119.7949    143170.91   -40907.269     4003.924   -44911.193    40.778273   0.96281095 
    4900    298.52689   -1175.2712    143416.84   -40870.991    4099.5479   -44970.539    41.906459   0.96115992 
    5000    293.16409   -1125.0977     143074.5   -40929.891    4025.9028   -44955.794    43.231945   0.96345969 
    5100    298.04085   -1243.6575    142931.11    -40915.22    4092.8734   -45008.094    44.292851   0.96442624 
    5200    291.17723   -1005.3588    143016.37   -41000.457     3998.618   -44999.075     45.89744   0.96385135 
    5300    291.71229   -854.03129    142903.48    -40989.04    4005.9659   -44995.006    46.794219   0.96461277 
    5400    296.60472   -840.83008    143051.97   -40902.392    4073.1516   -44975.544    47.635227   0.96361143 
    5500     298.6708   -1251.2171    143108.51   -40883.804    4101.5242   -44985.328    48.582594   0.96323072 
    5600    301.37526   -823.41636    143259.47   -40798.258    4138.6634   -44936.921    49.910423   0.96221575 
    5700    292.02762    -952.0874    143223.19    -40895.01    4010.2962   -44905.306    51.209837   0.96245946 
    5800    302.81502   -998.31675    143295.82   -40805.755    4158.4351   -44964.191    52.340345   0.96197162 
    5900    290.39526   -851.13017    143063.13   -41026.242    3987.8795   -45014.122    53.287917   0.96353629 
    6000    288.31612   -1066.2401    142961.11   -41030.764    3959.3276   -44990.091     54.42185   0.96422389 
    6100    290.10951   -841.91146    142791.09   -40965.998    3983.9555   -44949.953    55.592406   0.96537198 
    6200    287.08078   -945.88797    142860.31   -41018.908    3942.3632   -44961.271    56.700748   0.96490423 
    6300    292.41788   -1233.1463    142552.43   -40984.658    4015.6555   -45000.314    57.560111   0.96698816 
    6400    292.29469   -802.87418    142497.24   -41033.444    4013.9637   -45047.408     58.43481    0.9673627 
    6500    288.75285   -1025.2939     142699.8   -40974.512    3965.3251   -44939.837    59.752284   0.96598954 
    6600    286.09088   -1180.4956    142544.61   -41053.357    3928.7694   -44982.127    60.595374   0.96704127 
    6700    290.26336   -805.29824    142521.84   -41025.954    3986.0682   -45012.022    61.949407   0.96719572 
    6800    285.40508   -938.81593    142616.21   -41064.977    3919.3514   -44984.328    63.052489   0.96655572 
    6900    286.19182   -735.83871    142851.59   -40978.188    3930.1554   -44908.343    64.124523   0.96496314 
    7000    290.39199   -1049.1803    143036.75   -40854.273    3987.8348   -44842.108    64.990269   0.96371401 
    7100     293.0037   -985.20976    143123.85   -40959.073    4023.7002   -44982.773     66.05202   0.96312751 
    7200    289.26353   -815.40234    142963.98   -41017.586     3972.338   -44989.924    66.917552   0.96420451 
    7300    290.79753   -784.69377    143046.65   -40998.178    3993.4038   -44991.582    67.909236    0.9636473 
    7400    293.44054    -1217.214    143212.44   -41037.855    4029.6992   -45067.554    68.809323   0.96253169 
    7500     294.2433   -956.41933    143168.52   -40974.882    4040.7232   -45015.605    69.195702   0.96282701 
    7600    290.80593   -945.03383    142859.44   -40954.308    3993.5191   -44947.827    69.862123   0.96491009 
    7700    301.28968   -1283.6115    142976.23   -40913.514    4137.4883   -45051.002    70.393704   0.96412191 
    7800    290.81602   -955.75647    142787.43   -40947.826    3993.6577   -44941.484    71.437295    0.9653967 
    7900    291.92246   -945.41064    142876.77   -41079.697    4008.8521   -45088.549    72.337544   0.96479303 
    8000    289.82262   -727.25613    142845.97   -41089.437    3980.0158   -45069.453    73.451518   0.96500106 
    8100    290.79849   -939.15599    143050.54   -40953.127     3993.417   -44946.544     74.27804   0.96362108 
    8200    290.00932   -919.78507    143208.75   -40950.013    3982.5797   -44932.593    75.818635   0.96255653 
    8300    293.45815   -1020.6943    143011.82   -40885.744     4029.941   -44915.685    77.060134   0.96388199 
    8400    293.34931   -1135.6694    142667.61   -40959.124    4028.4463    -44987.57    78.519416   0.96620754 
    8500    290.57924   -1086.6754    142605.59    -40996.05    3990.4061   -44986.456    79.782514   0.96662773 
    8600    290.11345   -433.67105    142498.44   -40920.066    3984.0096   -44904.075    81.225086   0.96735459 
    8700    294.59508   -1029.0664    142529.26   -40887.302    4045.5539   -44932.856    82.622311   0.96714542 
    8800    292.19316   -991.01166     142970.4   -40851.607    4012.5695   -44864.177    84.062125    0.9641612 
    8900    292.24701   -1086.3859    142841.82   -40897.063    4013.3089   -44910.372    85.176134   0.96502916 
    9000    303.35681   -984.19765     142797.9    -40767.03    4165.8753   -44932.905    86.501111   0.96532591 
    9100    292.66938   -761.55243    142736.12   -40840.688    4019.1091   -44859.797    87.791319   0.96574378 
    9200    289.79935   -964.86458    142588.96   -40919.005    3979.6962   -44898.702    88.658371   0.96674046 
    9300    293.42506    -827.5538    142844.99   -40916.707    4029.4866   -44946.194     89.82614   0.96500772 
    9400    297.69942   -922.24665    142885.98   -40909.287    4088.1846   -44997.472    91.150556    0.9647309 
    9500    285.06123   -1141.0262    142972.69   -40993.357    3914.6295   -44907.987    92.075287   0.96414581 
    9600     287.2527   -862.60449    143075.76   -40988.935    3944.7241   -44933.659     93.20279   0.96345124 
    9700    295.38767   -1126.7151     142904.3   -40920.941    4056.4383   -44977.379    94.083434   0.96460723 
    9800    297.80381   -1015.9695    142925.33   -40945.738    4089.6182   -45035.356    95.083036   0.96446529 
    9900    287.86636   -1123.0717     142535.6   -40892.169    3953.1512   -44845.321    96.026556   0.96710236 
   10000    288.52019   -1042.9003    142192.02   -41045.051    3962.1301   -45007.181    97.063874   0.96943916 
   10100    290.87283   -911.60714    142090.76   -40959.052    3994.4379    -44953.49    98.297737   0.97013007 
   10200      292.926    -1181.685    142204.29   -41002.883    4022.6332   -45025.517     99.26377   0.96935555 
   10300    293.17482   -772.54739    142304.18   -40921.122    4026.0502   -44947.173     100.5504    0.9686751 
   10400    293.64632   -1030.0758    142746.16    -40860.52    4032.5251   -44893.045    102.31667    0.9656758 
   10500    293.80337   -1173.9518    142902.01   -40851.855    4034.6818   -44886.537    103.29694   0.96462267 
   10600    291.26455   -855.59916    142897.12   -40835.121    3999.8172   -44834.938    103.77958   0.96465565 
   10700    298.79951   -937.73329    142861.68   -40846.959    4103.2917   -44950.251     104.8485   0.96489499 
   10800    292.49845   -877.80655    142854.52   -40881.836    4016.7619   -44898.598    106.30581   0.96494335 
   10900    294.38827   -921.25957    143050.95   -40742.521     4042.714   -44785.235    107.55456   0.96361831 
   11000    294.34054   -1026.9429    142944.13   -40816.914    4042.0585   -44858.972     108.4137   0.96433842 
   11100    294.24827   -1263.3143    142541.06   -40867.232    4040.7914   -44908.024    109.30946    0.9670653 
   11200     292.2776   -964.37183    142595.55   -40863.711    4013.7291    -44877.44    110.50709    0.9666958 
   11300    293.80046   -799.72936    142648.03   -40929.668    4034.6418    -44964.31    111.12307   0.96634013 
   11400    287.64435   -1113.2968    142502.98   -40939.482    3950.1024   -44889.584    111.75561   0.96732375 
   11500    286.48212   -935.95563    142323.35   -41082.589     3934.142   -45016.731    113.06728    0.9685446 
   11600    289.13249   -1051.8867    142236.16   -41119.946    3970.5385   -45090.484    114.09718   0.96913834 
   11700    290.87429   -1086.8031     142128.7   -41006.281    3994.4579   -45000.739    115.08723    0.9698711 
   11800    293.10133   -1003.8991    142308.15   -40989.428    4025.0409   -45014.469    116.35475   0.96864805 
   11900    291.02837   -987.36001    142451.54   -41049.322    3996.5738   -45045.896    117.54017   0.96767305 
   12000    291.87037   -933.19691    142324.31   -41061.837    4008.1367   -45069.974    118.44519    0.9685381 
   12100    290.38598   -973.10619     142491.8   -41005.246    3987.7522   -44992.998     119.5616   0.96739966 
   12200     296.7117   -926.50537     142702.7   -40850.015    4074.6207   -44924.636    120.43648   0.96596992 
   12300    298.86093   -1131.8894    142805.28   -40822.589    4104.1351   -44926.724    121.63241   0.96527604 
   12400    298.36468   -853.31467    142865.66   -40755.868    4097.3204   -44853.188    122.45986   0.96486811 
   12500    295.29899   -910.06127     143096.8   -40806.883    4055.2206   -44862.103    123.66068    0.9633096 
   12600    296.93792   -925.77847       142816   -40850.793    4077.7273    -44928.52    124.02907   0.96520362 
   12700    294.66973   -909.41188    143329.42    -40821.92    4046.5791   -44868.499     125.5861   0.96174615 
   12800    294.19401   -1129.4233    143274.79   -40881.281    4040.0463   -44921.327    126.47639   0.96211287 
   12900    300.73528   -940.00434    143063.65   -40888.034    4129.8749   -45017.909    127.58762   0.96353281 
   13000    293.86907   -978.30754    143129.61   -40962.762     4035.584   -44998.346    128.66941   0.96308874 
   13100     296.6326   -1033.6267    143256.58   -40947.276    4073.5344    -45020.81    129.87687   0.96223516 
   13200    292.03172   -764.14924    143607.24    -40862.14    4010.3524   -44872.493    131.52239   0.95988557 
   13300    292.42179   -818.27171    143387.82   -40859.755    4015.7092   -44875.464    132.52619    0.9613544 
   13400    293.89438   -952.01534    143163.61   -40937.326    4035.9316   -44973.257    133.37839   0.96285999 
   13500    291.77875   -949.99905    143173.42   -40930.066    4006.8785   -44936.945    134.38376   0.96279404 
   13600    290.31214   -963.52039    142949.05   -40927.976    3986.7382   -44914.715    135.59589   0.96430525 
   13700    291.91459   -1157.4022    142711.66   -40984.118    4008.7439   -44992.862    136.20807   0.96590926 
   13800    288.10494   -1160.6521    142349.85   -41000.841    3956.4276   -44957.269    136.76402    0.9683643 
   13900    288.73981   -1142.4037    142345.37   -41010.921     3965.146   -44976.067    137.82479   0.96839482 
   14000    291.58328   -1312.5052    142578.89   -41069.437    4004.1941   -45073.632    139.06651   0.96680875 
   14100    294.47147   -926.72772    142741.32   -41032.989    4043.8565   -45076.846    140.41416   0.96570855 
   14200    292.60013   -1122.9877    142966.36   -41015.672    4018.1582    -45033.83    141.56489   0.96418849 
   14300    287.14282   -1013.1858    142917.35   -41027.659    3943.2152   -44970.874    142.76579   0.96451911 
   14400    292.11064   -986.69439    142665.71   -40996.873    4011.4361   -45008.309    143.93179    0.9662204 
   14500    290.35667   -1124.1573    142694.44   -41037.807    3987.3497   -45025.156    144.66513   0.96602588 
   14600    289.87314   -908.76106    142604.14   -40927.345    3980.7095   -44908.055    146.18596   0.96663753 
   14700    295.51984   -1129.2017    142746.54   -40867.737    4058.2533    -44925.99    147.21581   0.96567327 
   14800    293.19518   -1297.4766    142448.66   -40939.774    4026.3298   -44966.103    147.98231    0.9676926 
   14900    291.97988   -1057.3923    142488.91   -40904.607    4009.6405   -44914.247    149.52456   0.96741926 
   15000    290.50631   -911.82341    142782.25   -40946.749    3989.4045   -44936.154    150.89792   0.96543175 
   15100    293.28098   -1383.1567    142595.13   -40973.594     4027.508   -45001.102    151.81195   0.96669864 
   15200    292.83655   -783.84017    142714.55   -41018.362    4021.4048   -45039.767    153.19903   0.96588971 
   15300    294.45853    -1138.406    142617.62   -40958.011    4043.6789    -45001.69    154.32262    0.9665462 
   15400    294.42312   -1201.2427    142697.73   -40859.129    4043.1926   -44902.321    156.27628   0.96600358 
   15500    290.40668   -774.37209    142539.61   -40878.378    3988.0365   -44866.414    157.51025   0.96707519 
   15600     289.8498   -910.31962    142818.28   -40924.336    3980.3889   -44904.725    159.00464   0.96518818 
   15700    292.74317   -984.71917    142731.21   -40943.035    4020.1225   -44963.158    160.26612   0.96577695 
   15800    290.35113   -919.82521    142621.47   -40955.293    3987.2735   -44942.566    161.36247   0.96652011 
   15900    293.90325   -930.53918     142417.4   -40928.953    4036.0534   -44965.007    162.69382   0.96790505 
   16000    288.26749   -1094.0347    142084.87   -40991.107    3958.6598   -44949.767    164.03725   0.97017025 
   16100    291.71591   -752.64358    142157.28   -40972.965    4006.0156   -44978.981    165.27096   0.96967607 
   16200    294.71828   -1046.3947    142381.41   -40819.535    4047.2459   -44866.781    166.33429   0.96814968 
   16300    296.04449   -908.73559    142321.21   -40805.725    4065.4582   -44871.183    167.21426   0.96855918 
   16400     296.7214   -1228.3183    142586.58    -40737.03     4074.754   -44811.784     168.8003    0.9667566 
   16500    301.01643   -794.89368    142676.51   -40762.666    4133.7358   -44896.402    170.22516   0.96614722 
   16600    297.62134   -902.48757    142963.97   -40781.913    4087.1124   -44869.026    171.55844   0.96420457 
   16700    289.24592   -1222.9107    143089.08   -40911.328    3972.0962   -44883.424    172.63235   0.96336157 
   16800    295.60656   -1019.7945    143129.25   -40897.259    4059.4443   -44956.704    173.00118   0.96309117 
   16900    297.62362   -997.02491    143079.31   -40907.505    4087.1437   -44994.649    174.34521   0.96342729 
   17000    295.43634   -1239.7884    142847.51   -40934.386    4057.1067   -44991.493    175.35539    0.9649907 
   17100    290.55366   -778.04141    142860.36   -40954.115    3990.0548    -44944.17    176.61403   0.96490386 
   17200    295.20829    -865.1955     143062.4   -40859.802    4053.9749   -44913.777    178.43181   0.96354119 
   17300    292.14812   -1000.4348    142668.34   -40844.208    4011.9508   -44856.159    179.16904   0.96620255 
   17400    292.49835   -801.79897    142447.94   -40881.696    4016.7605   -44898.456    180.36579   0.96769751 
   17500    295.85761   -1046.1676    142554.96   -40860.943    4062.8918   -44923.835    181.16521   0.96697106 
   17600    291.67823   -1042.8821    142192.29   -40963.387    4005.4981   -44968.885    181.71837   0.96943735 
   17700    295.39698   -968.97245    142238.43   -40933.799    4056.5662   -44990.365    182.59899   0.96912286 
   17800    285.82423   -868.98608    142359.69   -40965.622    3925.1075    -44890.73    183.66923    0.9682974 
   17900    298.06781   -1020.5806    142323.44    -40992.88    4093.2435   -45086.124     184.5632   0.96854404 
   18000    290.04115   -1038.3593    142384.68   -41072.475    3983.0167   -45055.492    185.85517   0.96812746 
   18100    293.02279    -913.2976    142156.92   -41075.123    4023.9624   -45099.085    186.11626   0.96967853 
   18200    290.93795   -1149.2552    142531.26   -40980.935    3995.3321   -44976.267    187.38528   0.96713185 
   18300    289.26117   -1276.8452    142414.14    -41039.08    3972.3056   -45011.386    188.51453   0.96792718 
   18400    285.82377   -1024.0862    142507.77   -41096.115    3925.1011   -45021.216    189.94759   0.96729124 
   18500    286.87044   -796.22239    142457.42   -40985.582    3939.4747   -44925.056    190.92002   0.96763314 
   18600    290.91817   -803.74333       142443   -40922.434    3995.0606   -44917.494    191.54884   0.96773109 
   18700    297.53206     -938.729    142592.59   -40840.002    4085.8863   -44925.889    192.94779   0.96671587 
   18800    295.58385   -990.37913    142494.59   -40924.236    4059.1323   -44983.368    193.80201   0.96738068 
   18900    295.06547   -1079.8973    142888.09   -40948.393    4052.0137   -45000.407    194.81178   0.96471662 
   19000    292.22244   -1185.1552    142561.96   -40942.373    4012.9715   -44955.345    196.15233   0.96692353 
   19100    291.23426    -959.5531    142408.99   -41037.006    3999.4013   -45036.408    197.79466   0.96796219 
   19200    295.38876   -1062.3568    142380.46   -40947.041    4056.4533   -45003.494    198.85199   0.96815617 
   19300    295.01123   -1060.9566    142562.29   -40920.013    4051.2688   -44971.282    200.61094   0.96692128 
   19400    297.39145   -1080.4266    142426.36   -40943.457    4083.9554   -45027.413    201.54393   0.96784415 
   19500     294.9134   -968.94406     142774.9   -40882.981    4049.9254   -44932.906    203.11675   0.96548146 
   19600    294.81561   -1161.9158    142998.68   -40892.138    4048.5824   -44940.721    204.70382   0.96397054 
   19700     294.7507   -813.60322    143114.07   -40882.263    4047.6911   -44929.954    205.67008    0.9631933 
   19800    295.99268   -886.67351    143333.71   -40862.928    4064.7467   -44927.674    207.18219   0.96171736 
   19900    295.34836   -1100.2686    143361.49   -40851.726    4055.8985   -44907.625    208.12306   0.96153103 
   20000    296.04578   -929.81144    143171.82   -40816.461    4065.4759   -44881.937     208.8253   0.96280484 
   20100    295.00741   -1104.4231    142983.89   -40843.638    4051.2163   -44894.855    209.65128   0.96407024 
   20200    298.22603     -1137.08    142969.51   -40808.076    4095.4164   -44903.492    210.96684   0.96416724 
   20300     299.2428   -973.24307    143071.52   -40778.737    4109.3792   -44888.117    212.12841   0.96347979 
   20400    297.65361   -1220.1312    142545.58    -40850.09    4087.5556   -44937.646    211.92018   0.96703468 
   20500    300.00371   -1009.7947    142393.93   -40791.809    4119.8285   -44911.638    212.55751   0.96806458 
   20600    293.43473   -801.48948    142282.32   -40869.161    4029.6193    -44898.78    213.50603   0.96882392 
   20700    293.15699   -856.11661    142722.59   -40948.894    4025.8052   -44974.699    214.57892    0.9658353 
   20800    292.83124   -1302.2647    142395.28   -40952.436    4021.3319   -44973.768    215.10929    0.9680554 
   20900    290.28196   -913.30289    142326.66   -40952.395    3986.3236   -44938.719    215.99626   0.96852208 
   21000    295.22262   -749.32422    142283.68   -40851.981    4054.1717   -44906.152    217.22666    0.9688147 
   21100    291.49166   -817.63211    142494.83   -40947.083     4002.936   -44950.019    218.59202   0.96737909 
   21200    289.36718   -984.71216    142741.84   -41035.445    3973.7614   -45009.206    219.93343   0.96570509 
   21300    288.94558   -1031.5476    142998.03    -41043.12    3967.9717   -45011.092    220.80681   0.96397496 
   21400    289.51093   -1025.1404    143125.35   -40936.797    3975.7354   -44912.532    222.15126   0.96311742 
   21500    292.45375   -1170.1363    143128.45   -40846.628     4016.148   -44862.776    223.16819   0.96309652 
   21600    291.08823   -1040.7558    143155.64   -40906.234    3997.3959    -44903.63    224.36985   0.96291363 
   21700    306.42603    -824.6669    143304.15   -40853.476    4208.0236     -45061.5    225.38059   0.96191574 
   21800    295.25875   -941.07456    143280.74   -40894.118    4054.6679   -44948.786    225.81922   0.96207291 
   21900    296.94213   -938.20891    143242.16   -40849.398    4077.7851   -44927.184    227.61727     0.962332 
   22000    297.86682   -1204.9693    142740.24   -40895.911    4090.4834   -44986.395    228.23061   0.96571588 
   22100    293.99601   -850.29799    142602.18   -40828.243    4037.3272   -44865.571    229.04353   0.96665087 
   22200    298.58385   -1005.5018    142632.99   -40785.865    4100.3301   -44886.195    230.48098   0.96644204 
   22300    297.20848   -935.52141    142881.47    -40839.03    4081.4427   -44920.473    231.98965   0.96476134 
   22400    298.86116   -984.98397    142900.84   -40946.488    4104.1383   -45050.626    232.70482   0.96463053 
   22500    293.14161   -768.95851    143167.53   -40922.451    4025.5941   -44948.045    233.97939   0.96283363 
   22600    297.03982   -965.09187    143199.07   -40921.318    4079.1267   -45000.445     235.5676   0.96262158 
   22700    292.08452   -1173.4431    143058.99   -40948.354    4011.0775   -44959.431    236.62314   0.96356416 
   22800    288.98952    -904.8421    142909.85   -41020.802    3968.5752   -44989.377    237.71754   0.96456974 
   22900    293.67999   -892.86687    142878.68   -41019.531    4032.9875   -45052.519    238.64996   0.96478017 
   23000    297.08411   -932.09573    142790.86   -40917.374    4079.7348   -44997.108    239.80152   0.96537354 
   23100    294.97245   -1066.1812    142810.12   -40916.101    4050.7362   -44966.837    240.66559   0.96524333 
   23200    291.98471    -828.1093    142214.45   -40982.705    4009.7068   -44992.412    240.63072   0.96928627 
   23300    292.18145   -1021.8915    142731.44    -41000.67    4012.4087   -45013.079    242.01627   0.96577541 
   23400    286.77969   -875.74498    142709.99   -41003.319    3938.2285   -44941.547    242.87377   0.96592058 
   23500    298.73403   -850.70117    142904.19   -40932.882    4102.3926   -45035.274    244.97387   0.96460797 
   23600    292.16271   -1031.5995    142823.51   -41005.632    4012.1513   -45017.783    246.16404   0.96515281 
   23700     286.1341   -722.40132    142907.13   -40982.729    3929.3629   -44912.092     247.0523   0.96458809 
   23800    293.88551   -1238.2055    142771.82   -40981.978    4035.8098   -45017.788    247.83957   0.96550229 
   23900    287.72461   -1254.4019    142624.16   -40875.206    3951.2046    -44826.41    248.58981   0.96650188 
   24000    293.16729   -904.32862     142572.5   -40847.545    4025.9468   -44873.492    250.01494    0.9668521 
   24100    299.11114   -1055.5419    142480.25    -40844.51    4107.5712   -44952.082    250.88675   0.96747807 
   24200    295.31982   -932.10139    142444.73   -40791.602    4055.5065   -44847.108    252.19228   0.96771933 
   24300    297.88315   -961.76873    142924.55   -40834.331    4090.7077   -44925.039    254.57958   0.96447056 
   24400    294.55816   -988.95596    142793.76   -40823.001     4045.047   -44868.048    255.83962   0.96535394 
   24500    291.46771   -1113.0851    142741.04   -40881.506    4002.6071   -44884.113    256.74541    0.9657105 
   24600    299.48217   -1213.7314    142822.56   -40886.146    4112.6664   -44998.812    257.88385   0.96515927 
   24700    297.29015   -1073.9274    142811.08   -40862.722    4082.5644   -44945.286    258.79315   0.96523687 
   24800    296.67886   -948.39676    142820.89   -40857.848    4074.1698   -44932.018    260.30529   0.96517052 
   24900     290.7344   -1153.3192    142755.68   -40962.981    3992.5369   -44955.518    261.65093   0.96561142 
   25000    292.83832   -943.06494    143092.81   -40971.648    4021.4291   -44993.077    263.14289   0.96333643 
   25100    292.21313   -955.89807    143292.16   -40976.925    4012.8436   -44989.768     264.9845   0.96199619 
   25200    292.90737   -1270.9534    143507.93   -41023.413    4022.3773    -45045.79     266.7451   0.96054982 
   25300    293.18575   -1071.9166    143270.93   -41043.488    4026.2002   -45069.688    267.68743   0.96213876 
   25400    302.27599   -821.15673    143202.33   -41031.269    4151.0328   -45182.302    268.79256   0.96259966 
   25500    288.97518   -1125.0038    142842.17   -41082.226    3968.3782   -45050.604    268.97308   0.96502678 
   25600    287.64923   -1137.7902    142557.03   -41132.618    3950.1694   -45082.787    270.06149     0.966957 
   25700    288.96518    -871.9179    142594.66   -41113.759    3968.2408       -45082    271.06351   0.96670181 
   25800    287.16211   -1044.3586    142400.58   -41142.562    3943.4801   -45086.042    271.18643   0.96801936 
   25900    289.20335   -747.09269    142422.68   -41193.487    3971.5116   -45164.998    271.56457   0.96786913 
   26000    295.96379   -965.03814    142516.09   -41042.507      4064.35   -45106.857    272.64348   0.96723475 
   26100    293.03761   -1027.8343    142736.81   -41059.236    4024.1658   -45083.402    273.73289   0.96573911 
   26200    291.31209   -990.50558    142549.83   -40953.891      4000.47   -44954.361    274.28024   0.96700581 
   26300    286.68951   -1112.9521    142746.86   -40910.963      3936.99   -44847.953    275.72294   0.96567108 
   26400    292.22796   -980.37705     142662.7   -40942.748    4013.0474   -44955.795    276.17325   0.96624078 
   26500    300.46435   -1080.1533    142385.01   -40802.012    4126.1543   -44928.166    277.49913   0.96812523 
   26600    292.78684   -935.51181    142479.13   -40893.854    4020.7222   -44914.576    278.57412   0.96748566 
   26700    295.58181   -888.72468    142800.75   -40876.702    4059.1043   -44935.807    279.86726   0.96530665 
   26800    289.22376   -1039.4826    142997.28   -40864.486    3971.7919   -44836.277    281.11051   0.96397996 
   26900    289.94195   -1015.5986    142876.71   -40935.411    3981.6545   -44917.066    282.23736   0.96479348 
   27000    295.01613   -1093.2623    143106.54   -40952.351    4051.3361   -45003.687    283.86792   0.96324403 
   27100     291.8958   -939.48405    143046.67   -40880.742    4008.4859   -44889.227    284.53466   0.96364717 
   27200    293.61764   -1119.7881    142690.22    -40849.22    4032.1312   -44881.351    284.56212   0.96605441 
   27300    300.64762   -1097.4022    142673.77   -40857.372    4128.6711   -44986.043    285.76397   0.96616578 
   27400     300.5532   -725.65389    143028.71   -40771.701    4127.3744   -44899.075    287.27344   0.96376814 
   27500     296.1459   -732.92015    143168.35    -40861.37    4066.8508   -44928.221    288.64068   0.96282813 
   27600    296.85907   -984.50163    143385.73   -40779.023    4076.6445   -44855.667    290.73891   0.96136846 
   27700    297.63719   -1130.1028    143181.79   -40826.095      4087.33   -44913.425     291.2925    0.9627378 
   27800     297.4963   -938.52661    143012.76   -40834.759    4085.3953   -44920.154    291.83105   0.96387566 
   27900     295.4313   -822.82083    143062.31   -40817.647    4057.0375   -44874.684    292.93162   0.96354182 
   28000    293.60268    -1172.814    142966.68   -40738.764    4031.9257   -44770.689    293.44427   0.96418633 
   28100    295.56043   -1128.1959    142859.08   -40799.927    4058.8108   -44858.738    294.34137   0.96491256 
   28200     288.1962   -1022.3348    142700.98   -40969.539    3957.6808    -44927.22    294.75486   0.96598156 
   28300     292.4995   -928.86623    142807.27   -40977.952    4016.7763   -44994.728     296.0382   0.96526262 
   28400    295.25875   -941.16811    142895.29    -40841.36    4054.6679   -44896.028    297.92781   0.96466805 
   28500    288.96471   -956.76201    142646.12   -40878.335    3968.2345    -44846.57    297.89535    0.9663531 
   28600    288.93294   -926.08118    142546.08   -40913.839    3967.7982   -44881.638    298.93738   0.96703125 
   28700    292.24069   -760.16968    142816.51   -40969.067    4013.2221   -44982.289    300.60943   0.96520015 
   28800    294.73616   -1099.5513    143143.04   -40893.612    4047.4915   -44941.103    301.92097   0.96299841 
   28900     290.8657   -1093.7489    142948.57   -40912.824      3994.34   -44907.164    302.95243   0.96430849 
   29000    293.88641    -971.8782    142921.92   -40896.036    4035.8221   -44931.858    304.48965   0.96448828 
   29100    291.95349   -1039.1435    142724.84   -40895.081    4009.2781   -44904.359    305.30864   0.96582006 
   29200    293.28226   -1182.6888    142458.05   -40970.141    4027.5256   -44997.666    306.48333   0.96762883 
   29300    296.43902   -1009.7034    142757.66   -40983.884    4070.8761    -45054.76    308.01312   0.96559803 
   29400    290.46865   -1157.1732    143078.15   -40997.414    3988.8874   -44986.301    309.20324   0.96343511 
   29500    289.57292   -1096.1453    143289.31   -40986.317    3976.5867   -44962.904    310.66881   0.96201536 
   29600    294.95749   -819.40175    143531.65    -40947.44    4050.5309   -44997.971    312.25905   0.96039108 
   29700     291.2967   -1336.1253    143473.67   -40898.526    4000.2587   -44898.785    312.71799   0.96077916 
   29800    297.50367   -779.25013    143037.89   -40852.027    4085.4965   -44937.524    312.84931   0.96370631 
   29900    294.30846   -1129.5393    142926.34    -40875.59     4041.618   -44917.208    313.11925   0.96445847 
   30000    294.65586    -1044.067    143004.82   -40900.545    4046.3887   -44946.933    313.92309   0.96392915 
   30100    296.93834   -1227.5026    142611.13   -40873.788    4077.7331   -44951.521    313.87451    0.9665902 
   30200    290.10819   -883.27376    142852.57   -40921.208    3983.9374   -44905.145    315.00925   0.96495652 
   30300    298.86663     -965.611    142958.19   -40827.039    4104.2135   -44931.253    316.56701   0.96424361 
   30400    290.41742   -1094.0987       142773   -41003.136    3988.1839    -44991.32    316.68341   0.96549431 
   30500     289.0172    -890.3091    142907.11   -41000.506    3968.9553   -44969.462    318.03832   0.96458826 
   30600    289.34884   -1052.8218    143143.34   -41014.682    3973.5095   -44988.191    319.14131   0.96299639 
   30700     288.7187   -822.35376    143359.28   -40966.567     3964.856   -44931.423    320.29679   0.96154585 
   30800    295.31831   -955.88905    143204.08   -40885.665    4055.4858    -44941.15    321.51164   0.96258792 
   30900    290.78595   -972.74509     142912.3   -40931.821    3993.2448   -44925.066    322.49932   0.96455318 
   31000    292.37977   -1019.9669     142880.5   -40893.888     4015.132    -44909.02    323.13433   0.96476786 
   31100    287.28751   -1053.8744    142860.97   -41046.556    3945.2021   -44991.758    324.18441   0.96489979 
   31200    287.47203     -964.502    143088.16   -41064.619    3947.7361   -45012.355    325.45532   0.96336773 
   31300     281.4443   -1193.8213    142827.43   -41028.757    3864.9598   -44893.717    325.99976   0.96512634 
   31400    288.04665    -1065.491    142435.25    -41020.97     3955.627   -44976.597    326.83158   0.96778374 
   31500    296.47479   -815.26538    142925.26   -40910.407    4071.3673   -44981.774    328.19053   0.96446572 
   31600    292.31624   -1195.9632    142747.34   -40947.408    4014.2596   -44961.667    328.85803   0.96566784 
   31700    289.47364   -1106.6565    142852.72   -40937.016    3975.2234   -44912.239    329.87536    0.9649555 
   31800    295.33039   -1149.5458    142742.31    -40918.91    4055.6517   -44974.562    330.75188   0.96570185 
   31900    288.52653    -867.3047    142251.72   -40905.217     3962.217   -44867.434    330.71924   0.96903235 
   32000    297.48488     -1155.47    142247.67    -40836.67    4085.2384   -44921.909    332.10678   0.96905993 
   32100    289.03244   -1058.2934     142072.9   -40912.944    3969.1645   -44882.108     332.6182   0.97025198 
   32200    292.94043   -872.52266    142462.36   -40869.651    4022.8314   -44892.482     334.2884   0.96759953 
   32300    291.59486   -999.69141    142282.27   -40883.665    4004.3532   -44888.018    334.51774   0.96882425 
   32400     294.2014   -978.67532    142508.02   -40791.303    4040.1477   -44831.451    336.12593   0.96728953 
   32500    292.63139   -1115.1136    142522.81   -40898.206    4018.5874   -44916.794    337.67342   0.96718917 
   32600    295.41491   -861.01129    142481.47   -40917.253    4056.8124   -44974.065    338.61233   0.96746978 
   32700    289.17917   -1059.4072    142488.73   -40919.861    3971.1795   -44891.041    340.32291   0.96742049 
   32800    288.86425   -918.74319    142429.85   -41004.032    3966.8549   -44970.887    340.62476   0.96782039 
   32900    287.51553   -811.05742    142588.29    -41083.82    3948.3334   -45032.154    341.70699   0.96674502 
   33000    293.17962    -1136.865    142560.91   -41079.271    4026.1161   -45105.387    342.58753   0.96693068 
   33100    288.85002   -839.03607    142592.57   -41078.457    3966.6594   -45045.116     343.7445   0.96671598 
   33200    295.79213   -1112.2902    142833.84   -40991.785    4061.9926   -45053.778    344.96566   0.96508306 
   33300    294.29384   -953.72404    142975.87   -40930.068    4041.4172   -44971.485    345.48915   0.96412435 
   33400     285.3556   -945.18417    143304.83   -40952.719     3918.672   -44871.391     347.2661   0.96191114 
   33500     296.0355   -1191.9501    143530.61   -40843.411    4065.3347   -44908.745     348.9002   0.96039804 
   33600    294.15113   -895.38682    143146.62   -40888.879    4039.4575   -44928.337    349.44227   0.96297429 
   33700    289.39845   -1036.8683    143035.17    -40907.56    3974.1908   -44881.751     350.3154   0.96372466 
   33800    295.39764   -1164.3315    142896.34   -40836.428    4056.5753   -44893.004    350.21921   0.96466091 
   33900    291.94795   -981.76606    142515.72   -40903.744    4009.2021   -44912.946    350.73261   0.96723728 
   34000     287.9209   -756.80394    142335.81   -40924.866    3953.9002   -44878.766    351.63026   0.96845986 
   34100    292.49195   -1008.2703    142492.72   -40995.129    4016.6725   -45011.802    352.79595    0.9673934 
   34200    299.65155   -920.31965    142281.99   -40961.669    4114.9924   -45076.662    353.68265   0.96882617 
   34300    291.08352   -1132.6705    142113.06   -40963.269    3997.3312     -44960.6    353.95701   0.96997783 
   34400    299.59506   -988.07395    142105.11   -40842.444    4114.2168   -44956.661    354.95491   0.97003211 
   34500    292.83418   -775.15291    142174.55   -40800.842    4021.3722   -44822.214    355.98893   0.96955832 
   34600    293.31203   -891.43627    142503.03   -40849.663    4027.9344   -44877.598    357.79999   0.96732339 
   34700    296.66096   -882.13424    142644.79   -40902.289    4073.9239   -44976.213    359.29223   0.96636211 
   34800    291.55959     -1139.49    142667.98   -40968.955    4003.8688   -44972.824    360.42666   0.96620503 
   34900    291.91136   -1127.3416    142613.27   -40962.804    4008.6995   -44971.504    361.17195   0.96657566 
   35000    288.20928   -1255.9798    142553.81   -41031.369    3957.8604    -44989.23     361.8723   0.96697882 
   35100    288.25675   -994.89296    142436.76    -40964.38    3958.5123   -44922.893    362.84727   0.96777349 
   35200     300.4825   -882.46275    142720.26   -40746.698    4126.4036   -44873.102    364.79327   0.96585105 
   35300    289.43674   -843.31795    142602.64   -40839.533    3974.7166   -44814.249     366.1456   0.96664775 
   35400     293.4474   -870.11671    142456.22   -40946.312    4029.7933   -44976.105    366.49892   0.96764126 
   35500    296.64283   -983.59722    142555.94   -40939.244    4073.6749   -45012.919     368.2098   0.96696441 
   35600    290.31404   -1031.2537    142960.19   -40931.116    3986.7642   -44917.881    369.41046   0.96423011 
   35700    295.66936   -1169.7816    142688.96   -40891.985    4060.3067   -44952.292    369.32834   0.96606297 
   35800    291.37413   -1042.6998     142763.5   -40954.753    4001.3221   -44956.075    371.63344   0.96555856 
   35900    292.05574   -804.25609    143079.04   -40905.273    4010.6823   -44915.955     373.1306   0.96342916 
   36000    292.29275   -859.38498     143376.4   -40936.998     4013.937   -44950.935    374.77252   0.96143099 
   36100    293.03445   -1082.5067    143274.55   -40959.843    4024.1225   -44983.966    375.36952   0.96211444 
   36200    288.75322   -1009.7739    143195.11   -40918.556    3965.3301   -44883.886    376.61954   0.96264824 
   36300    290.23214   -1164.9938    142905.08   -40947.777    3985.6396   -44933.416    377.07379   0.96460194 
   36400    291.75143   -894.95192    142601.42   -40836.648    4006.5033   -44843.151      377.487   0.96665598 
   36500    300.73709   -894.81358    142811.25   -40778.408    4129.8998   -44908.307    378.92753   0.96523567 
   36600     297.0364    -1088.637    142838.37    -40934.61    4079.0797    -45013.69    381.20225   0.96505246 
   36700    288.71266   -1069.9543     142890.2   -40937.032    3964.7732   -44901.805    381.70702   0.96470241 
   36800    291.35586     -1023.73    142585.69   -41003.803    4001.0711   -45004.874    382.75528   0.96676265 
   36900    284.46885   -922.44284    142566.59   -41092.511    3906.4946   -44999.006    383.33153   0.96689217 
   37000     291.7138   -1025.3091    142844.12   -41011.487    4005.9865   -45017.473    384.79975   0.96501359 
   37100    290.91926   -938.34959    143014.75   -41011.727    3995.0755   -45006.802    385.59445   0.96386225 
   37200    293.38568   -950.01059    143052.69    -40995.22    4028.9458   -45024.166    386.79197   0.96360659 
   37300    290.88421   -1071.4476    142829.38   -40992.353    3994.5941   -44986.947    387.86659   0.96511316 
   37400    291.06856   -1053.7328    142652.67   -41088.446    3997.1257   -45085.572    388.01216   0.96630873 
   37500    292.38043   -1109.3126    142765.46   -41119.177    4015.1411   -45134.318    388.78632   0.96554529 
   37600    285.80623   -1017.7586    142469.65   -41101.502    3924.8603   -45026.362    389.39282   0.96755003 
   37700    291.35676   -960.66723    142708.19   -41086.171    4001.0835   -45087.254     390.8588   0.96593277 
   37800    290.91137    -771.7282    142989.91   -41083.997    3994.9671   -45078.964    391.79991   0.96402967 
   37900    285.10555   -1314.7998    142921.41   -41166.652    3915.2382    -45081.89    392.49139   0.96449173 
   38000      289.894   -1125.5463    142631.85   -41106.258    3980.9959   -45087.254    392.93719   0.96644978 
   38100    290.29132   -1109.4219     142495.8   -41123.606    3986.4522   -45110.058     394.1194    0.9673725 
   38200    291.70587   -1148.0853    142520.94   -41102.214    4005.8776   -45108.092    395.53111   0.96720185 
   38300    284.20972   -1027.7461    142149.55   -41180.444     3902.936    -45083.38    396.63566   0.96972885 
   38400    286.86135   -1064.6967    142535.69   -41199.277    3939.3498   -45138.627     398.4186   0.96710179 
   38500    283.86515   -1082.9073    142491.94    -41192.62    3898.2043   -45090.825    398.88131    0.9673987 
   38600    297.36665   -745.32298    142565.88   -41062.007    4083.6149   -45145.622    399.87795   0.96689697 
   38700    291.48773   -893.22329    142859.05    -41072.39     4002.882   -45075.272    401.53131   0.96491274 
   38800    290.13978   -954.46634    142893.88   -40984.903    3984.3712   -44969.274    402.90035   0.96467757 
   38900    302.46351   -992.71281    143025.92    -40894.37    4153.6079   -45047.978    404.28812   0.96378696 
   39000    293.77405    -912.7295    142937.44   -40974.928    4034.2791   -45009.207    405.03981   0.96438358 
   39100    293.21808    -935.7977    142890.77   -40998.194    4026.6442   -45024.838    405.90373   0.96469852 
   39200    295.95331   -1043.3974    143222.37   -40967.398    4064.2061   -45031.605    407.18522   0.96246502 
   39300    287.76025   -902.09137    143143.47    -40988.92    3951.6941   -44940.614    408.33871   0.96299552 
   39400    291.66309   -1049.1884    143054.96   -40979.941    4005.2902   -44985.231    409.75583   0.96359128 
   39500    291.32479   -939.86979    143394.34   -40869.833    4000.6445   -44870.478    411.34815   0.96131072 
   39600    300.76562   -1099.1398    143189.98   -40882.885    4130.2915   -45013.176    412.41265   0.96268269 
   39700    291.21943   -1052.1697    143198.83   -40970.017    3999.1976   -44969.214    413.80945   0.96262322 
   39800     292.8321   -1014.5319     142967.7   -40926.158    4021.3438   -44947.501    414.22941   0.96417944 
   39900    286.57427     -1011.01    142847.65   -41121.499    3935.4076   -45056.907    415.22355   0.96498974 
   40000    296.20517   -851.92567    142837.73   -41015.281    4067.6647   -45082.946    415.95991   0.96505674 
   40100    288.40991   -899.09459    142583.43    -41010.32    3960.6156   -44970.936     416.3889   0.96677794 
   40200    296.95399    -843.0935    142659.83   -40892.266    4077.9479   -44970.214    417.84463   0.96626021 
   40300    292.81233   -1007.5024     142853.3   -40892.626    4021.0722   -44913.699    419.62718    0.9649516 
   40400     292.9697   -1071.9857    143117.43   -40918.483    4023.2334   -44941.716    421.85393   0.96317073 
   40500    291.52286   -1066.6876    143152.11   -40923.938    4003.3645   -44927.302    422.41217   0.96293741 
   40600    294.35843   -951.49809     142947.3   -40937.362    4042.3042   -44979.666    423.62841   0.96431706 
   40700    293.44059    -997.3485    142646.48   -40983.909    4029.6998   -45013.609    423.54527   0.96635063 
   40800    287.65595   -1054.1208    142775.33   -41036.208    3950.2617    -44986.47     424.5677   0.96547851 
   40900    287.67749   -764.53617    142581.95     -41029.8    3950.5576   -44980.357    425.07347   0.96678796 
   41000    289.26165   -943.87439    142744.27   -40992.566    3972.3122   -44964.878    426.15524   0.96568863 
   41100    292.67475   -996.86266    143174.11   -40976.135     4019.183   -44995.317    428.09252   0.96278941 
   41200    294.86623   -1302.9112    142818.72   -40868.737    4049.2776   -44918.014    428.36787    0.9651852 
   41300     289.8749   -948.88604    142793.38   -40997.585    3980.7337   -44978.318    430.00252   0.96535648 
   41400    290.71427   -1017.9543    143008.25   -40983.616    3992.2605   -44975.877    431.73181   0.96390604 
   41500    293.62686   -1106.7774    142972.41   -40984.193    4032.2578   -45016.451    431.99604   0.96414771 
   41600    294.61326   -1162.5192    143271.44   -40895.674    4045.8036   -44941.478    433.70759   0.96213532 
   41700    286.91986    -1349.889    142928.94   -41072.262    3940.1534   -45012.415    434.37671   0.96444093 
   41800    295.99027   -1281.7524    142967.64   -40985.571    4064.7136   -45050.284     435.7675   0.96417983 
   41900    293.05498   -944.66939    142805.79   -40923.373    4024.4045   -44947.777    436.50455   0.96527261 
   42000    292.14907   -1202.2215    142878.73   -40959.597    4011.9639   -44971.561    437.58708   0.96477983 
   42100    295.84281   -1068.6963    142611.58    -40991.39    4062.6885   -45054.078    437.56871   0.96658715 
   42200     290.3209   -1293.3517     142616.5   -40933.717    3986.8585   -44920.575    438.11204   0.96655378 
   42300    289.15029   -894.79542    142356.31   -41014.123     3970.783   -44984.906    438.00747   0.96832039 
   42400    291.68069   -1108.6049    142498.24   -40994.957    4005.5319   -45000.489    439.23183    0.9673559 
   42500    291.78132   -1165.3256    142257.41    -40993.04    4006.9138   -44999.954    439.77827   0.96899355 
   42600    289.91573   -968.16376    142203.85   -40999.397    3981.2944   -44980.691    440.96612   0.96935851 
   42700    289.63395   -1059.9596    142214.56    -41046.09    3977.4248   -45023.515    442.31671   0.96928553 
   42800    290.57558   -944.92166    142273.64   -41097.712    3990.3558   -45088.068    443.30945   0.96888307 
   42900    289.46769    -1188.565    142463.31   -41022.807    3975.1417   -44997.948    445.16622   0.96759313 
   43000    289.48193   -1230.8454    142121.32   -40973.923    3975.3372    -44949.26    445.99482   0.96992145 
   43100    295.40203   -942.72702    141823.76   -40977.362    4056.6355   -45033.998    446.48491   0.97195641 
   43200    297.72718   -1032.4646    141921.69    -40998.28    4088.5658   -45086.846    447.92191   0.97128573 
   43300    294.66823   -787.63997    142142.01   -41003.002    4046.5586   -45049.561    449.50259   0.96978029 
   43400    290.35829   -818.38817    142446.35   -41054.578    3987.3718    -45041.95    451.08235   0.96770831 
   43500    297.91743   -1197.4259    142738.03    -41009.19    4091.1784   -45100.369    452.59659   0.96573081 
   43600    295.17461    -1388.601    142613.44   -41032.219    4053.5124   -45085.732    453.40719    0.9665745 
   43700    294.62372   -712.92006    142452.62    -41032.43    4045.9474   -45078.378    454.73977   0.96766571 
   43800    296.19686   -865.58959    142375.67   -40911.544    4067.5507   -44979.095     455.7935   0.96818873 
   43900    288.51707   -869.45067    142459.29   -41026.353    3962.0872    -44988.44    456.62863    0.9676204 
   44000    287.66822    -867.0476    142403.06   -40952.678    3950.4303   -44903.109    457.74268   0.96800251 
   44100    297.89721   -894.76869     142786.5    -40850.26    4090.9008   -44941.161    460.17529   0.96540301 
   44200    295.54145   -1253.5297    142426.54   -40960.145    4058.5501   -45018.695    460.22746   0.96784288 
   44300    291.81621   -1126.4123    142132.98   -41112.278     4007.393   -45119.671    460.51619   0.96984189 
   44400    290.29372   -1036.9995    142070.26   -41099.261    3986.4852   -45085.746    460.99626   0.97027003 
   44500    291.99708   -939.11607    142100.93   -41130.023    4009.8768     -45139.9    461.42096   0.97006064 
   44600    285.74917   -723.12865    142479.69   -41089.498    3924.0768   -45013.575    463.09055   0.96748184 
   44700    287.68491   -967.96307    142627.76   -41176.801    3950.6595   -45127.461    464.61215   0.96647746 
   44800    291.76808   -819.48764    142724.78   -41068.401    4006.7319   -45075.133    465.97469   0.96582046 
   44900    286.89399   -1084.4104    142588.93   -41077.212    3939.7981    -45017.01    466.30699   0.96674065 
   45000    289.14732    -950.2331    142464.97   -41045.746    3970.7421   -45016.488    467.70898   0.96758183 
   45100    290.05594    -816.2629    142567.43   -40954.382    3983.2199   -44937.602    469.08368   0.96688646 
   45200    293.69816   -1058.1466    142744.81   -40998.699     4033.237   -45031.936    470.97929   0.96568498 
   45300    290.69928   -1304.3047     142774.1   -41029.082    3992.0546   -45021.137    471.19445   0.96548684 
   45400    287.43542   -993.69763    142887.28   -41066.405    3947.2333   -45013.638    472.52117   0.96472209 
   45500    293.89569   -1344.6514    142806.22   -40994.483    4035.9496   -45030.432    473.61997   0.96526969 
   45600    288.68834   -958.90142    142476.57    -41045.43    3964.4392   -45009.869    474.15185   0.96750304 
   45700     293.6858   -959.99641    142541.83   -40988.371    4033.0673   -45021.438    475.62777   0.96706013 
   45800    293.14761   -1148.0741    142598.23   -40968.565    4025.6765   -44994.241    475.56545   0.96667759 
   45900    288.32251   -848.08226    142696.13   -40940.035    3959.4153    -44899.45    477.22407   0.96601437 
   46000    295.34979   -1214.5636    142731.01   -41003.657    4055.9181   -45059.575    478.80727   0.96577834 
   46100    293.34742   -1088.0605    142598.32   -40959.194    4028.4204   -44987.614    479.33724   0.96667702 
   46200     294.0137   -948.93996    142575.23   -40941.106    4037.5702   -44978.676    480.29619   0.96683353 
   46300    290.79847   -1033.6354    142716.24   -40922.224    3993.4166    -44915.64    482.21432   0.96587826 
   46400    291.37914   -686.27554    142638.83    -40912.13    4001.3908   -44913.521    483.15883   0.96640248 
   46500    295.13871   -1188.0126     142808.8   -40844.087    4053.0194   -44897.106     485.0586   0.96525225 
   46600    293.41547   -868.89231    142724.59   -40791.414    4029.3549   -44820.768    486.19293   0.96582175 
   46700    293.13673   -1097.2886    142861.65   -40780.368    4025.5271   -44805.895    488.03246   0.96489518 
   46800     301.9341   -1224.6907    142981.16    -40761.77    4146.3378   -44908.108    489.69601   0.96408864 
   46900     300.5863   -967.25953    142860.76    -40793.56    4127.8291   -44921.389    490.16233   0.96490118 
   47000     290.4733    -1129.165    143126.03   -40857.569    3988.9513    -44846.52    492.44213   0.96311283 
   47100    295.53849   -765.18925    143115.86   -40823.698    4058.5095   -44882.208    492.95569   0.96318125 
   47200    296.82126    -1207.877    143197.44   -40871.341    4076.1252   -44947.466    493.23509   0.96263252 
   47300    294.15469   -1138.7684    143147.01   -40839.372    4039.5063   -44878.879    494.29325   0.96297169 
   47400    296.34193   -809.21028    142957.47   -40798.421    4069.5427   -44867.964    494.88765   0.96424844 
   47500    297.10756   -1240.9705    142919.67   -40908.398    4080.0569   -44988.454    495.65504    0.9645035 
   47600    292.76818   -817.37058    142945.58   -40847.183    4020.4659   -44867.649    496.04774   0.96432865 
   47700     301.4655   -933.13955     143445.1   -40907.083    4139.9026   -45046.986    498.63648   0.96097052 
   47800    293.66394   -1017.0653    143190.98   -40957.295    4032.7671   -44990.062    498.81474   0.96267597 
   47900    291.60034   -1186.3875    142941.38   -40947.955    4004.4285   -44952.383     499.7235   0.96435699 
   48000    291.39966    -897.3249    142993.06   -40983.443    4001.6727   -44985.116    500.48519   0.96400847 
   48100     290.7289   -1292.4892    143022.33   -41048.503    3992.4613   -45040.964    501.20977   0.96381115 
   48200    292.36971   -957.70203    142842.72   -40961.235    4014.9939   -44976.229    501.78989   0.96502305 
   48300     296.6055   -1046.8446    143367.42   -40929.265    4073.1623   -45002.427    503.75571    0.9614912 
   48400    293.19265   -888.77243    143431.99   -40928.915     4026.295    -44955.21    505.03501   0.96105838 
   48500    293.57873   -1134.5076    143552.12   -41004.425    4031.5969   -45036.022    506.56914   0.96025412 
   48600     293.2082   -1292.1446    143434.91   -40993.094    4026.5086   -45019.602    507.26969   0.96103879 
   48700    291.16504   -1157.9655    143121.15   -41049.923    3998.4507   -45048.373    508.28634    0.9631457 
   48800    296.03588   -1039.0103    142819.93   -41070.462      4065.34   -45135.801    507.45993   0.96517706 
   48900    291.23834   -977.74239    142436.93   -41035.426    3999.4573   -45034.883    506.91219   0.96777229 
   49000    292.56913   -1026.1298    142587.89   -40992.899    4017.7325   -45010.631     507.5553   0.96674774 
   49100    295.80798   -1122.2431    142474.39   -41034.981    4062.2103   -45097.191    507.44601   0.96751786 
   49200    295.20797   -1242.9788    142150.48   -41131.648    4053.9705   -45185.619    507.50231   0.96972246 
   49300    294.49465   -1095.6811    142186.09   -41108.373    4044.1749   -45152.548    508.36667   0.96947964 
   49400    290.27884   -809.40772    142033.97   -41050.536    3986.2809   -45036.817    508.92729   0.97051797 
   49500    287.71514   -909.73227    142259.46   -41011.342    3951.0746   -44962.416    510.48041   0.96897959 
   49600    292.18249   -1111.9571    142427.08   -40976.231    4012.4229   -44988.654    512.49229   0.96783923 
   49700    291.90918    -1211.677    142359.83   -40956.129    4008.6697   -44964.799    513.34831   0.96829644 
   49800    293.28733   -1031.1256    142202.49   -40919.238    4027.5952   -44946.833      514.646   0.96936784 
   49900    291.11345   -765.41041    142423.54   -41009.302    3997.7423   -45007.044    515.43666    0.9678633 
   50000    291.86979   -1087.6587    142831.79   -41062.122    4008.1287   -45070.251    518.73134   0.96509689 
   50100    288.73984   -952.27021    142609.64   -41093.414    3965.1463    -45058.56    519.66984   0.96660028 
   50200    291.55381   -1102.7645    143098.36   -41047.268    4003.7895   -45051.057    522.27675   0.96329906 
   50300    294.65274   -1098.0401    143024.08   -40993.633    4046.3458   -45039.979    522.49947   0.96379934 
   50400    286.07726   -734.11134     142928.7   -41025.716    3928.5823   -44954.298    524.12041   0.96444253 
   50500    287.97384    -1052.272    143172.84   -41008.564    3954.6273   -44963.191    525.37195   0.96279797 
   50600    288.42309   -963.78781    142864.96   -41035.647    3960.7966   -44996.444    526.31882   0.96487282 
   50700    296.85543   -1093.6688    143043.49   -40903.224    4076.5944   -44979.819    528.35235   0.96366855 
   50800    299.49169   -930.27298    142831.07    -40900.38    4112.7972   -45013.178    528.04809   0.96510173 
   50900    295.79597    -1112.493    142877.38   -40959.833    4062.0453   -45021.878    529.34182   0.96478892 
   51000    296.04994   -1002.6084    143064.35   -41025.481    4065.5331   -45091.014    529.59306   0.96352807 
   51100     291.9618    -1045.328     142824.8   -41002.453    4009.3922   -45011.846    529.64579   0.96514416 
   51200    294.34716   -1000.2516    142954.02   -40901.073    4042.1494   -44943.223    529.66732   0.96427169 
   51300    294.57852   -885.33699    142785.68   -40809.826    4045.3266   -44855.152     530.9789   0.96540854 
   51400    292.36973    -1081.074    142634.74   -41017.633    4014.9942   -45032.627    532.70137   0.96643014 
   51500    289.70009   -853.40282    142969.85   -41061.657    3978.3331    -45039.99    534.50044   0.96416497 
   51600    288.73882   -963.43564    142945.96   -41023.752    3965.1323   -44988.884    535.24915   0.96432606 
   51700    294.45831   -1179.5668    142995.92   -40965.402    4043.6758   -45009.078    535.55479   0.96398918 
   51800    292.97035   -1269.8253    143166.66   -41115.914    4023.2423   -45139.156    537.25563    0.9628395 
   51900     289.0942   -1001.1811    142891.06    -41169.26    3970.0126   -45139.273    536.91951   0.96469658 
   52000    290.35674   -1045.0339    142970.06   -41114.533    3987.3506   -45101.884    536.91368   0.96416354 
   52100     289.4701   -1014.5972    142988.28   -41128.662    3975.1747   -45103.837    537.36958   0.96404069 
   52200    288.48836   -816.40223    143008.61    -41114.26    3961.6929   -45075.953    538.87505   0.96390359 
   52300    290.07139   -910.54424    143026.36   -41084.583     3983.432   -45068.015    539.86171   0.96378399 
   52400    293.74441   -1302.8417    142872.68   -40972.823    4033.8721   -45006.696    541.66298   0.96482071 
   52500    296.26468   -836.78142     142688.4   -40959.089     4068.482   -45027.571    542.00778   0.96606672 
   52600     289.7895   -701.69315    142656.66   -41078.764     3979.561   -45058.325    543.41971   0.96628169 
   52700    290.04691   -889.04986    142745.04   -41082.745    3983.0958   -45065.841    544.51543   0.96568341 
   52800     287.3258   -949.60584    142765.23   -41096.557     3945.728   -45042.285    545.07158   0.96554684 
   52900    287.25877   -868.35236     142757.4   -41139.775    3944.8075   -45084.583    545.73221   0.96559978 
   53000    290.33149   -1101.9255    142720.41   -41194.217    3987.0039   -45181.221    547.07332   0.96585006 
   53100    283.92968   -944.86775    142990.28   -41193.274    3899.0904   -45092.365    548.84835   0.96402716 
   53200     290.4789   -759.52284     143227.5   -41034.511    3989.0282   -45023.539    550.27743   0.96243053 
   53300    291.21784   -774.51121    143200.43   -41018.103    3999.1758   -45017.279    551.90138   0.96261248 
   53400    296.01928   -1103.8563    143276.81    -40908.62     4065.112   -44973.732    554.08873   0.96209932 
   53500    297.38243   -1308.1129    142837.19    -40944.13    4083.8316   -45027.962    554.34963   0.96506044 
   53600    296.38967   -917.13346    142683.53   -40936.032    4070.1984    -45006.23    555.20218   0.96609968 
   53700    291.54254   -1001.2895    142935.83   -40972.749    4003.6347   -44976.384    557.60184   0.96439445 
   53800    288.69935   -955.13576    142916.22    -41102.42    3964.5903    -45067.01     558.4181   0.96452675 
   53900    292.01986   -1056.1787    142688.54   -41120.722    4010.1895   -45130.911    558.78421   0.96606581 
   54000    288.53915   -1024.7486       142554   -41051.624    3962.3904   -45014.014    559.13893   0.96697754 
   54100     293.1842   -940.28373     142695.5   -41007.545     4026.179   -45033.724    560.55189   0.96601867 
   54200    289.53085   -1288.6914    142585.79   -41027.045    3976.0089   -45003.054    561.98257   0.96676192 
   54300    294.43494    -1079.114       142334    -40970.21    4043.3549   -45013.565    562.41429   0.96847215 
   54400    288.62968   -975.74645    141891.77   -41067.018    3963.6336   -45030.651     562.6634   0.97149054 
   54500    293.57806   -973.05833    141825.91   -41030.987    4031.5876   -45062.575    563.41064   0.97194168 
   54600    293.78688   -1206.3873     141839.5   -41015.024    4034.4554    -45049.48    565.05034   0.97184856 
   54700    290.00213   -983.69707    141900.11   -41025.054     3982.481   -45007.535    566.34027   0.97143349 
   54800    290.33788   -990.64208    142373.11    -40992.65    3987.0916   -44979.742    568.56068   0.96820614 
   54900    291.73323   -1043.5946    142350.34   -40909.737    4006.2534   -44915.991    569.04294   0.96836098 
   55000    294.07003    -975.8171    142188.66   -40870.081    4038.3437   -44908.425    570.09022   0.96946207 
   55100    295.57804   -1106.2196     142410.1   -40859.896    4059.0526   -44918.949    571.53714   0.96795463 
   55200    294.90063   -984.42174    142525.08   -40900.006      4049.75   -44949.756    574.31478   0.96717376 
   55300    296.22914   -794.80264     142583.8   -40893.545    4067.9938   -44961.539    575.56015   0.96677547 
   55400    295.33758    -675.6406    143058.41   -40855.944    4055.7505   -44911.695    578.36491   0.96356809 
   55500    296.89563   -967.43694    143182.14   -40861.297    4077.1465   -44938.444    580.61925   0.96273541 
   55600    298.95826   -1257.2423    142881.34   -40828.496    4105.4718   -44933.968     580.5376   0.96476218 
   55700    295.20975   -901.28724    142732.75   -40872.715     4053.995    -44926.71     580.8431   0.96576655 
   55800    293.04425   -934.31276    142838.85   -40965.635    4024.2571   -44989.892    582.84896    0.9650492 
   55900    288.68364   -1063.3543    143100.83   -41077.097    3964.3746   -45041.472    584.33647   0.96328245 
   56000    283.62156   -1005.5801    142538.44   -41158.991    3894.8591    -45053.85    584.12216   0.96708308 
   56100    289.32599   -1057.0734    142304.41   -41086.452    3973.1957   -45059.648    584.55006   0.96867351 
   56200    289.23496   -1119.4543    142246.89   -41081.519    3971.9456   -45053.464    584.63442   0.96906525 
   56300    297.16065   -950.59146    142499.36   -40980.641     4080.786   -45061.427    586.11616   0.96734829 
   56400    293.50338   -872.06348    142699.73   -40880.987    4030.5621   -44911.549    587.47836   0.96599005 
   56500    298.46428   -1029.8568     142450.3   -40950.432    4098.6882    -45049.12    587.94573   0.96768147 
   56600    292.12751   -895.54937     142535.7   -40883.427    4011.6679   -44895.095    588.61038   0.96710172 
   56700    294.22492   -1116.9546     142231.4   -40909.449    4040.4707   -44949.919    589.50185   0.96917078 
   56800    293.90565   -989.36192     142670.8   -40868.543    4036.0863    -44904.63    591.98617   0.96618589 
   56900    289.83465   -975.25879    142813.53   -40962.584     3980.181   -44942.765     593.5033   0.96522027 
   57000    286.14181    -1003.216    142695.28   -40986.257    3929.4688   -44915.725    595.20318   0.96602013 
   57100    289.89258   -1190.4781    142501.35   -41054.138    3980.9765   -45035.115    595.36447   0.96733482 
   57200    289.17168   -742.07496    142737.19   -41133.042    3971.0767   -45104.118    596.84717   0.96573649 
   57300    292.42156   -1149.4754    142762.33   -41111.061     4015.706   -45126.767     597.9932   0.96556649 
   57400    289.60329   -756.07808    142881.87   -41118.536    3977.0038    -45095.54    599.33002   0.96475862 
   57500     294.5517   -941.86457    143069.77   -41054.664    4044.9582   -45099.622    601.06644   0.96349158 
   57600    290.55203   -1121.6626    143180.87   -41131.896    3990.0325   -45121.929    601.40661   0.96274393 
   57700    292.42677   -1001.9706    143322.75   -41116.649    4015.7775   -45132.427     602.6197   0.96179087 
   57800     290.7792   -901.87579    143302.75    -40983.93    3993.1521   -44977.082    603.86288   0.96192513 
   57900    288.98693   -1325.7247    143251.78   -41080.065    3968.5395   -45048.605    604.51795   0.96226737 
   58000    291.81581   -1001.3981     142735.7    -41134.39    4007.3874   -45141.778     604.5221   0.96574662 
   58100    295.76918   -870.98211    142704.19    -40982.85    4061.6775   -45044.528    605.30544   0.96595981 
   58200     286.1585   -806.55839    142588.94   -41109.318    3929.6979   -45039.016     605.8472    0.9667406 
   58300    286.95052    -1207.873    142682.97   -41125.572    3940.5744   -45066.147    606.83095   0.96610349 
   58400    287.70656   -1013.1998    142923.45   -41038.173    3950.9567    -44989.13    608.14143   0.96447797 
   58500    294.25598   -1138.9051    142620.39   -40933.633    4040.8973    -44974.53    607.65402   0.96652743 
   58600    289.73908   -921.86718    142704.52   -41008.163    3978.8686   -44987.032    608.59479   0.96595764 
   58700    289.31997   -915.92151       142792   -40951.724     3973.113   -44924.837    609.12432   0.96536582 
   58800    289.91296   -1045.3295    143153.68   -40932.235    3981.2563   -44913.492    611.65277   0.96292684 
   58900    292.80462   -1114.6039    143384.51   -40867.669    4020.9663   -44888.635    613.49235   0.96137662 
   59000     288.2723   -738.85959    143308.12   -40969.529    3958.7258   -44928.255    614.46893   0.96188912 
   59100    295.25261   -777.24874    143336.82   -40940.055    4054.5836   -44994.638    616.35367   0.96169651 
   59200    289.61258   -1059.1148     143459.1   -41009.556    3977.1313   -44986.688    617.37398   0.96087677 
   59300    292.68498   -1013.0299    143102.77   -41009.998    4019.3234   -45029.322    617.50411   0.96326939 
   59400    290.56846    -1329.602    142717.45   -40999.627     3990.258   -44989.885    617.26249   0.96587008 
   59500    295.36461    -836.0052    142552.69   -41012.345    4056.1216   -45068.467    617.28353   0.96698644 
   59600    296.56632   -925.43411    142861.42   -40891.035    4072.6242   -44963.659    619.03867   0.96489673 
   59700    292.32506    -859.4114    143163.21   -40925.731    4014.3808   -44940.111    621.34451   0.96286274 
   59800    295.86547   -764.02056    143156.33   -40929.162    4062.9998   -44992.162    623.47592   0.96290899 
   59900    295.20526   -1188.0419    143112.49   -41009.413    4053.9333   -45063.347    624.49384   0.96320393 
   60000    294.35057   -1050.6802    143040.39   -40983.282    4042.1962   -45025.478    625.34252   0.96368948 
   60100    291.52806   -975.16006    143019.47   -41000.649    4003.4359   -45004.085    626.51457   0.96383046 
   60200    291.70747    -1268.438    142879.11   -41136.397    4005.8997   -45142.296    627.44747   0.96477724 
   60300    290.50174   -775.12141    142675.94   -41072.966    3989.3419   -45062.307     627.6669   0.96615108 
   60400    294.77308   -955.56287    142713.46   -41044.783    4047.9984   -45092.782    628.62882   0.96589707 
   60500    291.41872    -1021.057    142744.53    -41122.67    4001.9343   -45124.604    630.14498   0.96568686 
   60600    289.78046   -828.71659    142994.15   -41026.369    3979.4368   -45005.806    631.61866   0.96400111 
   60700     291.6145   -930.64296    143017.77   -41037.926    4004.6229   -45042.549    633.07602   0.96384186 
   60800    296.05017   -745.76226    142766.08   -41014.225    4065.5361   -45079.761    634.52772   0.96554107 
   60900    293.72587   -1038.9266    142821.21   -40969.635    4033.6175   -45003.253    636.03339   0.96516838 
   61000    294.80858   -1053.9144    142660.53   -40892.916    4048.4859   -44941.402    637.18805   0.96625547 
   61100     302.7911   -873.76815    142528.48   -40844.604    4158.1066   -45002.711    637.71543   0.96715071 
   61200    289.98731   -604.71114    142583.61   -40916.596    3982.2774   -44898.874    639.04774   0.96677673 
   61300    294.19481   -935.36792    143257.59   -40841.177    4040.0573   -44881.234    642.00629   0.96222839 
   61400    299.59142   -940.72169    143285.53   -40703.978    4114.1667   -44818.145    642.68875   0.96204074 
   61500    297.31074    -1128.187    142919.15   -40756.577     4082.847   -44839.424    643.00715   0.96450696 
   61600    293.84621   -1162.6199    142943.84   -40853.513    4035.2701   -44888.783    644.84865    0.9643404 
   61700    289.71755   -988.34414    143113.11   -40885.753    3978.5729   -44864.326    647.27294   0.96319977 
   61800    295.05504   -1092.0515    143483.86    -40912.72    4051.8705    -44964.59    650.93372   0.96071095 
   61900    296.94036   -889.15355    143426.24   -40850.861    4077.7608   -44928.621    652.13266   0.96109691 
   62000    289.09521    -913.9068    143665.84   -40924.028    3970.0265   -44894.054    654.98361   0.95949403 
   62100     291.8184   -1215.0957     143314.6   -40954.002     4007.423   -44961.425    655.19601   0.96184562 
   62200     289.3154   -907.14758    143024.23   -40973.053    3973.0503   -44946.104    655.04112   0.96379837 
   62300    288.77969   -767.04808    143300.42   -40962.657    3965.6936    -44928.35    657.30578   0.96194081 
   62400     286.0855   -1172.8477     143472.8   -41012.513    3928.6955   -44941.209    658.26694   0.96078505 
   62500    292.46255   -1005.1824    143381.32   -40966.045    4016.2688   -44982.313    659.26212   0.96139804 
   62600    291.08035   -1036.7705    143282.75   -40964.459    3997.2876   -44961.747    659.87092   0.96205942 
   62700    295.15265   -876.66416     143553.5   -40938.153    4053.2108   -44991.364     661.3619   0.96024493 
   62800    290.10264   -928.26601    143299.13   -40993.914    3983.8612   -44977.775    661.90881    0.9619494 
   62900    290.91568   -1058.2756    143027.42   -40938.726    3995.0263   -44933.753    662.99348   0.96377687 
   63000    289.52916   -1077.9309    142916.28    -40955.29    3975.9858   -44931.275    664.34258   0.96452632 
   63100    292.12535   -1081.3212    143058.11   -40937.996    4011.6382   -44949.635    665.35321    0.9635701 
   63200    291.23758    -1147.637    142857.76   -40938.808    3999.4468   -44938.255    665.55547   0.96492142 
   63300    288.43703   -1129.1228    142374.66   -41072.529     3960.988   -45033.517    664.58567   0.96819557 
   63400    285.21879   -1071.5441    142291.09   -41134.267    3916.7932   -45051.061    664.51208   0.96876425 
   63500    292.33759   -973.02543    142423.67   -41002.768    4014.5528   -45017.321    666.77014   0.96786243 
   63600    291.15232   -1139.6192    142652.57   -40985.099     3998.276   -44983.375    668.56658   0.96630939 
   63700    286.86449   -697.22864    142918.31   -41033.843     3939.393   -44973.236    669.84919   0.96451266 
   63800    291.73422    -989.7595    143142.82   -41028.445     4006.267   -45034.712     671.7832    0.9629999 
   63900    294.33837   -1346.7639    143246.52   -40964.326    4042.0288   -45006.355    673.54824    0.9623027 
   64000    286.26512   -990.18276    143414.28   -41051.996     3931.162   -44983.158    675.53206   0.96117709 
   64100    286.37096   -977.81632    143558.99   -41061.565    3932.6156   -44994.181    678.00304   0.96020817 
   64200    287.63085   -1361.5591    143401.14   -41082.952    3949.9171   -45032.869     679.0339   0.96126514 
   64300    286.68645   -1275.4426    142878.37   -41145.912    3936.9481    -45082.86    677.59066   0.96478226 
   64400    281.18737   -967.94779    142908.74   -41133.215    3861.4313   -44994.647    678.99601   0.96457726 
   64500    287.99831   -1089.7427    143006.36    -41144.42    3954.9633   -45099.383     679.8381   0.96391878 
   64600    290.36572    -986.6333    142837.75   -41068.208    3987.4739   -45055.682    679.49341   0.96505666 
   64700    296.93222   -1132.1981    142947.68   -40967.494     4077.649   -45045.143    679.94916   0.96431447 
   64800    296.03564   -932.35313    142802.02   -40839.899    4065.3367   -44905.236    680.75292    0.9652981 
   64900     296.9797   -1143.3666    142518.34   -40877.558    4078.3011   -44955.859    679.42824   0.96721951 
   65000    292.76869   -810.51415    142506.82    -40923.87     4020.473   -44944.343    680.60679    0.9672977 
   65100    293.88632   -910.37777     142990.9   -41033.155    4035.8209   -45068.976    684.14886     0.964023 
   65200    293.49818   -893.96451    142772.59    -41009.53    4030.4908   -45040.021    685.03076   0.96549706 
   65300    290.58958   -1016.4988    142613.07   -41031.066     3990.548   -45021.614    686.49237   0.96657699 
   65400    281.96141   -1077.2052    142356.58    -41091.59     3872.061   -44963.651    686.40404   0.96831857 
   65500    290.54434   -1111.7926    142529.41   -40964.307    3989.9268   -44954.234     688.7759   0.96714439 
   65600    292.94127   -717.27118    142488.74    -40899.29    4022.8429   -44922.133    690.06408   0.96742042 
   65700    290.52116   -927.24212     142319.8   -40894.742    3989.6086    -44884.35    691.00522   0.96856882 
   65800    295.03099   -1029.1162    142484.38    -40950.67    4051.5401    -45002.21    692.31685   0.96745004 
   65900    293.84081   -1078.1589    142651.13   -40922.001    4035.1959   -44957.197    694.20267   0.96631914 
   66000    290.22108   -861.01356    142671.45   -40970.342    3985.4877    -44955.83    694.56359   0.96618149 
   66100    296.62394   -1039.7543    142854.45   -40982.257    4073.4156   -45055.673    696.43297    0.9649438 
   66200    297.52977   -1336.1289    142664.21    -40927.44     4085.855   -45013.294    697.26851   0.96623056 
[...]
   84600    286.67333    -1086.498    142756.34   -41084.856    3936.7679   -45021.624    901.33408   0.96560699 
   84700    288.16869   -693.29931     143175.3   -41103.511     3957.303   -45060.814    904.58696   0.96278139 
   84800    291.63308    -1095.853    142930.17   -41038.139     4004.878   -45043.017    905.39446   0.96443264 
   84900    292.71233   -910.48017    142872.68   -40981.728    4019.6989   -45001.426     906.3102   0.96482066 
   85000    288.38404   -1101.3523    143285.25   -41007.109    3960.2604   -44967.369    910.11091   0.96204261 
   85100    293.55559   -869.76439    143071.25   -40997.827    4031.2792   -45029.107    910.15075    0.9634816 
   85200    292.52088   -1021.7141    143287.37   -40956.435    4017.0699   -44973.505    912.77395   0.96202841 
   85300    291.83717   -995.32791    143376.88   -40962.456    4007.6807   -44970.137    914.60167   0.96142778 
   85400    292.45225   -924.53816    143047.13   -40947.848    4016.1274   -44963.975    914.30022   0.96364403 
   85500    293.42928   -687.45943    142799.21   -40965.447    4029.5446   -44994.991     913.7704   0.96531709 
   85600    294.32799   -1049.7948    142827.27   -40930.504    4041.8861    -44972.39    914.32342   0.96512747 
   85700    296.49001    -1064.424    142565.38   -40957.328    4071.5764   -45028.904    915.10437   0.96690037 
   85800    291.75513   -1019.6711    142999.53   -40964.193    4006.5542   -44970.747    918.27789   0.96396485 
   85900    292.91377   -940.75401    143313.63   -41011.109    4022.4653   -45033.574     920.4542    0.9618521 
   86000    290.37322   -1088.0275    143321.64    -41022.46    3987.5769   -45010.037    921.50683   0.96179833 
   86100    293.59824   -976.39557    143297.88   -41076.075    4031.8649    -45107.94    922.27483   0.96195783 
   86200    291.29598   -807.60311    143425.77   -41026.428    4000.2488   -45026.677    924.47762   0.96110005 
   86300    292.82953   -1158.9256    143541.83   -41066.176    4021.3084   -45087.484    926.25071   0.96032296 
   86400    292.38104   -981.92204    143463.58   -41045.081    4015.1495   -45060.231    927.46201   0.96084677 
   86500    297.63321   -1130.9677    143569.86   -40993.031    4087.2755   -45080.307     928.0574   0.96013547 
   86600    289.02183   -1017.0767     143183.9   -41044.303    3969.0188   -45013.322    928.01516   0.96272358 
   86700    297.13758   -1048.2616    143030.99   -41070.945    4080.4692   -45151.414    928.38902   0.96375278 
   86800    289.94336   -1046.9792    143016.69   -41022.572    3981.6738   -45004.246    929.19949   0.96384913 
   86900    290.18821   -1253.7926    142561.42    -41014.87    3985.0363   -44999.906    926.96835   0.96692724 
   87000    288.77224   -1132.0636    142292.84   -41048.232    3965.5914   -45013.824    926.83991   0.96875228 
   87100     293.6205   -1006.4015    142269.26   -41044.352    4032.1705   -45076.523    927.06583   0.96891288 
   87200    288.23537   -1029.4124     142153.8   -41050.909    3958.2187   -45009.127    927.05063   0.96969983 
   87300    292.83314   -760.21732    142310.98   -40895.499     4021.358   -44916.857    927.63265   0.96862882 
   87400     286.9053   -694.36131    142172.94   -40943.974    3939.9534   -44883.927    927.69103   0.96956929 
   87500    287.77038   -886.49008     142321.2   -40976.528    3951.8332   -44928.362    928.49709   0.96855926 
   87600    294.46374   -1125.8152    142543.34   -40990.078    4043.7504   -45033.829    931.12538   0.96704985 
   87700     289.2506   -1118.2531    142842.74   -40965.386    3972.1604   -44937.547    934.29791   0.96502293 
   87800    291.08442   -1073.1692    142721.51   -40850.944    3997.3436   -44848.288    935.20224   0.96584265 
   87900     294.2434    -896.7503     142600.9   -40840.301    4040.7245   -44881.025    935.20936   0.96665952 
   88000    294.70591   -938.15463    142476.18   -40866.646     4047.076   -44913.722    935.46893   0.96750569 
   88100    297.81384   -754.34635    142680.42   -40900.256    4089.7559   -44990.012     936.5667   0.96612077 
   88200    300.56009   -1039.6378    143037.81   -40855.326     4127.469   -44982.795    938.40065   0.96370686 
   88300    292.63143   -778.59327    143158.05   -40897.689     4018.588   -44916.277    940.46543    0.9628974 
   88400    295.31953   -972.06536    143424.71   -40968.651    4055.5026   -45024.154    942.88871   0.96110718 
   88500    295.94317   -833.19601    143338.32    -40995.55    4064.0668   -45059.616     944.0117   0.96168642 
   88600    293.41888   -854.50232    143407.64   -40981.525    4029.4018   -45010.927    945.16777   0.96122159 
   88700    293.73303   -993.13925    143318.34   -40985.948    4033.7158   -45019.663     946.0766   0.96182049 
   88800    296.77277   -899.09607     143038.1    -40987.54    4075.4594   -45062.999    945.58848   0.96370491 
   88900    290.69007   -1127.1397    142948.57   -41043.728    3991.9281   -45035.656    946.82857   0.96430847 
   89000    291.16253   -833.61422    143150.21   -40982.537    3998.4162   -44980.953    949.14892   0.96295015 
   89100    298.72183   -1027.7003    142835.97   -40964.333     4102.225   -45066.558    948.14723   0.96506864 
   89200    298.17344   -1011.1355    143099.73   -41072.154    4094.6941   -45166.848    950.71705   0.96328983 
   89300     292.0705   -855.32969    142899.52   -41084.401    4010.8849   -45095.286     950.8392   0.96463947 
   89400    294.04923   -844.91384    143096.33   -41020.997     4038.058   -45059.055    952.64214   0.96331273 
   89500    293.30979    -1123.048    143065.78   -41099.505    4027.9037   -45127.409     953.3576   0.96351846 
   89600    292.15377   -991.96016    142673.73   -41032.945    4012.0286   -45044.973    951.97724   0.96616607 
   89700    293.87435   -1064.1444    142431.33   -41030.287    4035.6565   -45065.944    951.99872   0.96781038 
   89800    296.51108   -909.55707    142755.47   -41051.476    4071.8657   -45123.342    954.78535   0.96561284 
   89900    292.51335   -932.13746    142883.76   -41080.402    4016.9665   -45097.368     957.1371   0.96474589 
   90000    291.53962   -1021.7122    143000.03   -41044.575    4003.5947    -45048.17    958.67935   0.96396145 
   90100    297.82999   -980.47471    143153.93   -41002.626    4089.9777   -45092.604    959.99662   0.96292511 
   90200    286.71175   -1093.4236    143007.91   -41125.096    3937.2955   -45062.392    960.30138   0.96390833 
   90300    288.99589   -929.18821    142804.73   -41149.422    3968.6627   -45118.084    959.76074   0.96527974 
   90400     284.8961   -1116.7319    142799.71   -41092.136    3912.3619   -45004.497    960.56267   0.96531372 
   90500    293.59676   -1093.0262    142759.59   -41004.703    4031.8444   -45036.548    960.53884   0.96558498 
   90600    289.15742   -900.79696    142847.48   -41010.374    3970.8809   -44981.255    961.62412   0.96499092 
   90700    294.16499   -1060.1871    143004.36    -41000.97    4039.6478   -45040.618     963.2369   0.96393223 
   90800    297.87794   -1137.9326    143142.46   -40954.759    4090.6361   -45045.395    965.42047   0.96300227 
   90900    290.14469   -982.80055       143058    -41066.68    3984.4386   -45051.119    965.83022   0.96357086 
   91000    291.95065   -874.92861    143281.95    -41008.38    4009.2391   -45017.619    968.81402   0.96206476 
   91100    290.67608   -1024.7359    143443.43   -40944.909     3991.736   -44936.645     969.7986   0.96098175 
   91200    289.23889   -1101.2049    143431.82   -40972.541    3971.9997    -44944.54    970.90508   0.96105953 
   91300    290.02398   -1183.4297    143431.04   -40979.456    3982.7809   -44962.237    971.40526   0.96106478 
   91400    287.38001   -963.85815    143529.96   -41020.528    3946.4724   -44967.001    973.06342   0.96040237 
   91500    289.79168   -1050.6311    143452.16    -41000.62    3979.5909   -44980.211    973.69195   0.96092325 
   91600    291.40672   -1041.7238    143624.37   -40967.365    4001.7695   -44969.134    976.02971   0.95977107 
   91700    287.17125   -1215.1392    142921.71   -41068.211    3943.6056   -45011.816    973.02981   0.96448971 
   91800    290.99489    -1067.402    142832.77   -41146.561    3996.1141   -45142.676     972.6706   0.96509024 
   91900    293.01571   -1158.5642    142981.82   -41071.296    4023.8651   -45095.162    974.50176   0.96408424 
   92000    294.12234   -1025.4234     143025.7   -40957.647     4039.062   -44996.709    975.66965   0.96378841 
   92100    297.78446   -1056.1079    143038.14   -40930.737    4089.3524   -45020.089    977.04324   0.96370464 
   92200    291.30396   -697.48229    142931.24    -40906.93    4000.3584   -44907.289    977.90284   0.96442538 
   92300     293.3587   -983.00387    142911.67   -40918.119    4028.5753   -44946.694    978.94977   0.96455747 
   92400    295.51564   -1045.8787    142733.88   -40982.596    4058.1956   -45040.791    980.43354   0.96575891 
   92500    287.87272   -1153.8505    142727.62    -40934.58    3953.2385   -44887.819    981.08769   0.96580127 
   92600    299.80872   -1303.9764    142470.87   -40939.879    4117.1507    -45057.03    979.78738   0.96754179 
   92700    291.14783   -1119.3919    142553.79   -40982.445    3998.2143   -44980.659    981.25032   0.96697899 
   92800    289.32231   -974.47876    142481.62   -41022.387    3973.1452   -44995.532    981.93283   0.96746879 
   92900    294.55928   -1034.4834     142496.7   -40993.893    4045.0624   -45038.955    983.75972   0.96736637 
   93000    289.28174   -809.94492     142379.3   -40971.379    3972.5881   -44943.967    984.29541     0.968164 
   93100    292.12344   -949.46801    142752.83   -40962.771    4011.6119   -44974.383     986.8242   0.96563073 
   93200    292.33762   -1034.3247    143073.94   -40939.223    4014.5533   -44953.777    989.25483   0.96346349 
   93300    299.95612   -867.11646    143059.45   -40859.716    4119.1749   -44978.891    990.97807   0.96356105 
   93400    287.78597   -1082.7423     143088.8   -40939.849    3952.0473   -44891.896    992.18837   0.96336345 
   93500    289.15988   -1013.0785    143204.01   -40983.744    3970.9147   -44954.658    993.64216   0.96258838 
   93600    289.69099   -884.83724    143186.66   -40997.001    3978.2081   -44975.209    994.51181     0.962705 
   93700     292.0423   -939.74649    143057.51   -40973.294    4010.4977   -44983.792    994.65343   0.96357412 
   93800    297.06046   -869.32894    143125.69    -40857.27    4079.4101    -44936.68    995.31713    0.9631151 
   93900    296.87222   -880.74918    143057.51   -40992.814     4076.825   -45069.639    996.74349   0.96357412 
   94000     293.8257   -1333.9392    143257.05   -41035.326    4034.9884   -45070.315    998.45462   0.96223202 
   94100    286.76865   -1063.2386    142945.96   -41098.756    3938.0768   -45036.832    998.94848   0.96432609 
   94200    287.53433   -1177.2098    142876.77   -41080.734    3948.5916   -45029.325    999.23515   0.96479303 
   94300    291.55598   -810.50627    142820.05   -41030.757    4003.8193   -45034.576    1000.8151    0.9651762 
   94400    288.87492   -940.22085    142715.52   -41038.377    3967.0014   -45005.378    1001.2998   0.96588313 
   94500    294.38526   -1057.6785    142651.75   -41058.418    4042.6727    -45101.09    1002.1244   0.96631495 
   94600    286.20377    -1012.286    142755.35   -41131.135    3930.3196   -45061.454    1002.6507   0.96561367 
   94700    297.09549    -996.8817    142772.51    -41010.71    4079.8912   -45090.602    1003.4358   0.96549759 
   94800    292.94733   -837.02523    142850.27   -40975.066    4022.9261   -44997.992    1004.4057   0.96497206 
   94900    289.32425   -971.55366    142936.04   -40975.646    3973.1718   -44948.817    1005.5238   0.96439302 
   95000    291.22238   -871.94712    143006.49   -40958.224    3999.2381   -44957.462    1007.8252   0.96391792 
   95100    292.42464   -995.79438    142911.33   -40917.311    4015.7482   -44933.059    1007.9811   0.96455978 
   95200    293.67865   -1024.7588    142593.73   -40928.853    4032.9691   -44961.822    1007.9874   0.96670813 
   95300    286.74786   -988.45948    142710.13   -40951.332    3937.7914   -44889.123    1009.4762   0.96591966 
   95400    290.26463   -945.22588    142445.87   -40925.199    3986.0857   -44911.285    1009.9352   0.96771157 
   95500    292.24136   -944.35053    142291.66   -40942.051    4013.2313   -44955.283    1010.8602   0.96876032 
   95600    290.66733   -727.14695    142624.59   -41033.252    3991.6159   -45024.868    1013.3335   0.96649894 
   95700    291.67502    -1076.761    142609.69   -40981.474     4005.454   -44986.928    1014.9616   0.96659992 
   95800    296.44761   -635.00443    142592.64   -40955.753    4070.9941   -45026.747    1015.8201   0.96671551 
   95900    294.76589   -1161.8661    142980.34   -40935.675    4047.8996   -44983.575    1019.8147   0.96409418 
   96000    290.27552   -1051.1898    142951.89   -40908.702    3986.2353   -44894.938    1019.4282    0.9642861 
   96100    289.49045   -798.91944       142792   -40884.201    3975.4542   -44859.655    1019.2157   0.96536581 
   96200    296.72843   -1027.9016    142589.71   -40893.421    4074.8504   -44968.271     1019.406   0.96673534 
   96300    289.54256   -1236.0653    142746.38   -40886.121    3976.1699   -44862.291    1020.8273   0.96567438 
   96400    290.37713   -904.04027     142568.7   -40936.418    3987.6306   -44924.049    1020.7343   0.96687785 
   96500    287.04433   -955.79096    142759.71   -40900.488    3941.8627   -44842.351    1022.9304   0.96558415 
   96600    291.76475   -1104.4699    142513.31   -40806.647    4006.6862   -44813.334    1024.1876   0.96725364 
   96700    300.27833   -1275.2078    142800.03   -40756.942    4123.5998   -44880.542     1026.192   0.96531157 
   96800    298.24906   -841.38975    142607.03   -40761.777    4095.7327   -44857.509    1026.1447   0.96661794 
   96900    297.34164   -1029.8072    142831.98   -40849.117    4083.2714   -44932.389    1028.7298   0.96509558 
   97000     301.1929   -1053.4476     142843.3   -40853.321    4136.1592   -44989.481    1030.4702   0.96501915 
   97100    293.83806   -740.49513    142816.22    -40886.16    4035.1582   -44921.318     1032.282    0.9652021 
   97200    295.81534   -1336.6183    142632.26   -40905.672    4062.3113   -44967.984    1031.0036   0.96644701 
   97300    298.12314   -1130.4132    142924.92   -40904.646    4094.0034   -44998.649    1032.9585   0.96446803 
   97400    295.37425   -880.39241    142773.59   -40906.263    4056.2541   -44962.518    1033.4783    0.9654903 
   97500    293.68436   -1068.1631    142857.64   -40949.455    4033.0475   -44982.503    1035.3139   0.96492226 
   97600    297.83488   -896.84057    142755.18   -40961.963    4090.0449   -45052.008     1034.351   0.96561482 
   97700    295.16111   -1022.3197    142776.31   -41006.197    4053.3271   -45059.524    1036.3576    0.9654719 
   97800    295.03115   -1160.5013    142736.38   -41008.315    4051.5423   -45059.857    1037.7329   0.96574197 
   97900    296.54469   -968.59473    142713.99   -40956.536    4072.3272   -45028.863    1039.2646   0.96589353 
   98000    289.21282   -1061.3751    142881.38   -40893.991    3971.6416   -44865.633    1041.6424   0.96476195 
   98100    294.19994   -1050.9673    142635.58   -40953.621    4040.1277   -44993.748    1041.3579   0.96642449 
   98200    293.61178   -1037.1901    142890.47   -40906.744    4032.0507   -44938.794    1044.5121   0.96470058 
   98300    295.78208   -612.27327    142963.79   -40834.077    4061.8545   -44895.931    1045.3979   0.96420583 
   98400    296.07383   -872.96454    143374.04   -40876.902    4065.8611   -44942.763    1048.3945   0.96144684 
   98500    298.13542   -923.33653     143161.8   -40912.636    4094.1721   -45006.808    1048.9234   0.96287216 
   98600    291.44276   -1097.1304    142951.01   -40961.888    4002.2645   -44964.153    1047.7186   0.96429199 
   98700    290.45115   -908.96956    142590.37   -40989.254    3988.6471   -44977.901    1047.5702   0.96673092 
   98800    297.16677   -964.32464    142781.35     -40980.3      4080.87    -45061.17    1050.0702   0.96543784 
   98900    297.09369   -932.36363    142802.24   -40980.007    4079.8664   -45059.874    1052.7212   0.96529658 
   99000    295.73261   -920.70028    143362.28   -40884.474    4061.1752   -44945.649    1056.0055   0.96152572 
   99100    292.33658   -1000.4033    143139.67   -40948.146    4014.5389   -44962.685    1055.6843   0.96302106 
   99200    291.71236   -837.25876    143727.49   -40956.142    4005.9668   -44962.109    1058.8548   0.95908244 
   99300     294.3706    -1036.816     143312.3   -40969.974    4042.4713   -45012.446    1057.6077   0.96186101 
   99400    288.68184   -1273.5394    143123.82   -40868.809    3964.3498   -44833.159    1057.7689   0.96312768 
   99500    296.02449    -1045.658    142791.68   -40952.481    4065.1835   -45017.664    1056.6344     0.965368 
   99600    289.64479   -1059.8541    142629.29    -41032.99    3977.5737   -45010.564    1057.1354    0.9664671 
   99700    291.46491   -897.75633    142868.94   -40972.491    4002.5686   -44975.059    1059.0597   0.96484593 
   99800    290.85731    -950.9806    142889.08    -40989.52    3994.2247   -44983.744    1059.7025   0.96470997 
   99900    290.18769   -849.13621    143160.18   -40943.604    3985.0291   -44928.633    1062.9233    0.9628831 
  100000    293.09366   -1036.7589    142841.77   -40972.419    4024.9357   -44997.355    1062.4089   0.96502948 
  100100    290.64102   -912.06183    142920.92   -41006.739    3991.2546   -44997.993    1063.8572   0.96449503 
  100200    290.64541   -1323.1056     142686.2   -40962.615    3991.3149    -44953.93    1063.9109   0.96608161 
  100300    286.15311   -1080.6921    142768.81   -40947.443    3929.6239   -44877.067    1065.2307    0.9655226 
  100400     294.7477   -1023.4276     142973.9   -40961.124    4047.6499   -45008.774    1066.8885    0.9641376 
  100500    291.37586   -947.74174    143242.46   -40972.944    4001.3458    -44974.29    1068.3307   0.96232998 
  100600    290.77752   -976.74626    143554.43   -41009.997     3993.129   -45003.126    1071.4984   0.96023869 
  100669    292.55328   -1111.8686    143461.85   -40945.249    4017.5149   -44962.764    1072.9547   0.96085838 
Loop time of 110.949 on 6 procs for 100000 steps with 4608 atoms

Performance: 389.369 ns/day, 0.062 hours/ns, 901.318 timesteps/s
98.9% CPU use with 6 MPI tasks x no OpenMP threads

MPI task timing breakdown:
Section |  min time  |  avg time  |  max time  |%varavg| %total
---------------------------------------------------------------
Pair    | 92.137     | 93.239     | 95.443     |  11.1 | 84.04
Neigh   | 7.0223     | 7.0631     | 7.173      |   1.9 |  6.37
Comm    | 5.7383     | 7.934      | 9.1015     |  38.0 |  7.15
Output  | 0.1723     | 0.17297    | 0.17605    |   0.3 |  0.16
Modify  | 1.8457     | 1.9205     | 2.0087     |   3.7 |  1.73
Other   |            | 0.6187     |            |       |  0.56

Nlocal:        768.000 ave         777 max         751 min
Histogram: 1 0 0 1 0 0 0 1 1 2
Nghost:        1539.50 ave        1557 max        1518 min
Histogram: 1 0 1 0 0 2 0 0 0 2
Neighs:        0.00000 ave           0 max           0 min
Histogram: 6 0 0 0 0 0 0 0 0 0
FullNghs:      21470.0 ave       21948 max       20735 min
Histogram: 1 0 0 0 2 0 0 1 0 2

Total # of neighbors = 128820
Ave neighs/atom = 27.955729
Neighbor list builds = 7065
Dangerous builds = 0

undump              1
unfix               2
unfix               3
unfix               4


################################################
#######         Run Simulation         #########
################################################

reset_timestep      0
log                 log.run_${NAME}
log                 log.run_liq_293K_-1000atm_ML
