LAMMPS data file via write_data, version 29 Oct 2020, timestep = 200000

4608 atoms
1 atom types

-0.26268913180943443 53.662689131807895 xlo xhi
-0.021398742144072003 50.92851874214405 ylo yhi
-0.021398742144072003 50.92851874214405 zlo zhi

Masses

1 18.015

Atoms # atomic

997 1 2.66812723930381 46.053044363691114 2.8147240673193266 2 0 1
4223 1 7.1649907710439145 5.706628990827802 1.2475836237317233 0 1 1
143 1 5.851860976004225 33.67700990961749 4.463380944237223 0 -1 0
279 1 2.068499044049107 39.76101746452554 12.15422665262863 1 -1 0
785 1 3.36126966675324 0.661123473314418 2.4509829782119628 0 0 1
2021 1 15.151683053095585 23.689181445087623 6.063375334528569 1 -1 1
2046 1 10.338867959798772 6.723598704038889 0.44778533360039047 -1 0 0
2077 1 9.955613524593822 6.3326141447995035 4.929274360704064 1 1 0
1618 1 11.857258272085533 10.184164815456564 3.0407859623179982 1 1 0
296 1 7.610957998009044 4.447084230673832 3.9395931699224436 0 1 0
1868 1 17.304876764002064 11.192078033377738 24.680020616897927 0 0 -1
2160 1 -0.09208186324808015 28.304115662962005 8.170178845282436 0 0 0
2731 1 8.455102205912409 6.6464812688083885 24.918858974533592 1 0 1
3512 1 15.488193405275302 48.67637211581432 23.05470538316339 2 0 0
4371 1 9.6821480575749 12.2345275725284 1.904611323996263 -1 1 1
1177 1 14.613142850530101 6.138639504747972 0.9843683304190924 1 2 1
4485 1 0.5027864970586997 32.05552969888973 9.816787575682232 1 1 0
2164 1 9.144653056462255 14.41406163603579 3.821936575477951 1 1 1
417 1 2.4054331546823495 21.069036749894718 2.937079801989231 0 0 -1
835 1 0.9280551191493893 43.39640789199031 13.711866838094236 0 0 1
2754 1 8.782840433700365 17.62830720502556 3.8440444607533566 0 1 0
2224 1 12.210276465908006 35.190645506679374 24.9296933482891 0 -1 -1
167 1 14.042738911167527 8.601240449507676 6.023002117988817 -1 1 0
4056 1 9.742734800422875 32.90823891393743 1.560209456385561 1 1 1
2618 1 15.152968108932113 45.49057743437999 25.29509248435598 0 -1 0
3033 1 1.1493673514433975 14.211221914306918 18.39737148282652 1 1 1
3416 1 6.608793192413928 15.996253342883094 4.148758068025388 1 -1 -1
3128 1 14.678426456305017 24.324310576864054 1.4295607400778425 2 0 0
2633 1 15.5856952344901 13.443733102101026 4.3207803581590625 0 0 0
1725 1 12.325584048860962 5.138417803861417 1.7846947894923864 0 1 0
4190 1 7.328417370207508 29.76739161003401 0.6045694307177285 0 1 1
1272 1 3.6780735984114687 15.527566278333834 2.3260523153020896 0 1 1
3587 1 -0.012324497654290612 28.81064586398421 5.346403748887268 1 1 -1
712 1 -0.1984729086814796 25.448851067482998 16.99730812505397 1 1 0
3355 1 0.9652574962418077 47.21945588596017 1.2748329203518909 0 -2 -1
3094 1 1.210838482104568 34.60609682113898 7.407945118004355 1 0 1
531 1 -0.034360979220043664 25.47725233924543 8.84647577058597 0 0 -1
2445 1 2.938655269766421 19.161640297658924 0.42197382702283354 0 0 1
3409 1 14.227630513165202 18.420756030209372 1.2269428918814145 0 1 0
1848 1 1.6742361260880116 6.705117796824365 18.199915596733714 1 0 -1
3700 1 0.013847885226096313 37.138319862519616 24.05173908459853 1 -1 0
333 1 5.568285475496028 11.413783108417944 6.04241984324278 0 0 0
3522 1 9.602994313554953 24.676047438596 2.6727930409131613 1 -1 0
3147 1 15.894783565204804 20.38500639728265 3.280344468184554 1 0 1
2919 1 0.43848345433288405 26.705300449942857 1.0246372209273233 1 -1 0
2307 1 8.24412090285756 42.21199067496183 0.14460342686110478 -1 1 1
1309 1 5.870395784987158 25.83361645119963 0.8524922075882153 0 1 1
3514 1 8.227264845812057 29.04907832663721 4.313288675233188 1 -1 0
1947 1 11.45728136888397 35.17410712370727 0.3354704732525562 0 0 0
1049 1 11.185495763211097 26.096542054248705 4.880189628432774 1 0 1
579 1 13.501420013740328 27.24319397087079 3.400035675725655 -1 0 1
2436 1 15.82799201854408 25.682262526511813 4.031351801557807 -1 -1 1
1525 1 1.159052842919129 47.03784766618439 16.486593498228764 0 0 0
3827 1 5.292639848185726 28.949391988797725 3.5797161523658154 1 0 -1
3918 1 9.192332965360809 27.537435747103736 1.9454183468877737 0 1 1
3389 1 16.20606754436924 2.621265854992524 6.532400683591672 2 1 0
4069 1 -0.13641757909647204 19.832363490273874 24.996477916662823 1 1 0
1440 1 14.353052397523884 25.77623552465874 25.05979687672815 1 0 2
3219 1 10.813358302239907 32.05704955211038 6.4133007356882965 0 0 0
3232 1 11.483738562379596 38.64526663444273 1.2632249917080682 0 -1 1
2696 1 11.511203654409115 27.847565934219592 8.270736933142025 0 -1 0
4397 1 3.122814174350396 8.852907464128828 17.045497705134014 2 0 0
1018 1 11.822232729155417 31.22177192470533 1.468018999166412 0 0 1
3473 1 1.0960115247053592 36.119479584384266 15.64583699652864 1 0 -1
668 1 15.21468142333473 33.93951571947801 2.0565792678354606 1 2 0
1545 1 1.558837720335847 32.48001564326145 15.900934132821519 0 1 -1
314 1 9.689256773017169 37.32924620796528 4.424930676365041 0 -1 -2
3500 1 11.412504273809366 39.77230690403939 4.0679854631219285 1 -1 1
1138 1 3.2263192986287788 37.773716339875584 1.6693632949214883 0 0 1
4095 1 1.8477988253016484 43.382234493060885 3.6033240139487406 1 0 1
653 1 0.9532662008979942 5.23222452857514 6.68966918853072 -1 -1 0
2613 1 -0.061642976047792786 46.312168810176104 19.37953706122559 0 -1 0
3236 1 11.75871573602333 36.34234143755063 3.2764095280989647 0 0 0
3969 1 15.21535549329665 42.32563117681472 3.9938776323404177 0 -2 0
251 1 3.861769809042918 31.38789150494905 3.824936069489121 1 -1 0
3155 1 17.640427609806085 19.04522865818566 19.535749205343638 1 -2 0
1818 1 1.6536176022688729 31.06448144558201 6.3834807498896184 1 -1 -1
3900 1 3.532759098684222 41.85035811194991 1.9413833725331864 0 0 0
3933 1 8.257744287009416 1.0763921887023193 0.5844571096221827 0 0 1
1043 1 12.132197609168427 41.47307075939444 1.1814112510707637 -1 -1 1
3938 1 9.41875872105621 45.53057209634437 2.9429086456962286 0 0 1
3511 1 1.259393727036572 0.9795149099170639 13.624405567226535 1 1 -1
2104 1 1.5797691341480546 37.0811754959614 11.738045700438688 1 0 0
254 1 5.683821298468603 46.48523237769234 1.9288847775670357 0 -1 0
772 1 6.0756854678392544 13.141652065872016 3.4957258146700165 0 1 0
2947 1 13.903689760745083 45.028786317520265 0.8384897942262736 1 0 1
2329 1 16.92627200426656 42.714485474754376 5.793176530854718 1 -1 2
4430 1 0.8059657886550842 49.90025461788764 1.8107102702853408 0 1 1
3087 1 0.9685769879958357 6.734569657772394 1.478012995225675 1 1 1
3108 1 17.53447762665299 48.82128997366371 24.849537882378364 1 -1 0
2981 1 6.987237346175037 11.041682644825833 1.875074046315881 0 1 1
1761 1 5.082238705467162 9.238961574799605 0.15008177540829637 0 1 0
657 1 1.5682621646074502 40.85568424164172 4.791727803728471 -1 0 0
3929 1 16.930416847187413 5.478683491032882 2.3468165867735045 1 1 0
362 1 0.6476535900995511 39.742137612883695 25.1924309451947 0 0 0
1651 1 4.699305493199132 3.7310530807095117 7.114581881401378 1 0 -1
1772 1 5.05115758609767 49.50304722680692 3.711892492767209 1 1 0
128 1 5.004818735343477 3.387177754249449 3.2119683029203188 0 0 -1
924 1 11.03955805088722 8.218346764963673 6.954170611018204 0 0 0
3144 1 8.884127835335551 2.0839101666217883 3.2719512499740633 0 0 0
1174 1 11.556790873913018 1.722342426358394 4.154101102498914 -1 1 1
1085 1 14.027289358130272 1.3994510078453564 2.565982921520979 0 0 -1
3762 1 14.397580579904009 9.103240856809325 8.673263474928573 1 0 0
382 1 3.6172857529927405 7.155106126258471 5.298875123033744 0 0 2
1312 1 6.5180255457933844 6.940908386781277 5.470823241957588 0 1 1
3294 1 7.474577936910491 3.4105699811447234 6.7007013540751315 1 1 1
3553 1 9.883137069205672 9.52013836019044 9.702641719569671 1 -1 -1
4304 1 12.440736674910948 4.971956573192016 4.949626874318347 1 0 0
4036 1 2.308802508321329 10.432058510451654 2.1408979498201712 2 1 1
3241 1 10.254319249206999 7.9253809660821775 2.8325574525237225 1 1 0
3274 1 7.39484742487483 9.115498497955397 9.20518007424248 1 0 1
3841 1 9.899140955007848 12.623709435622269 6.827017838955182 1 1 1
4435 1 10.23613497750688 10.508005718986453 5.398638127262283 1 0 0
2967 1 14.274147584280007 42.67484407682156 24.194881585437507 0 -1 1
2277 1 13.184506275947228 7.636375399581766 3.79159335548287 0 0 0
4267 1 2.8950965868676857 14.53647462591976 4.768571385837662 1 0 0
4491 1 3.4072348439644604 11.904789240835171 4.329695686418827 0 0 1
2611 1 7.384787870301972 9.468148253690833 5.5452054950792125 1 -1 1
426 1 11.051721161872718 11.736656502589401 9.413201836559962 1 -1 -1
313 1 13.657554453312864 11.728238387409217 9.783795956824264 -1 0 -1
845 1 -0.10365394939441636 21.187592621841215 12.534508565447364 0 0 0
2553 1 4.106384620318717 16.032986708933958 6.699728150058444 0 0 2
4065 1 7.433038956223988 13.352240020207416 6.603046701527819 1 1 1
4461 1 13.064194764327306 12.674863107543466 5.782816670018096 1 1 0
2204 1 1.599040203253925 4.008182995823322 1.9117663357504202 0 1 1
1881 1 3.8175775656131625 8.365433125814993 24.317189285986863 2 0 0
3845 1 1.4950290510111954 17.610010309023394 2.206979981826284 1 1 1
4024 1 7.158584922249675 20.01484771947098 3.876042931149856 2 0 0
1691 1 9.391189739364352 19.090268141602397 1.5922396716920582 0 1 1
3378 1 14.82539445962885 16.720714234767648 8.977501716047767 1 0 1
2031 1 13.764263868394131 19.16123568942997 5.02957506237862 1 0 1
4173 1 3.8161897459134577 23.220411015132694 2.4791224835143484 1 0 0
4187 1 4.926481839641311 18.393225265925807 2.494947108807001 1 -1 1
4292 1 9.289009353160806 21.716713167088795 5.633705773633528 1 0 1
2026 1 10.644601813277761 21.947233555217075 2.8912866027017983 0 0 -1
1400 1 0.12603870963775865 33.91512129276433 11.84524943349476 1 0 1
4311 1 15.911007357293169 10.303002230854466 4.207237854556397 -1 0 0
1572 1 0.12645666708856634 43.36962015549152 25.306569306872568 0 1 0
1285 1 6.119508215929239 22.574517117294153 4.198950354908429 1 0 2
312 1 7.8572290818948165 24.763063770411698 4.631044419728197 0 0 0
95 1 8.02789054570999 24.087221338963836 7.483702357193233 -1 0 0
2158 1 13.640977629320188 22.272314195928214 2.8167434619391885 0 0 0
323 1 3.3630751603875653 28.077876574985606 5.8021353556642365 1 0 0
2320 1 1.1635669693941528 24.93454039607639 3.2710464057755626 1 0 0
4422 1 5.955001968667147 25.965716723281286 3.4274556430756085 1 0 0
786 1 9.16607143835492 26.71175015595178 10.154825276050362 0 -2 1
3226 1 4.822808604429521 23.38622399823714 0.32713982801851565 0 0 1
2698 1 17.210347406893323 27.983471037108313 2.470659510535597 -1 0 1
3739 1 1.2001485784117591 2.3233525175125895 4.104241758993086 1 0 1
3105 1 6.148746763878809 27.658633586523983 6.8591075401758195 0 -1 0
1483 1 8.014045840759378 31.304724051028593 6.263149179892511 0 0 1
1983 1 6.809135836736979 24.702087218970053 9.957447290966666 0 -1 0
634 1 13.75280109535206 29.636576532358678 5.21856780410181 1 0 2
2548 1 16.615253012482242 30.74336735852061 2.7896856005112465 -1 0 1
3849 1 8.130118358981639 34.87562770209915 5.984104229276871 2 1 0
2178 1 10.246477359127022 33.999233867096784 4.174589133644293 1 0 0
3915 1 14.449685124403127 31.720392950093217 7.700396664728103 0 0 0
4588 1 13.927402862110553 31.711479754185557 3.40341955779717 2 0 1
2261 1 8.403095217985317 1.7798705938379649 24.5753772734554 1 1 0
3078 1 17.308960270015177 34.3578187719869 6.7645366809978995 1 -1 0
4449 1 7.328338895545051 37.85882705863942 2.879285942747403 0 0 2
1567 1 0.32712498772971 33.3590200337342 18.511113354234976 1 0 -1
1022 1 13.13976065314554 33.31085140154163 5.287175941963792 0 -1 1
4175 1 13.74534666859909 36.74136738601962 7.55492446103666 0 0 0
3545 1 14.61611669644854 35.62784047227581 4.79518448876123 0 -1 1
3505 1 13.366792117214402 39.844687516924736 7.552828350360552 1 0 0
840 1 15.056267082323364 34.52113052042919 8.611164944199576 0 0 -1
4243 1 7.258295148045211 41.93704678143538 3.5536705145264538 1 0 0
2503 1 11.141900671503047 35.99818029081364 8.78060027142107 0 0 0
3396 1 9.919971452729735 41.54875719609614 4.682105454603305 0 0 0
2712 1 16.80707066113667 39.02225361608464 5.876925153891367 0 0 2
2969 1 2.171344267654831 48.12367212628039 25.096040521522678 1 -1 1
751 1 0.6679251891386384 40.296867840347225 17.83645309466968 0 1 -1
992 1 14.936398805198602 20.90046121312856 24.35008245908556 0 0 0
2929 1 5.400583136274121 40.014699942435364 3.1675641910209476 1 0 0
3009 1 5.962759749998191 43.778469127833425 7.303334279386077 0 0 0
733 1 13.982412583873494 40.143756662730596 4.6273326921056395 -1 0 0
4006 1 16.9197087069582 3.499092667032987 21.42528011204202 2 1 0
3724 1 7.404421460477964 31.882379655726734 2.941211894485437 2 0 1
487 1 6.369550845699648 44.58495279627917 4.060939289861886 -1 -1 -1
4125 1 8.204569360886111 49.18957993597007 0.31292191198943203 0 -3 1
4411 1 13.385246736665747 45.77028629050811 3.5091136783000767 0 -1 1
1409 1 2.9792571222429327 7.88534288504204 2.572662019422175 0 1 1
442 1 15.795789886765633 46.60442918779851 3.9371824672315805 0 0 0
141 1 3.2055327885087777 43.956329312730574 6.518844374289353 0 -1 1
2948 1 0.2694539825647878 42.068590064024924 11.731867535987604 1 -1 0
3362 1 7.500416998784894 48.364005397205666 2.97064566421868 0 1 1
3245 1 17.5910618675178 0.7864079975504141 14.531865320733475 1 -1 0
4545 1 14.130731081240476 49.5562942569877 2.815474446691856 1 0 -1
3354 1 15.097134287873997 49.25537719483988 5.61010436084928 1 -1 1
2133 1 3.0344061376963665 4.249224297284508 5.221897513322106 0 1 0
2051 1 3.1233789527251803 47.11026494121809 5.185195099722669 2 0 -1
3520 1 8.175923194605332 0.12140004481866384 4.734564138837739 0 0 -1
1265 1 13.49062325886965 1.5729967982908146 7.223824555654345 0 1 0
759 1 1.507627535961724 8.438438151685945 6.778051882397587 0 0 -1
3010 1 1.4592088411994697 41.319825072147346 7.870339328657077 0 -1 1
1352 1 3.875854730744959 1.7455199923909588 9.022633359427543 0 0 1
3821 1 4.80927509526285 5.267979542597852 9.242130604296943 0 0 0
2336 1 6.799972885264201 6.467645232881347 8.228111572407078 0 0 0
1438 1 11.344180258858529 3.0256745043201994 6.468187720697161 1 0 1
973 1 12.694098768421973 8.129918838431019 10.423029698744404 -1 0 1
4290 1 1.789046694856637 11.123515814694358 16.7367397313569 1 0 0
3884 1 1.1119388842015268 8.442633017198727 21.748024555968613 1 1 1
3885 1 2.589600055223926 7.0187194455353366 8.930000209490851 1 0 1
678 1 2.241275869134325 11.027828045085272 7.60425004516283 0 1 0
4294 1 12.277291919565434 11.418627157534292 13.552747973588597 0 1 1
2496 1 15.364420642970314 5.389347501625013 5.949628659633962 0 0 1
32 1 0.8787407860702832 3.1878030213953283 18.526766337305425 0 1 0
3131 1 15.384522911499252 6.2351521730078305 8.40505489491857 0 2 0
2976 1 7.674469164947754 17.178704949041247 9.190282464534407 0 0 0
87 1 14.481453029103944 12.874493561967412 12.352177823105864 0 -1 0
867 1 17.396824925639606 8.119477079326355 11.191602137280412 -1 0 1
1108 1 11.246539390343186 26.545053866320192 20.45136293400655 0 0 0
3433 1 1.7993742671593123 17.04012669996676 7.851606730239207 0 0 0
3234 1 6.161210445199591 15.138803076897215 8.310585408069366 0 0 -1
3598 1 7.452977942386882 14.261804971548605 12.801068459217511 0 0 0
2397 1 2.918928774476947 13.907385462394181 11.182381233246957 0 -1 0
4406 1 5.432888709657476 18.61524803383119 5.841242768885373 1 1 2
96 1 9.859055310860825 18.876691623807 6.149217024873307 -1 0 1
1585 1 12.320891975869722 15.311195809984612 14.800005498335834 0 0 1
2056 1 13.642257320933224 15.521033102038297 11.578024935799554 1 1 0
2484 1 14.305991876667182 13.772433507702113 8.193392968806075 0 0 0
388 1 7.277265421993646 19.32448758592854 7.641109270227224 1 1 -1
2770 1 4.1797176859078 21.945524993955257 9.944445718752624 0 1 1
1086 1 7.864676914012385 17.70350546132339 11.873588550858756 1 0 1
3176 1 12.572706515917286 15.892097807251131 5.661819144071398 1 0 -1
4541 1 10.438393220282745 18.150894350397323 12.430297280474482 1 1 1
2830 1 1.3291225214751043 18.1795913745073 5.19421617351839 1 1 1
2693 1 3.1571385730318604 20.41484892546093 5.496084598599185 1 1 1
3120 1 10.819008806625954 28.98114940163964 5.615878447362944 0 -1 1
1376 1 11.228763313849162 19.033917757672114 9.72273370930114 0 0 1
208 1 10.249332303861499 48.11564047634816 23.282675913768273 0 0 -1
3293 1 12.017654666336137 20.642973633778436 6.850370792573747 0 -1 0
4023 1 15.772777127445814 17.51333901416472 6.366138031087645 1 -1 1
2889 1 12.683571164629532 49.22552612029449 25.392887612893468 0 -1 -1
3476 1 4.364213199193328 22.85605061215469 6.419388482520089 0 -1 0
2279 1 2.714032855213577 20.427317759520488 8.157573192556098 0 0 1
2005 1 3.565331014172841 25.43125604840676 5.075420587372215 2 1 0
2767 1 12.197032488043353 23.29158595705147 5.623743483512919 1 0 0
2092 1 4.40984232295976 25.366423472990625 9.800453548379002 0 1 0
4196 1 12.019805760573405 23.123317357032697 9.760291434107549 0 -1 0
2551 1 14.263106828400645 8.941378287848345 -0.012639941347873274 0 1 0
3320 1 2.416475370053554 29.03516927067995 8.57622411379106 1 0 0
3855 1 2.3185272274264714 24.050339819904753 7.927829636991207 0 0 1
4151 1 10.784803590093205 24.855950280905372 7.674518153713236 1 1 1
2175 1 15.495060601374268 26.163516686146572 7.64550924514642 1 0 1
3418 1 0.41342478977642994 17.17214205451926 18.387262214120902 0 0 -1
2626 1 0.43778238944962355 29.733089374583376 15.927866146852796 1 -1 0
2064 1 14.067183662382893 10.73416178717841 2.1484657123203035 0 0 0
3564 1 8.789024962050204 30.903700898582922 9.147428933080496 2 -1 0
4010 1 7.3603542436592315 28.68542817844702 9.38188321714616 1 -1 0
1521 1 17.021477094268036 31.234159792398284 5.872587419491141 0 -1 0
2784 1 12.017821101802157 14.721478074577307 3.2224050616039923 0 1 1
1382 1 8.778446135098338 33.613747127039645 8.9115516986823 -1 0 1
1682 1 11.957895790501826 32.89095486324858 9.011380899751757 2 1 0
2765 1 11.36422007996547 30.42506955460904 10.167068489796549 1 1 -1
122 1 15.293911403750649 34.0813951264246 11.000483132872777 -1 0 1
3621 1 5.966362055690394 36.640580778249635 6.973127986014629 1 -1 0
3781 1 8.341934947679583 35.45146173028102 10.981066236949461 0 -1 0
4001 1 14.772615380702062 39.66623052987849 10.339143883502741 0 0 1
3111 1 13.358630944616802 38.698240216260615 14.913095223287439 1 0 -1
4240 1 14.81078555882897 38.09498711982401 3.203704407169881 0 0 0
2757 1 11.010582281593695 48.266114213109056 0.366643637248799 0 -2 1
49 1 3.33849518425643 36.290672968536185 8.814634264892273 0 -1 1
773 1 10.115415751679826 37.73507524252823 7.384327871072892 -1 1 1
3898 1 10.895572560185956 40.5430837580507 8.561669067854284 0 0 2
3124 1 4.606991715568053 32.95323582903449 25.152444786792817 0 0 0
2172 1 3.984142115323329 39.90185580831894 5.924908823211878 0 1 1
1297 1 5.543488483139084 40.93193684567341 8.106863888741573 0 -1 1
508 1 0.9521988207336989 43.39637167027999 9.47767399460166 0 -1 1
2392 1 8.169047136415836 43.221319956988744 8.914719917224925 -1 0 1
1821 1 12.66286603223265 43.56975181019527 7.396474410518419 0 0 0
2124 1 10.236517907524087 42.6965669806905 7.171520325481207 0 -1 1
2198 1 12.923258760459518 43.347530569063906 10.563740558695844 0 0 0
2794 1 16.0815173454526 41.09018616022926 7.835031209389042 1 -1 1
3800 1 1.3552203103749139 46.86772936664449 7.749506376344359 1 -1 0
1300 1 6.098786918839397 46.12368316757497 8.683523238929702 0 0 1
1822 1 5.765202469848617 47.24670682773244 6.254760003792778 0 -2 0
3648 1 13.344483456418894 45.75866192066439 6.374850520206265 0 0 0
1727 1 11.573374123106078 47.83671851219802 3.114864080771666 0 -1 0
3268 1 17.508524580535465 45.317603776063486 5.979482039111347 1 -1 -1
4146 1 5.853624433627368 46.649946441947506 23.137753839520435 1 1 0
3429 1 16.993010320860673 2.7603948768166817 16.802365321733305 0 1 -1
3592 1 1.7474766102028592 45.985031333559114 21.645823755686088 0 0 -1
585 1 8.64500510255999 47.067190709489935 5.499122334286234 0 1 1
317 1 5.678087549327591 1.209132211587669 5.424935318177631 0 0 0
2736 1 11.032568052544997 49.91945033855676 4.830687104408446 1 0 1
570 1 12.914262812136313 0.7037406750490649 11.345000948286504 1 0 0
1420 1 2.360694666410622 50.50693166920183 7.314152352027792 0 0 2
2459 1 6.200758210603628 50.20901410103921 9.99076798118915 1 0 1
1846 1 8.730302407842297 0.047792011631739295 9.60813564422331 0 0 2
2515 1 16.101434750982374 48.87924214576283 12.917324113834724 1 0 0
1716 1 1.759607916740992 0.22755091796915064 17.2906799651755 0 1 -1
2625 1 5.119445974178183 36.49179167454015 11.069192001984018 0 0 0
3028 1 4.995902360951693 8.603185130658153 10.744873183252285 1 2 1
108 1 1.9961380551585366 7.574887628374919 11.589854606535178 0 0 -1
4178 1 9.55468912738301 9.020117145802658 12.60289195028369 1 0 1
4296 1 9.059470616910396 1.1008669963999205 7.060058813470279 1 1 2
4295 1 15.114786827104451 6.392933802546984 12.001258945737812 0 0 0
863 1 13.911691929582798 45.600872092977916 15.715916660289471 0 0 0
3225 1 10.219558123909414 10.694519675298379 24.40168144625509 2 0 0
1493 1 3.488250893733108 10.17672925289929 13.353230725266998 1 0 0
2607 1 5.207271713037541 11.262941674577721 8.992851010790758 1 0 -1
3283 1 11.197456048724456 7.153307386772633 13.329165219736824 2 1 1
3018 1 2.526586373221219 11.301719792373698 10.462259692996302 1 2 0
2994 1 3.938926340237103 13.675572040292462 17.299437182863993 1 0 1
3359 1 5.979263435879584 13.44373173818361 10.598855038965782 2 1 0
3146 1 10.238793396952545 13.009364335365083 11.602878047528062 2 1 0
3156 1 16.5177590098167 11.894149407346308 13.622921395506287 0 0 0
3783 1 15.698033112873606 28.889459948861813 0.024528497104308822 1 0 -1
1844 1 3.654735683971837 16.218786463024323 12.437250072876749 1 0 1
133 1 4.085111388905157 46.500628542578525 20.800296573284932 0 0 0
790 1 6.842811566277323 19.82109390700008 12.908861930497222 1 1 0
2185 1 10.949410734141091 15.64391604706989 11.978883956450465 1 -1 -2
1851 1 14.677743405044533 17.209936025501168 14.034033494303467 0 1 0
1745 1 1.728730035992305 17.813264155685683 10.60324619747862 1 1 2
1523 1 1.9779905489619547 15.753091251117949 14.454427075427034 0 -1 0
457 1 3.647294995018024 19.313038453922328 11.919445755443908 1 1 0
4543 1 4.075781882159075 23.191895382431902 15.705545840278644 -1 1 1
503 1 10.302220997162024 16.827441194553522 7.995649817663713 1 -1 0
4349 1 15.98998096855657 48.46846497112511 1.2781385172002437 0 0 1
4234 1 6.088259947740483 21.757309891882766 23.780012452974848 2 1 -1
939 1 3.276234802412295 23.693244575415132 11.767250365094977 0 1 1
2493 1 6.2743913504279885 21.93234971387483 8.215477798113477 0 0 1
1697 1 2.797737056606494 21.194554015190402 13.408534781309132 1 -1 1
462 1 12.650469968171008 19.35721755065581 13.487100940304872 0 0 0
2394 1 9.598538468140362 21.445914187904823 9.0641786245197 0 0 0
1508 1 17.013774621141316 9.09111616089767 13.531744532560941 0 0 0
782 1 0.3713678866226323 24.17069850153177 11.593203582018246 -1 0 1
2605 1 11.9530173160474 24.435586181966013 14.999304410809655 0 1 1
1976 1 12.955663463566488 24.83436861478732 11.89812276895792 0 1 0
581 1 14.478304227137272 25.792664604490202 15.099130241769611 0 0 -1
117 1 17.059919087085337 22.6364358121752 9.11583894089397 0 1 0
3703 1 17.63004160013322 34.38076877680716 3.844435257882944 0 -1 1
3750 1 2.987973933414249 36.87240806643394 17.92559118346293 1 0 0
3597 1 3.7734888273968625 33.221263725493 6.888602139673759 0 0 1
1552 1 7.627758025582066 23.77027908231902 12.452393988828156 0 -1 0
1681 1 10.53273648006313 27.884782373335742 12.23904226067309 0 1 1
940 1 13.573465759717548 28.3602134481382 16.424051213387084 0 1 -1
898 1 14.546636264513152 29.55392766381777 9.692281258965412 0 0 2
1573 1 6.676425856197078 49.60051862511953 21.643055646200313 1 1 0
195 1 5.203931286153872 30.688719375890823 6.8457343266924555 0 -1 1
272 1 14.838389374233472 49.55964388966777 10.62069366495369 0 -1 0
1267 1 3.861539242547458 27.802147447512354 10.637529596482695 1 1 0
1628 1 10.006016682550083 26.36992218466694 14.42870030601083 1 -1 -1
241 1 14.762771745539848 29.595246349684455 12.522732161716188 0 1 1
1741 1 17.49507090722045 22.443560283969266 21.322977674791183 0 0 -1
591 1 4.7223807627401735 5.994307378566403 1.1687787842867812 0 1 1
3346 1 16.824069278387487 7.153776049211337 4.729880062789712 0 2 0
1504 1 5.646123612520413 31.624399564299694 10.094176992071317 0 -1 1
3577 1 5.621535356409825 29.75304162181286 12.043986933378553 1 -1 0
3472 1 8.600993956123332 29.613214657904134 12.487409576027922 1 0 0
571 1 12.844603289706122 33.32471322821353 11.668172672087383 0 -1 -1
4293 1 12.578463522699256 30.685728086838903 12.889571547972071 1 1 1
2690 1 16.974177856203088 31.51123911130412 11.968071115975816 0 -1 1
3372 1 6.101040012722153 33.953126224702395 8.506187986841885 1 -1 1
3519 1 11.86593726695842 35.44116973778866 13.647025360769666 0 0 0
402 1 10.553193338465963 37.225521225564094 11.588003345139708 1 -2 1
3609 1 10.118403263456154 34.15463264109879 15.544804564335116 1 -1 1
1229 1 14.919838144774818 35.5023831720654 14.286079790055474 2 0 1
4089 1 15.90805223406366 37.18037329291189 11.832867729031927 1 -1 0
1986 1 2.829469680618269 39.1676459546073 9.155103802388204 0 -1 0
4281 1 7.429546208118548 38.5805409611984 7.733940587072848 0 -1 0
2041 1 6.7738511801035015 38.578930672849616 10.753547082541916 0 -1 0
3921 1 12.653474405507028 39.06627462177137 12.307077188943499 0 -1 1
1880 1 11.282709082547287 41.212299313270066 11.463888358847582 -1 0 0
1672 1 -0.1066277534306585 12.277599109661596 12.605350444443156 0 0 2
1933 1 5.401509640188688 36.008852568779346 2.855857599688196 0 0 0
344 1 2.054099701965576 46.11563630586605 12.34241755463161 0 0 1
2561 1 8.82969709728526 41.60008253635389 11.966235336933666 0 -1 1
19 1 9.849421254621934 44.2866867659436 14.207325758814852 0 0 1
1819 1 15.610798552652938 47.2352722190044 7.469158120238578 0 1 -1
3423 1 14.882295249346466 42.882944910043676 12.38426408926452 1 0 -1
3421 1 16.87405072942247 41.1788579324156 11.457773594013286 -1 0 0
2311 1 1.2735913121053415 49.10629634943524 9.466852447923404 0 0 0
1626 1 5.766118695763195 45.94953759860084 11.392542191593622 0 0 0
2641 1 10.840055887660844 47.28096328165152 7.45909871906432 0 -1 0
2377 1 12.867205768581899 50.13124130400095 7.052295198711369 0 0 1
506 1 5.349706687537406 49.70879630660052 7.131337282101517 0 1 0
1969 1 2.875703143688295 45.50030295866271 9.694567052294754 1 0 0
2894 1 5.3447827797038405 49.85670308096826 12.833496388201857 1 0 1
1191 1 11.644882363740878 48.884301864557784 11.768465682200704 -1 -1 -1
3811 1 11.12323036285436 49.60324952022884 8.964915924703757 1 -2 1
975 1 0.5122678045033293 35.09079400811616 21.729065230053298 1 1 0
4607 1 5.252547154088784 3.4052768914106766 10.843122658647635 1 1 0
3400 1 9.321611310332296 4.984166165359907 8.266258949735905 0 1 -1
4012 1 7.947558658204896 3.804490605244706 10.327324019540315 1 2 1
2801 1 9.306207553526905 1.6985202116888802 11.809847569543335 1 2 0
1531 1 13.919084662943943 48.90217941882074 15.111041358386444 0 -2 0
3356 1 11.59413950961063 28.464292855452484 1.680708782806482 1 0 0
1661 1 17.210540123798904 15.298620800717286 19.338843117489972 1 0 -1
4474 1 12.092321879584848 6.162270638278463 8.176566937516604 2 0 0
4557 1 13.00097115419812 3.182174131593711 9.61415766109609 1 2 1
4571 1 12.543755207320181 1.0277355132174002 14.725313608804933 1 1 1
2886 1 16.181788632243755 4.620913189740785 13.608142131377894 1 0 0
2669 1 4.106846483887817 37.28943991947391 5.439502407193155 0 0 1
1756 1 6.876798578984794 7.862676046070503 12.809277900934234 0 0 0
563 1 5.726856769700425 6.384170397905064 17.184890950097117 0 1 1
557 1 8.509623404024127 5.559710460138806 12.52753091557699 0 -1 0
2135 1 9.384588695534326 11.242056574886025 13.758702004284135 1 1 2
1393 1 13.310350725556704 8.806065616085766 13.360765773716468 0 0 0
2820 1 7.695590768571539 8.398993021471622 2.8130068804429182 2 1 1
3708 1 15.379237780046486 24.381358597609776 18.40484061661532 0 0 0
1967 1 6.17887237399569 10.529263578826878 14.298742758302023 0 1 1
2293 1 5.434509766796322 13.350632951202858 15.088621161641072 0 0 1
910 1 8.433752235429877 12.752282108107472 15.8959134971154 1 1 0
2554 1 11.498131557856938 17.69420499354285 18.117280692201323 0 1 1
3956 1 9.871445052544782 16.759724405761403 24.730839824057313 1 1 0
795 1 5.954407727769724 34.66023687249503 0.61850765520221 -1 0 0
836 1 0.3143447914876396 24.86248493569082 24.22285024228237 1 0 0
1518 1 0.1195500511075594 18.579300692399848 13.047743033574163 0 0 -1
378 1 2.442938518441462 12.52824939331032 14.030321057030342 1 0 0
4456 1 5.891180215778121 17.550930137281252 15.89038609598797 1 0 1
1795 1 14.35029503201911 17.795245678207635 16.878567008814883 1 0 -1
3075 1 9.597696565543787 15.475649934858136 14.84961147916167 1 -1 1
441 1 16.441191901988503 14.891452840988505 15.31923423316231 0 0 -1
2899 1 0.43574571414297436 14.645755281799877 10.118504515522542 1 1 1
3132 1 8.95467438189201 21.581446528343175 11.99163102992139 0 0 1
565 1 9.25276002650122 17.073033392588556 16.94313088358938 0 0 1
2927 1 5.556173837634427 20.64931064706763 15.585827646170388 -1 -1 1
3672 1 14.28431766289658 21.727727574168874 8.33700360895014 0 0 0
1295 1 12.76952379986911 21.89467841740372 13.006898040230618 -1 -1 1
2145 1 6.677054792922247 48.716529412996955 25.130697571514236 0 0 0
1060 1 0.6630561794307898 39.09233160549431 2.7909357337313976 0 0 0
299 1 2.3768891746976353 19.467095666156492 15.81474744222291 0 1 0
1274 1 -0.2584325295663379 37.3432376826103 4.669728661044145 0 -2 0
4472 1 -0.1151443331603638 26.93436913242319 13.447927437803664 1 1 0
1726 1 7.332756840912458 16.821232821471828 18.863678198501077 1 0 0
538 1 11.384691709691896 3.5992960428063383 22.649250928759052 1 0 -1
2315 1 17.486158392270877 41.99365985958731 14.368605147272852 1 0 0
3905 1 2.984793592502359 27.18882176212526 13.10932538869548 0 -1 1
1411 1 2.365520946856336 26.671353202187028 16.42100778717997 0 1 0
4393 1 7.741226418422604 22.650566341327956 15.963915060210624 -1 0 1