LAMMPS data file via write_data, version 29 Oct 2020, timestep = 0

9216 atoms
1 atom types

0.35899044199856434 104.250706516697 xlo xhi
-0.340501357255082 50.60941612703304 ylo yhi
-0.340501357255082 50.60941612703304 zlo zhi

Masses

1 18.015

Atoms # atomic

5 1 1.7826346290438846 2.288583911744508 1.741727941724455 0 0 0
3 1 3.158885143716249 0.4301592653896454 3.1473138321719305 0 0 0
10 1 6.846578969035796 3.5095193630415285 3.332610929754564 0 0 0
13 1 7.862149591496187 1.6109468519765626 1.7201544652127285 0 0 0
11 1 9.43699165330262 50.578869667604266 3.6748980239147397 0 -1 0
60 1 9.571475911392085 16.247605249233928 0.6242544649691733 0 0 0
21 1 14.375542395542977 1.779226386115436 1.7331601289832754 0 0 0
36 1 9.89071263303728 9.848421526919854 0.37463633840093863 0 0 0
19 1 15.884186558768912 50.422139827984424 3.470980283272075 0 -1 0
27 1 3.4312877329990865 6.518047877725055 3.3607372331864416 0 0 0
8 1 5.173359125462707 5.1657522621656105 1.7130809049930542 0 0 0
16 1 11.325099963852635 5.454566657181402 2.0171876457696247 0 0 0
35 1 9.200620282857178 6.651197121858221 3.457167383391903 0 0 0
18 1 12.719832806175125 3.5037428704286477 3.3857603737137127 0 0 0
530 1 0.4071470290629762 41.421853222146964 15.844807419237043 0 0 0
24 1 17.723136912085366 4.536212237030639 1.8149293370106045 0 0 0
43 1 15.946670019238436 6.329597458896756 3.3834952493185915 0 0 0
68 1 16.411839981445084 15.969432191273095 0.3423668875103658 0 0 0
29 1 1.7369058705725113 8.071010168462983 1.846557649189311 0 0 0
108 1 10.319472843416483 28.350231016946083 0.6830463110279589 0 0 0
482 1 0.5117544049714979 28.58794865887457 15.754307428724232 0 0 0
34 1 6.779404963143712 9.86737367887631 3.3897523912352137 0 0 0
37 1 8.136494951033537 8.21709183864944 1.6576070941779106 0 0 0
45 1 14.134920922622937 8.104397329219218 2.085156336605948 0 0 0
42 1 12.705263968471952 9.884094147779269 3.5116868541635897 0 0 0
697 1 0.5470529736519962 31.53811714091524 19.20083280746189 0 0 0
51 1 3.511477452192425 12.384700987438924 3.2844857598309813 0 0 0
32 1 4.836181862189774 11.038307719789172 1.4942728424616236 0 0 0
89 1 12.938442343523338 19.08434854095362 0.4692049228771859 0 0 0
59 1 9.872485072517449 13.680384111604218 4.087634823572236 0 0 0
40 1 11.137084210666192 11.750265760342527 2.5143824804836754 0 0 0
746 1 0.7220339091180819 47.5569122594424 22.268557446772196 0 0 0
48 1 17.74089722351689 11.201453480485739 1.7926033238085224 0 0 0
67 1 16.15110042590415 12.841540620894577 3.41390655008337 0 0 0
53 1 2.1958854164789896 14.23377206750308 1.887698503558855 0 0 0
44 1 15.882812363556061 9.410804582418919 0.5637417841443405 0 0 0
58 1 6.601108701661589 16.129478592893765 3.7939262585406834 0 0 0
61 1 8.142737729180494 14.667265823356493 2.2796161098178302 0 0 0
69 1 14.650372798128501 14.600803996861904 1.9071042419811726 0 0 0
66 1 13.13610343991934 15.879904161581976 3.626802967259996 0 0 0
1609 1 18.925608951165277 19.04744384683215 0.5392217011944384 0 0 0
361 1 0.5712275529493965 44.52184870218811 6.357898887974774 0 0 0
75 1 3.300162906053848 19.2203986756052 3.2451013050551287 0 0 0
56 1 5.0824130698299355 17.801705309442422 2.27740164942312 0 0 0
92 1 15.924299393821494 22.464563427056422 0.39954843404251505 0 0 0
64 1 11.170422765348611 17.411760012212433 2.2678320752473926 0 0 0
83 1 9.951919265787657 19.248606325325927 3.7850110411950357 0 0 0
12 1 9.437918308887001 3.9633764137463365 0.370769121114987 0 0 0
72 1 17.221962791888775 17.72118549499853 2.2384234943991053 0 0 0
91 1 15.936446809493127 19.428275113839256 3.941505330434545 0 0 0
77 1 1.8948443145567617 21.221919153337538 1.8508525081237543 0 0 0
595 1 15.935492628158611 0.5285341144186732 22.380072188414715 0 0 0
625 1 0.6078670745443004 13.145413812541346 19.375484600961315 0 0 0
82 1 6.903174069505227 22.091046969766747 3.4345427396818464 0 0 0
80 1 4.9974604823833095 23.789399648845922 1.9986754350686173 0 0 0
85 1 8.463742030447662 20.5483917752888 1.7833699699147523 0 0 0
88 1 11.376626078317608 23.442745079483224 1.8653515755484613 0 0 0
266 1 0.604910943971447 22.50284590907497 9.60947846905278 0 0 0
93 1 14.522857438408757 20.89384189923269 1.9883283022467426 0 0 0
90 1 13.061133250824765 22.23903197283901 3.380435785860757 0 0 0
96 1 17.75783689572322 23.775254985516476 1.7902379295018478 0 0 0
529 1 0.6372558855012795 38.06638644015396 12.369861207464373 0 0 0
99 1 3.3242321296685002 25.66753417958134 3.3769055891944 0 0 0
101 1 1.7905251366272996 26.963617066889036 1.7377153718582143 0 0 0
124 1 3.2883822054456178 34.63007602281672 0.4577641858322798 0 0 0
107 1 9.917693863442246 25.280221178558936 3.441002553442088 0 0 0
109 1 8.436861332879138 27.14097731764931 1.9399368058270137 0 0 0
117 1 14.716488949274273 26.715169294150897 1.6789427792963179 0 0 0
115 1 15.940972236819416 25.227350667876316 3.5207511470695554 0 0 0
762 1 13.378268524006934 47.475129444388756 22.550025133718755 0 0 0
106 1 6.726835126016139 28.645753996683734 3.450216993666372 0 0 0
104 1 5.132276196501988 30.33310920803994 2.1126766453521872 0 0 0
112 1 11.390790145695775 30.418945897051668 1.8953971431111487 0 0 0
114 1 13.173602906492135 28.481308619126775 3.301773584169362 0 0 0
120 1 17.415133774585026 30.453798371410713 1.8468554438370213 0 0 0
123 1 3.426231675328097 32.050866514139145 3.7086271722918323 0 0 0
125 1 2.029014904769083 33.08975319871402 1.891308550802534 0 0 0
892 1 3.544830094002642 34.91108287696464 25.11476625624187 0 0 0
133 1 8.279657127198277 33.22257701319154 1.8398652463186465 0 0 0
131 1 9.887031217363512 31.99962443168289 3.7270686345803306 0 0 0
141 1 14.292930430672266 33.332962203149165 1.7156458803557149 0 0 0
139 1 15.731140501995059 31.667463227672833 3.350505268695476 0 0 0
766 1 14.749448673866944 48.87776378185865 24.03302427259186 0 0 0
128 1 4.936161240078865 36.23833310632341 2.295363284949344 0 0 0
130 1 6.697044889870371 34.90078059742957 3.5130651226718395 0 0 0
136 1 11.467354230751697 36.48233070044532 1.8774806329689202 0 0 0
138 1 12.88506782363351 35.0133631928684 3.617730709894188 0 0 0
144 1 17.454557615106676 36.21865050071392 1.9191987691655075 0 0 0
164 1 16.284389625549736 41.310546942983095 0.6550760214217994 0 0 0
149 1 2.239288300169859 39.51121269709 2.0893266535395423 0 0 0
147 1 3.4315567558313393 37.87664121831551 3.894966935158582 0 0 0
4 1 3.5461720332993836 3.5752477857822638 0.3796758308506487 0 0 0
116 1 16.174858854710855 28.689743465243478 0.39402936204740513 0 0 0
157 1 8.086683555593318 39.579795924183585 1.7360276389362772 0 0 0
155 1 9.583267232277198 38.21628184319586 3.587087139155671 0 0 0
165 1 14.393242970549263 39.49710960200501 2.025419130488112 0 0 0
163 1 16.08886539562967 38.130240739957145 3.5853379009929003 0 0 0
194 1 0.39733685203471936 3.06167119506911 9.735266799185402 0 0 0
129 1 6.847752853421771 31.572403281842057 0.6723048391761822 0 0 0
49 1 0.40918223220856476 12.820951494219376 0.3436759683251154 0 0 0
152 1 5.046020357940345 42.82104410778901 1.5491908887795889 0 0 0
154 1 6.760395131897707 41.377713785621026 3.400524389552564 0 0 0
160 1 11.121559562787352 42.752068484603726 1.8917834412705374 0 0 0
81 1 6.518883379137681 19.36720759761704 0.40492471515831435 0 0 0
162 1 12.952603253766647 41.22064238542043 3.4903090862654707 0 0 0
168 1 18.00830009652841 43.09927436851682 2.4000634719586302 0 0 0
674 1 0.5848759444377123 28.371475348358274 21.902444943669085 0 0 0
41 1 12.658040891229168 6.534402490432858 0.34876820616192106 0 0 0
171 1 3.5499307220312044 44.29502032598293 3.191542774262592 0 0 0
173 1 1.8779211164072842 45.8627044941819 1.8790834078288594 0 0 0
314 1 0.6377245452838294 35.20320367011371 9.67907681606801 0 0 0
181 1 7.927043386928423 46.15507561621716 1.7183262924395903 0 0 0
179 1 9.734766754712556 44.52349978531103 3.484438290152623 0 0 0
189 1 14.12570993735823 45.92874475128741 1.7517294534756152 0 0 0
57 1 6.307626222324869 13.304991425793814 0.41399663697900146 0 0 0
187 1 15.770085548570332 44.27667653899985 3.5410948425384174 0 0 0
698 1 0.38636547395090304 34.81529841358389 21.918382051411733 0 0 0
178 1 6.242606657306536 47.3640397664835 2.9657294098935774 0 0 0
176 1 4.545141105577591 49.0206953567766 1.8478373443378124 0 0 0
265 1 0.363731932655602 19.140946310706923 6.095781941674341 0 0 0
184 1 11.316322614876503 49.17520378305798 1.834018869176838 0 0 0
1706 1 18.752276791503135 47.35590417211506 2.91267957044076 0 0 0
186 1 12.444336118648824 47.33352494264453 3.74139476437251 0 0 0
192 1 17.641008566895163 49.23627908475059 1.385518350681782 0 0 0
313 1 0.39743630985611844 31.582396436145494 6.3252065318200685 0 0 0
196 1 3.4289157981345166 3.3975405021034804 6.251484372059262 0 0 0
7 1 5.1123988088584476 1.8695211142744004 4.421298923467034 0 0 0
201 1 6.732664609690627 50.49047692792071 6.225837358536911 0 -1 0
15 1 11.317655236671257 2.2256206874966145 4.91754075823877 0 0 0
204 1 9.735037162040301 3.7187010640921656 6.6104177645906965 0 0 0
23 1 17.381039820962947 1.8242428788981475 4.909517082447565 0 0 0
212 1 15.813780921923511 3.4234790787274916 6.432147834539929 0 0 0
6 1 1.8488346877565454 5.092184331433735 4.821805360510238 0 0 0
225 1 6.41538912410925 6.787491053349801 6.734848853673459 0 0 0
14 1 7.951128053396413 5.036288405209387 5.372810954174124 0 0 0
22 1 14.150157131290616 5.089190970646474 5.005301699472689 0 0 0
233 1 12.881262106619998 6.596009542992875 6.693279398963721 0 0 0
758 1 8.347306039503007 48.928308554955194 23.976190205849296 0 0 0
220 1 3.4960429612258053 9.618327305571329 6.476534921550169 0 0 0
31 1 5.144219883374278 8.438555485108678 4.75548404204356 0 0 0
228 1 9.838257427241524 9.723937768233752 6.730133353473304 0 0 0
39 1 11.012068051839336 7.997859532275323 5.20881271423204 0 0 0
47 1 17.57721677400682 8.033744707026678 4.649661182740572 0 0 0
236 1 16.171782254882388 9.59572906744239 6.387202732912415 0 0 0
30 1 1.758618496200251 11.110828177958625 4.752928775333018 0 0 0
249 1 6.537346259254215 12.660011408183669 6.720908898160603 0 0 0
38 1 8.320587966164208 11.586806691315598 5.158727636403085 0 0 0
46 1 14.659234457542464 11.217438363707805 4.79544009917052 0 0 0
257 1 13.355676251537798 12.646664706101832 6.687476222641612 0 0 0
244 1 3.399889663801265 16.169785959422917 6.606427258823043 0 0 0
55 1 5.027148485300895 14.484493897845281 5.141953242873046 0 0 0
252 1 9.581630385733629 15.80164578807594 6.858725113128894 0 0 0
63 1 12.105655565689135 14.638215256616586 5.8432287583782285 0 0 0
260 1 15.824836108608588 16.01051422243155 6.629435450156971 0 0 0
71 1 17.823181464572475 14.652701217256071 4.863662228024018 0 0 0
54 1 2.0319118837377674 17.69480301721681 4.927280931754428 0 0 0
754 1 6.738571618457724 47.06943990982336 22.32612931997507 0 0 0
273 1 6.401370905158174 19.207565974830654 6.914215741516368 0 0 0
79 1 5.342297340127748 20.453056873565178 4.923225311631239 0 0 0
62 1 8.319114832696602 17.665607671050232 5.147376646302608 0 0 0
70 1 14.344319403757925 17.591526029336123 5.223242859868897 0 0 0
281 1 12.974717454648 19.361482339774756 6.296845063328775 0 0 0
673 1 0.5439932338956018 25.587407449066507 18.983794700632544 0 0 0
268 1 3.327375316615286 22.45670316229108 6.620291395936316 0 0 0
87 1 11.282763188697855 20.925162176946003 5.0706716535821 0 0 0
276 1 9.792184562257324 22.629352710392983 6.421326129775906 0 0 0
94 1 14.684867655971392 23.81949878575854 5.065080479725982 0 0 0
95 1 17.585270337470078 20.706258992134423 4.881598580490298 0 0 0
284 1 15.988228529701333 22.302359562547306 6.456582105644364 0 0 0
78 1 1.7656417082562383 24.055145701179303 5.195073514271064 0 0 0
297 1 6.031776789983092 25.547471357165534 6.5040969558820105 0 0 0
103 1 4.836177360465207 27.494999457244628 4.78873858407162 0 0 0
86 1 7.934808824871777 24.091204428049178 4.986081233833666 0 0 0
111 1 11.414867352477318 27.182697569328013 5.177839814598622 0 0 0
305 1 13.374603408666411 25.69735323191042 6.780890255551304 0 0 0
745 1 0.38567214568895736 44.24044583687446 19.234012987302126 0 0 0
292 1 3.486615958844402 28.76528061918346 6.928765667459482 0 0 0
102 1 2.1569212355595777 29.91212174540835 4.982169147264822 0 0 0
300 1 9.880448151558827 28.76371112031239 6.60163493346301 0 0 0
110 1 8.157945949946015 30.44561282093344 5.353929101570585 0 0 0
118 1 14.387667530388544 30.08112740893294 5.155804693590803 0 0 0
119 1 17.88537426936546 27.26331952302995 4.678156474793743 0 0 0
308 1 16.388222800399095 28.6284096060835 6.419941694194496 0 0 0
321 1 6.707901900607997 31.66076408112229 6.819413187260018 0 0 0
127 1 5.22639453806533 33.55952606302547 5.383255444657954 0 0 0
135 1 11.373778457476662 33.66077071977658 5.399105116245669 0 0 0
329 1 13.107823000215296 32.01855098777611 6.378508270469628 0 0 0
143 1 17.659608260732046 33.214052598354726 5.095889591123148 0 0 0
146 1 0.3926088802861972 41.23611660957242 3.5427716830103524 0 0 0
126 1 1.939152026717324 36.2371622664904 5.295163812950983 0 0 0
316 1 3.4004604458782826 34.87039101011118 6.866544650406119 0 0 0
324 1 9.640131521343479 35.34588659110099 6.858231154262754 0 0 0
134 1 8.032640507469054 36.51218440826716 5.104615563647543 0 0 0
142 1 14.415054292238867 36.595738244362224 5.121230991155603 0 0 0
332 1 15.938101555101479 34.852491877280656 6.639479309619538 0 0 0
553 1 0.44704468516700047 44.68207256135001 12.950001755870082 0 0 0
151 1 5.020734460167454 39.6900408776949 5.284387715044715 0 0 0
345 1 6.631853578231275 38.42881064900713 6.711149670977847 0 0 0
159 1 11.295732576807417 39.72005407588827 4.816615047865673 0 0 0
353 1 12.755971073795923 38.24973844447369 6.647529987950629 0 0 0
167 1 17.534109217138575 39.57682769819722 5.183548205180973 0 0 0
150 1 1.9190173941024826 42.59946820273677 4.9003436449376965 0 0 0
340 1 3.291759551938638 41.35264822227964 6.71743201510036 0 0 0
158 1 8.067111292891841 43.050536830820334 5.040498669551592 0 0 0
348 1 9.621703059007869 41.43123951245077 6.44191235637325 0 0 0
166 1 14.755728516598108 42.57660990742602 5.320232218948152 0 0 0
356 1 16.221882626599207 41.05447802755026 6.842859658284005 0 0 0
65 1 12.947613171732266 12.930344443610307 0.7698969300166061 0 0 0
369 1 6.396269596256872 44.6135886850512 6.4678311079202855 0 0 0
175 1 4.98705736735746 45.916384030472926 4.774876420885687 0 0 0
183 1 11.183859682270556 45.58002035784867 4.9695668960757695 0 0 0
377 1 13.2471020219801 44.26576698823284 6.540073107406921 0 0 0
191 1 17.359588689952506 45.53158708554625 4.952591339227028 0 0 0
579 1 3.483438446295912 50.43739683071341 22.425076760032457 0 -1 0
364 1 3.6684299190652365 47.75686717417311 6.419573346418008 0 0 0
174 1 1.5636672812144654 48.798670246570495 4.673325536799685 0 0 0
372 1 9.653013065012221 47.034173166945564 6.492571525153759 0 0 0
182 1 8.156741695915331 48.48828829204059 4.76647074047798 0 0 0
209 1 12.845071201167295 50.42391894172701 6.4915532803885 0 -1 0
190 1 14.394297605787212 48.71790986310735 4.981315478206838 0 0 0
380 1 16.041429312001636 47.1608768793611 6.868177726893047 0 0 0
750 1 2.0365622631379585 48.91514437732489 24.136752524579677 0 0 0
337 1 0.5337501947383341 38.068314675951996 6.721377005527292 0 0 0
197 1 1.8804988235192712 1.685691860859929 7.5800561486675235 0 0 0
205 1 8.33913458562364 1.7702702456477661 7.923481493939244 0 0 0
203 1 9.652393975605742 50.29201524870916 9.476568339714662 0 -1 0
213 1 14.538599785622058 1.7833178564131402 8.020431894384295 0 0 0
210 1 12.877117546108844 3.29568182685258 9.589523974929058 0 0 0
650 1 0.9307541529370479 22.814306767404553 22.37195810873517 0 0 0
219 1 3.202244669944116 6.702848905008634 9.673430723699346 0 0 0
202 1 6.570864007404765 3.47557837907422 9.691352701720072 0 0 0
200 1 5.072922769186595 4.793133075054109 7.857344205426051 0 0 0
227 1 9.572660451917796 6.390828498850816 9.936022005084844 0 0 0
208 1 11.19456320122009 5.099207833132264 8.337510773625414 0 0 0
216 1 17.439702286809506 4.940361913712595 7.97145287327519 0 0 0
235 1 15.759359068164477 6.554653872130453 9.802551435050468 0 0 0
221 1 1.8079311897387564 8.452131922199495 7.897645958360471 0 0 0
226 1 6.767009836921973 9.38204831995074 9.799920933915308 0 0 0
229 1 8.306520678320588 8.012033332363176 8.28676026086259 0 0 0
237 1 14.512766204447194 7.934939975428171 8.117763022232317 0 0 0
234 1 12.97655965046125 9.66271867166601 9.808835000997092 0 0 0
602 1 0.4164573942949852 9.593110716554385 22.024036069143648 0 0 0
243 1 3.3160977750829157 12.575667689731713 9.471531697494491 0 0 0
224 1 4.997075583613135 10.938583665333903 8.032230541692876 0 0 0
251 1 9.985586735836199 12.777694272590736 9.572428620645416 0 0 0
232 1 11.8090056864884 11.194544009084387 8.233076713337171 0 0 0
240 1 17.894938221897206 11.194834991254922 8.174868465052306 0 0 0
259 1 16.467578970613708 12.573884547698142 9.628980097955544 0 0 0
245 1 2.027597780722645 14.530546345386457 8.24557916209541 0 0 0
250 1 6.2710465100946475 15.64500981696184 9.913618241410157 0 0 0
253 1 8.11476422119942 14.224703397265902 8.261037050452735 0 0 0
261 1 14.83406438871466 14.08274709441653 8.307162259954882 0 0 0
258 1 12.803633567976329 15.562757563656469 9.311960920616597 0 0 0
263 1 17.67328800244923 14.133820572029768 11.315871295814974 0 0 0
267 1 3.2271891769384506 19.619684880738617 9.988160306674638 0 0 0
269 1 1.5599111772038778 20.619532288387788 7.908650714809098 0 0 0
248 1 4.587622636826679 17.557291015942173 8.422465011866723 0 0 0
275 1 9.838953452292142 19.16791669038531 9.466150417835607 0 0 0
256 1 11.48640796394712 17.55066927823144 7.895953568204033 0 0 0
283 1 15.743723177513544 18.884960979500498 9.511452592792578 0 0 0
264 1 17.757170071331238 17.39944048080796 8.3250987442605 0 0 0
277 1 8.228055800038229 20.61519297849914 8.121077254809816 0 0 0
274 1 7.012216887029252 22.087552429883257 9.64719449170631 0 0 0
272 1 4.810179291652133 24.136247877785134 8.171201623843338 0 0 0
280 1 11.519324128590911 24.30161367211069 7.997829987558484 0 0 0
285 1 14.304431050957296 21.11257697506961 8.060480975041521 0 0 0
282 1 12.654013651948736 22.578619146768972 9.56096805385281 0 0 0
291 1 3.4679998539244417 25.82235658766407 9.638862982018631 0 0 0
293 1 1.6619867724844324 27.24023170949625 8.393061891764154 0 0 0
299 1 9.834359305478783 25.715637245397506 9.543315039298292 0 0 0
301 1 8.20376690326406 27.11759633110893 7.7567741472085325 0 0 0
309 1 15.019171004143544 27.17068070064908 8.249029147704018 0 0 0
288 1 17.659727175289067 23.878862090519448 7.812085539258123 0 0 0
307 1 16.354037396809016 25.39387268045718 9.628545626814965 0 0 0
311 1 17.985022081637858 26.885457231877087 11.272199383530008 0 0 0
601 1 0.5473693433382252 6.60931041255234 19.04710308252669 0 0 0
294 1 1.9784703029376545 30.337925331009007 11.45586047019947 0 0 0
298 1 6.684924435281051 28.680777895183844 9.449033308922829 0 0 0
296 1 4.899582096281962 30.49774328112299 8.185915866998421 0 0 0
304 1 11.517418022407352 30.32005576666381 8.282763236093171 0 0 0
306 1 13.040050378261778 28.83055458518319 9.629588133369896 0 0 0
312 1 17.980953199337456 29.968605775342237 8.003523419126429 0 0 0
2042 1 19.188815560325473 34.847504935066226 15.852406846726865 0 0 0
315 1 2.8581445646292116 31.7211491373876 9.58350625757632 0 0 0
317 1 1.5479335170764155 33.359956858121734 7.9229542359064595 0 0 0
319 1 4.552669531185088 33.381752211546285 11.004584029635751 0 0 0
325 1 8.284409913267002 33.34282732561526 8.257388039354137 0 0 0
323 1 9.765677294361687 31.649854047298383 9.61039801161963 0 0 0
333 1 14.583938437951122 33.419770041137866 8.07526214021356 0 0 0
331 1 16.18316100017585 31.731298799011416 9.473498784976785 0 0 0
318 1 2.662987362351671 36.32938328447217 10.99502697709898 0 0 0
322 1 6.45113317672094 34.80832138662636 9.277378989803072 0 0 0
320 1 5.013205414684484 36.78010383597946 8.167829748984117 0 0 0
328 1 11.457423629208758 36.45508416506554 8.270234408453039 0 0 0
330 1 13.067696417254298 34.882425795893425 9.676951378175621 0 0 0
336 1 17.605437585950696 36.313708133561036 8.143876229146084 0 0 0
341 1 1.8737533694159592 39.90173076271262 8.37822495819648 0 0 0
339 1 3.625346603322916 38.36847453919626 9.601037160611302 0 0 0
349 1 7.971574934261804 40.092384557646966 8.004440860212242 0 0 0
347 1 9.56177642742727 38.030765376674424 9.682283267146557 0 0 0
357 1 14.39300596667394 39.7830185198151 8.206257309095765 0 0 0
355 1 16.22696648289599 37.81396543767865 9.80207388850928 0 0 0
2305 1 19.17938353295678 0.8287603159651076 25.123162962094888 0 0 0
344 1 4.885277806904867 42.94515308306384 8.308340570410557 0 0 0
346 1 6.664334965271013 41.20382773613093 9.810021607388936 0 0 0
352 1 11.636364095494603 42.877834479751655 7.725274039022578 0 0 0
354 1 12.859381042467502 41.34977488632437 9.671709074628664 0 0 0
360 1 17.91525888175915 42.64582153542099 8.618166666062848 0 0 0
379 1 16.543349434487737 44.32480669019405 10.05517796387052 0 0 0
365 1 2.142784684966533 46.02628623425345 7.804638383746635 0 0 0
363 1 3.498040956201351 44.587007260827335 9.524674984990991 0 0 0
371 1 9.891944300787992 44.3873426076497 9.636562308637926 0 0 0
373 1 8.31097814524124 45.75569377368274 8.083676347365504 0 0 0
381 1 14.845661228499274 45.565657072824166 8.426825218389526 0 0 0
1658 1 18.871659110337976 34.45418918682216 3.5047921730350344 0 0 0
195 1 3.6112142403299003 0.759347691210635 9.411804985385663 0 0 0
370 1 6.754661322801561 47.61438455495609 9.724058767195878 0 0 0
368 1 5.302534605788714 49.422626328020385 8.093697794449668 0 0 0
376 1 11.215129467587545 48.78812812606691 7.87788058137764 0 0 0
378 1 13.224690895985953 47.090683745389214 9.416147722325446 0 0 0
211 1 16.23196342412907 0.4714800135319308 9.426623280759319 0 0 0
384 1 17.722608211367145 48.878958581279605 8.30141944646855 0 0 0
389 1 1.6527539117658903 1.7739510715710174 14.476369818611719 0 0 0
388 1 3.3965375572676604 3.198324060353579 12.672695559023882 0 0 0
199 1 5.175535953398211 2.136724987938256 11.332601029591741 0 0 0
393 1 6.85420565131047 0.3652078766258755 12.788060764258011 0 0 0
207 1 11.187120466779717 2.066640490781479 11.15353678557021 0 0 0
397 1 8.270792909671357 1.9767718107350118 14.493767861279165 0 0 0
396 1 10.05359173416995 3.5306611144559095 13.097278413135811 0 0 0
401 1 12.895369000841137 50.390629139810315 12.25738546885391 0 -1 0
405 1 14.615878660015838 1.4032179035638193 14.262530518565212 0 0 0
215 1 17.468027120430776 1.6149111306224135 11.320880263950016 0 0 0
404 1 16.184169089810283 3.326367938768192 12.945963928587775 0 0 0
198 1 1.8652601451238413 4.95493898281304 11.237940132581038 0 0 0
417 1 6.451771051239812 6.397600307735442 13.232549880866822 0 0 0
392 1 4.8680066272715035 4.916702643053595 14.790475265643522 0 0 0
206 1 8.208595034004706 4.727434039938199 11.720513272261453 0 0 0
400 1 11.427522859285576 4.795474850499596 14.73748847130394 0 0 0
214 1 14.401008854921072 4.690886868194386 11.386642242785188 0 0 0
425 1 12.81389875176636 6.530774532846768 12.977183129704889 0 0 0
408 1 18.241867062003095 5.03737826789659 14.063021977566066 0 0 0
577 1 0.6829849879201149 50.37702478963428 19.215039256260074 0 -1 0
412 1 3.413325651081664 9.476683346607071 12.854875263053192 0 0 0
223 1 4.740192857436316 7.959501808871768 11.238430756180726 0 0 0
421 1 8.242102346460682 7.809974251922777 14.521612864209068 0 0 0
420 1 9.58513931461641 9.742018570054398 12.95977318332209 0 0 0
231 1 11.300556523908895 8.347900761129594 11.391551528782607 0 0 0
429 1 14.557982245160161 8.463738704745898 14.435581829433245 0 0 0
239 1 17.647916948087357 8.296659688559103 11.367136708010765 0 0 0
428 1 16.07025612913011 9.915363119481981 12.984591965416842 0 0 0
222 1 1.4914046903962872 11.261710881626042 11.495481371276938 0 0 0
441 1 6.658512236799822 12.413275135957106 12.782568445213592 0 0 0
230 1 8.47200045118779 11.321267741620199 11.225540751810096 0 0 0
424 1 11.318930527173517 11.420297766794922 14.270275155784853 0 0 0
238 1 14.640461135136778 11.22852963470734 11.276093527024223 0 0 0
449 1 13.120919304266438 12.609765362109222 12.865470549678154 0 0 0
1681 1 19.181083369142325 37.82513001119217 0.4754191858683645 0 0 0
432 1 17.79541231959028 11.037005939388779 14.432907964425532 0 0 0
436 1 3.4049829723825935 16.13390046221149 12.8131808964037 0 0 0
437 1 1.5778398596303451 14.635373856206753 14.390351921256729 0 0 0
247 1 4.863416755695706 13.829483937861346 11.405156434981125 0 0 0
255 1 11.236855885495148 14.277878894533915 11.403375261259978 0 0 0
444 1 9.732150365089876 16.081186574780027 12.561372834892687 0 0 0
445 1 8.216450382846224 14.492099867144445 14.254236950540042 0 0 0
453 1 14.80512997195816 14.011019364366145 14.572772915305645 0 0 0
452 1 16.214444374675764 15.66086511498648 12.698744461023347 0 0 0
246 1 1.896276176795521 17.540519029981716 11.170370168054365 0 0 0
465 1 6.660970918587144 18.763178613843788 12.891316693749614 0 0 0
254 1 8.048826381199397 17.59827603569011 11.112486281437759 0 0 0
448 1 11.25714965071118 17.661933908637998 14.058593742557191 0 0 0
262 1 14.274323237565964 17.156097630511784 11.235899115979091 0 0 0
473 1 13.136599411419896 18.925161597037665 12.644512181674207 0 0 0
456 1 17.921150920352623 17.449307405274105 14.596266255657802 0 0 0
460 1 3.4342875056411546 22.599037525177806 12.797974008753247 0 0 0
461 1 1.7386671910822291 20.923845435548323 14.283406345557259 0 0 0
270 1 1.9097809996034454 24.252368991632068 11.394779867702361 0 0 0
271 1 5.098470865196929 20.83563228057356 11.312910848793829 0 0 0
469 1 8.449795223805598 20.46001454007936 14.09947204029172 0 0 0
468 1 10.038905187924117 22.19102910295073 12.645000578259378 0 0 0
279 1 11.475867979854092 20.37980271306209 11.01591910620416 0 0 0
477 1 14.798808493424744 20.90684138954855 13.816938116824058 0 0 0
287 1 17.510004082641977 20.43017851244115 10.866408736332323 0 0 0
476 1 16.1543815152954 22.26018618648225 12.111314808350526 0 0 0
763 1 16.29997370769356 44.55170483402952 22.159690866459645 0 0 0
485 1 2.027739889868869 26.99059197585991 14.230546927380798 0 0 0
464 1 5.0678869053770885 23.632919816869887 14.246509762848435 0 0 0
489 1 6.593133725279729 25.247535321698543 12.534136380530658 0 0 0
295 1 5.247746691345774 26.909910793857215 11.264138135997841 0 0 0
278 1 8.595423610380063 23.81972007323313 11.310060180908451 0 0 0
303 1 11.56445483212429 27.112451194857055 11.311892226925686 0 0 0
472 1 11.661026839581275 23.560594644592342 14.010166099643477 0 0 0
493 1 8.33612994884641 27.009925590998268 14.124347567165747 0 0 0
286 1 14.34708220674079 24.017715512863543 10.88870726348023 0 0 0
497 1 12.935195702254964 25.415052836119845 12.492246387556802 0 0 0
480 1 17.512495323558237 23.726679989296844 14.009037797666497 0 0 0
767 1 17.799672864000733 46.26725913529221 23.673827509147415 0 0 0
484 1 3.7899009579417564 28.43942200986836 13.090026584502654 0 0 0
302 1 8.37995943866591 30.30077674096946 11.044944198278122 0 0 0
492 1 9.938620839759027 28.788159431803564 12.95727076202336 0 0 0
496 1 11.4136132768426 30.20682170506201 14.298206128216325 0 0 0
310 1 14.701884756070598 30.407384798352332 11.522321834808112 0 0 0
501 1 14.720013575918218 27.056526711713214 14.220011626218465 0 0 0
500 1 16.061253351113436 28.439439262530314 12.543228519940048 0 0 0
504 1 17.647069392885875 30.18185988391633 14.463334502303297 0 0 0
2138 1 19.032034610561244 9.3075420992125 22.15532103231809 0 0 0
509 1 1.6710657611581026 33.02973763529042 14.232721422370314 0 0 0
513 1 6.436127152166324 31.56726455510546 12.59944271393116 0 0 0
327 1 11.161169026003062 33.434095511262555 11.39292393700766 0 0 0
517 1 7.903136047466765 33.39539611913413 13.976849781033106 0 0 0
521 1 12.857778808478267 32.02328773107942 13.14474435314574 0 0 0
335 1 17.729112661326276 33.25193134695202 10.911095683332189 0 0 0
508 1 3.6122834569238425 34.803888658183965 12.967160868435522 0 0 0
512 1 4.809413858787237 36.77516439662418 14.171701508413369 0 0 0
326 1 7.893380587877046 36.31424512746801 10.917232967610886 0 0 0
516 1 9.568181486624614 34.86656405204114 12.69065703864493 0 0 0
334 1 14.506596505494947 36.40331951383163 11.253883159062841 0 0 0
524 1 16.21745984582493 35.14498053039577 12.879483792895767 0 0 0
533 1 1.8164837123163997 39.799080764794354 14.280302068179697 0 0 0
343 1 5.319930860180738 39.63498940905458 11.265227326302398 0 0 0
537 1 7.027197858154632 38.057371678471156 13.052529444419129 0 0 0
351 1 11.268792130959413 39.80665367212684 11.395275910086058 0 0 0
541 1 8.738462726511136 39.54679905186666 14.556362670868722 0 0 0
545 1 13.137360732582597 38.25283894501038 12.581425102800921 0 0 0
359 1 17.702385026158538 39.408748845971644 11.202528556105259 0 0 0
342 1 2.0822987268052033 43.14644210939247 11.487980837542532 0 0 0
532 1 3.5128589962135965 41.23040637440337 12.790817640768365 0 0 0
536 1 5.650179786156236 42.526902188698 13.791494784380278 0 0 0
350 1 8.379220807373423 42.70715154808123 11.314170699183581 0 0 0
540 1 9.96357321780738 41.34002273095582 13.050531599932743 0 0 0
358 1 14.554520523228534 42.66442743212646 11.021398464393444 0 0 0
548 1 16.283253843975466 41.21460231889502 12.6635773219308 0 0 0
410 1 0.5094481078596984 9.687709521454666 16.116778988681943 0 0 0
557 1 2.2479366934972473 46.24672666974142 14.137183980182611 0 0 0
367 1 5.006069981311707 46.31334432639598 11.056649556889743 0 0 0
561 1 6.615670281255935 44.60572141139181 12.53282349638588 0 0 0
375 1 11.52521684450533 46.11158672423221 11.213588319004105 0 0 0
565 1 8.209139026219116 45.68790582912551 14.441363077865764 0 0 0
569 1 13.192989961530495 44.38808317081508 12.516072029922428 0 0 0
383 1 17.504303963610386 45.965002411415995 11.691345356739745 0 0 0
572 1 15.836762178895514 47.72034414701238 13.115061960479402 0 0 0
556 1 3.263566099633465 48.06766639934263 12.387362172315942 0 0 0
366 1 1.4956336534927075 49.34284704833375 10.799848486141988 0 0 0
560 1 4.985296735616577 49.200641234667344 14.273659777712789 0 0 0