LAMMPS data file via write_data, version 29 Oct 2020, timestep = 100000

8521 atoms
1 atom types

0.17523735877520608 104.43445959991973 xlo xhi
-0.430616380680636 50.69953115045761 ylo yhi
-0.430616380680636 50.69953115045761 zlo zhi

Masses

1 18.015

Atoms # atomic

1657 1 3.2348800704554055 2.1606603628846974 0.26576705271300594 0 0 1
1729 1 1.4447181494515058 0.0011297678394485144 1.6632193939306243 0 1 1
1550 1 9.695453659794405 1.3590878353413571 0.553796988764432 0 0 1
2037 1 15.890608377309961 1.216314930274103 0.08185852467006693 0 0 1
2743 1 22.19608790940247 2.448589040853104 0.6297509280075777 0 0 1
2328 1 26.38137595035171 0.32684782213501684 2.159327866876164 0 1 1
2747 1 28.047511498590445 2.1272733746979893 0.5901683362423471 0 0 1
2750 1 34.338730872804625 2.221059227232055 0.5729257958685248 0 0 1
1451 1 0.5219760358137053 5.245281940269959 -0.02914675518739568 0 0 1
2034 1 4.821722229697489 3.9856122710105852 1.6471565147241942 0 0 1
2033 1 6.173469549153269 5.216085790202054 0.2257157968361343 0 0 1
2035 1 10.852936330133673 3.9799239705971523 1.99198726104057 0 0 1
2036 1 12.443685034332288 4.977681527631624 0.07962845958398657 0 0 1
2038 1 17.461998124853913 3.318864982160016 1.9289432243632105 0 0 1
2112 1 18.733489867287737 5.5902338366020174 0.26403548996314474 0 0 1
2744 1 23.515915885988328 4.481712058720466 1.675556692030376 0 0 1
2745 1 25.29903890149216 5.698787518510125 -0.10919012097682007 0 0 1
2748 1 29.811297899798536 3.778467152573593 2.1285533934364067 0 0 1
2749 1 31.33913193802783 5.167932000835683 0.5580118354412468 0 0 1
2040 1 1.6807282255063274 6.923813122316401 2.11698175571402 0 0 1
2039 1 3.4741526186535774 8.34466282561143 0.48847840499567785 0 0 1
2042 1 7.948116519508464 7.008732023107853 1.5519985450104326 0 0 1
2043 1 9.697346400562562 8.384284176957506 0.1231251720446247 0 0 1
2044 1 13.910281966612116 6.790928088193159 1.7867123813472285 0 0 1
2045 1 15.846102302646479 7.876856244214414 0.25343462805398465 0 0 1
2752 1 20.481320170562384 6.453837453197301 1.7025791989557049 0 0 1
2751 1 21.914587483026725 8.446254759858023 0.4442447368324416 0 0 1
2754 1 26.744177923566962 6.892717259349819 1.9958441325566887 0 0 1
2663 1 28.29272473229721 8.73860730346934 0.6928704717051464 0 0 1
2755 1 33.02361962243051 6.462408969736832 1.8281096187090702 0 0 1
2757 1 34.72811911262399 8.099472764402547 0.42616849019235936 0 0 1
1617 1 0.30222263442976627 11.200005068292342 0.45632802233334 0 0 1
2047 1 5.150864195232924 10.031891908145008 1.5232336859676936 0 0 1
1948 1 6.546684489037287 12.10298944453005 0.4051708635509639 0 0 1
2048 1 11.32373741454416 10.140266713868357 1.9364577439193589 0 0 1
2050 1 12.892537503300607 11.717056358677137 0.5175154856168871 0 0 1
2051 1 17.078072822034446 9.757815135218053 2.096390410222743 0 0 1
2742 1 19.14019816133393 11.173535007852582 0.33437793656805037 0 0 1
2768 1 20.83109433738613 12.722742231865412 1.663818125401248 0 0 1
2760 1 23.66383162073278 9.851752456496914 2.2424537471804142 0 0 1
2761 1 25.486390851424996 11.80135854823721 0.5870509718793107 0 0 1
2762 1 30.088619403718806 10.045529983966967 2.1208910484592955 0 0 1
2764 1 31.737109099405334 11.375535821731763 0.3422350242008614 0 0 1
2053 1 1.6467378817561633 12.980829486613914 1.8964074184678745 0 0 1
2052 1 3.548287763742072 14.821249387458604 0.23977971003821752 0 0 1
2054 1 8.070475904332387 13.329574833807866 2.098190734129966 0 0 1
2055 1 10.01176350871706 14.945333996512137 0.5968272588519592 0 0 1
2056 1 14.335782112811481 13.263489749529619 2.2391695249032573 0 0 1
2057 1 16.311680507958204 14.491589762610747 0.8040025119966376 0 0 1
2767 1 22.174904502246108 14.807841173575966 0.5101860605745775 0 0 1
2770 1 27.07089888605789 13.01643417986013 2.1455018221962776 0 0 1
2769 1 28.67817127818252 14.65337314658707 0.38342913349160024 0 0 1
2771 1 34.11395950619277 12.986170124128131 2.1004277552284703 0 0 1
2059 1 4.438016196382101 16.451619416091713 2.1640562311075833 0 0 1
2058 1 6.4477197234588095 17.45830621198843 0.6083025763596512 0 0 1
2060 1 11.407939272573866 16.56146473627502 2.5897893079769765 0 0 1
2062 1 12.830090005548195 18.017201270722147 0.5655630840577452 0 0 1
2063 1 17.981894911641362 16.127725775817726 1.7196578248096488 0 0 1
2780 1 20.404391975433114 19.091172955350192 2.344622410130556 0 0 1
2632 1 19.389038029239483 18.028892966931707 -0.04222009919894487 0 0 1
2775 1 24.058815176041314 16.479134864988435 1.9398737580913483 0 0 1
2774 1 25.36734233161028 18.23821649028607 0.36752238453808206 0 0 1
2776 1 30.380628618822207 15.972313654398103 1.8967605237078025 0 0 1
2778 1 31.86641717044134 17.9169572209491 0.6980490583588659 0 0 1
2064 1 1.6843479941446644 19.563208482274437 1.8710365833861085 0 0 1
2065 1 3.272695005465366 20.946023153677487 0.15432916080191783 0 0 1
2068 1 7.7520572336106435 19.195201519934766 1.9974022110722198 0 0 1
2069 1 9.478490948157665 20.989013610935984 0.4773259645243766 0 0 1
2070 1 14.402898847121278 19.394517523497857 1.8716800836234344 0 0 1
2071 1 15.900060906799817 21.055252458424942 0.5612948801558414 0 0 1
2781 1 21.916745824401893 20.749726606562636 0.41329206993120116 0 0 1
2783 1 26.599811574669864 19.77862741106427 1.9801451642606587 0 0 1
2784 1 28.328600977078604 21.099893443631125 0.46194685326548857 0 0 1
2785 1 33.457097693546864 19.590708087825142 2.076314579288156 0 0 1
1456 1 0.49265041686721944 24.413915283959046 0.22067131319767996 0 0 1
2067 1 4.941944417990263 22.55756821199941 1.584401997259735 0 0 1
2074 1 6.338612897716505 24.033192316861236 0.1355805257750884 0 0 1
2075 1 11.155460496838371 22.36903471527429 1.921561252390501 0 0 1
2077 1 12.790524629522512 23.87670991166399 0.48480465846895426 0 0 1
2080 1 17.395901173358236 22.689618094250733 2.13015488002089 0 0 1
2190 1 19.292616968750835 24.050557625970736 0.3207578001406025 0 0 1
2788 1 23.469157371596285 22.628779205083113 1.8483923276755307 0 0 1
2789 1 25.76592206551024 23.987833075817978 0.444159205386093 0 0 1
2790 1 30.36492202964713 22.770902565110447 1.7005704497121945 0 0 1
2792 1 31.728822408192197 24.665341419267566 0.1280640562701164 0 0 1
2073 1 1.915163680548256 25.734809557023468 2.1206426088398924 0 0 1
2081 1 3.2356902351215036 27.4758204484756 0.34998692602313486 0 0 1
2076 1 7.839334462427732 25.578183564054537 1.842268256121693 0 0 1
2084 1 9.66600702166944 27.11491082516677 0.33908965324137463 0 0 1
2078 1 14.304526698630033 25.855643942122775 1.8466231168568203 0 0 1
2087 1 16.218884808586118 27.342111325373892 0.41149048771080843 0 0 1
2794 1 20.71614286851262 25.583961688404123 1.9592591077018988 0 0 1
2795 1 22.369826076648142 27.332544933383787 0.6302629794484647 0 0 1
2791 1 27.051067464840347 25.747865857960633 1.6425649141438248 0 0 1
2799 1 28.56898831213495 27.295656235213546 -0.16634439625420105 0 0 1
2798 1 29.739412209618425 28.747182660796604 1.8112009813039864 0 0 1
2800 1 33.493037507653895 25.63711119514628 1.7792381205879106 0 0 1
2090 1 1.707530772687893 31.722413336623458 2.075680008083015 0 0 1
1295 1 34.83955139063545 49.557176108318814 23.145652330229474 0 0 0
2082 1 5.04447416304943 28.964758804563136 2.266105729380027 0 0 1
2092 1 6.5707693479111375 30.473352803625385 0.5270850451638244 0 0 1
2094 1 8.544369675518112 31.572982901877143 2.030198566104816 0 0 1
2085 1 11.216229915466013 28.94268777228786 1.7647970290941992 0 0 1
2095 1 12.780435616250687 30.30497685608199 0.11254013406561003 0 0 1
2088 1 17.29638435754622 29.10873106852744 1.9799711456755134 0 0 1
2091 1 18.965389812734998 30.639218741671872 0.1455747794095006 0 0 1
2796 1 23.69112116380363 29.061665498090523 2.0968378556417346 0 0 1
2805 1 25.2972800954987 30.07549418573175 0.23787218445383496 0 0 1
2807 1 26.722121720678757 31.603293639435297 1.9351982232798228 0 0 1
2753 1 31.796591381961846 30.21631270681679 0.7767315539221802 0 0 1
2797 1 33.57388034829272 31.859782232803955 2.2739582682782857 0 0 1
2097 1 3.1976876227184667 33.60336367064552 0.450901006085652 0 0 1
2098 1 5.126810835420448 34.990292419116045 2.1674940624863273 0 0 1
2100 1 9.25044422086371 33.51296566628376 0.10689673054265936 0 0 1
2099 1 11.044238935839607 35.08965822284591 1.5988356263965353 0 0 1
2101 1 14.44326470056532 32.04313366371164 2.0026657090297655 0 0 1
2103 1 15.97332038416585 33.5680681853778 0.4110811302236851 0 0 1
2804 1 20.42116124402456 32.35290395206249 2.043484727098194 0 0 1
2741 1 22.286110898525756 33.46601687949551 0.45613834214458227 0 0 1
2806 1 28.54528576457857 33.43552099467158 0.35515283736266157 0 0 1
2782 1 29.730824454984912 34.76797786684932 2.087621638768564 0 0 1
2563 1 34.7261348901296 33.58377642569913 0.5810438441565415 0 0 1
2107 1 1.3919882005195148 37.99345126599053 1.9091055313699599 0 0 1
2106 1 6.427584364259039 36.883381817312014 0.7901605277073771 0 0 1
2105 1 12.933706449204623 36.82965209255825 0.2885104951854006 0 0 1
2104 1 17.331864424485907 35.436502892828514 2.15522507457768 0 0 1
2280 1 19.20879018397851 36.74403279511574 0.35274969615855767 0 0 1
2779 1 20.332131709361818 38.25336874699414 2.23111874036005 0 0 1
2786 1 23.577427836538465 35.153494069913805 2.2215240467831276 0 0 1
2772 1 25.076143326787726 36.77457057010683 0.45648777464750323 0 0 1
2759 1 26.703320122410446 38.02475281483949 2.0550393334567683 0 0 1
2683 1 31.31203093103754 36.32116054346355 0.44779353911382336 0 0 1
2756 1 32.83026219570314 38.2482860375646 1.9738697390083515 0 0 1
2096 1 3.00435435475565 39.62767890840627 0.39436099873989694 0 0 1
2079 1 4.708420968460591 41.24652659060477 1.7288734270500705 0 0 1
2102 1 8.15434108082294 38.52520717407762 2.091934826754575 0 0 1
2032 1 9.642420177351308 40.06702434359836 0.19281949073617377 0 0 1
2072 1 11.092310784743605 41.34896120724126 1.9093686398718375 0 0 1
2030 1 14.357186741779666 38.39510408214733 1.8154105471529607 0 0 1
1986 1 16.180708803259925 40.03320536364099 0.32934456617264507 0 0 1
2581 1 22.193844048895972 39.79223482152551 0.7298219976674494 0 0 1
2588 1 23.757978058922014 41.18536943417833 2.3188769278826658 0 0 1
2700 1 28.334225792976586 39.62123128340032 0.5869315095261101 0 0 1
2746 1 34.04286813111958 39.57607288394492 0.49252204620780526 0 0 1
2083 1 1.969238923259417 44.5088177371573 1.9893238485326212 0 0 1
1299 1 28.4356753379924 49.74560578101453 23.193140567524953 0 0 0
2089 1 6.4290905101539 43.08433797715507 0.3580975492164594 0 0 1
2046 1 7.9228108535521935 44.69437959911605 1.5961997726121253 0 0 1
2027 1 12.777319558895668 42.84929104683306 0.5706590823325506 0 0 1
2016 1 14.785389583912673 44.48288592536372 1.9022132247302252 0 0 1
1998 1 17.651617962250043 41.66649118006376 2.498533190031595 0 0 1
2547 1 19.13022892251187 42.983471778934614 0.3625111878516847 0 0 1
2803 1 20.35478975033648 44.68081736924201 1.996930784463176 0 0 1
2787 1 25.424755244356387 42.826317609290584 0.7538456015937351 0 0 1
2802 1 29.503573976363327 41.58608610845265 1.9635381442581075 0 0 1
2727 1 31.3621396175249 43.22810824247016 0.443913834537764 0 0 1
2735 1 32.921413161382375 44.63619869841028 2.1744932614147907 0 0 1
1953 1 3.228898846030909 46.13624343506139 0.31062534491607474 0 0 1
1933 1 4.814191284045209 47.86652079160913 1.5869373079224025 0 0 1
1854 1 9.727904706439368 46.355084239087674 0.3062568500556193 0 0 1
1845 1 16.130223288376186 46.288251544377545 0.42968232535201567 0 0 1
2665 1 21.974591904020823 46.138053807034495 0.5330072910365087 0 0 1
2644 1 23.65046396264615 47.61157556416188 2.014097535124558 0 0 1
2773 1 26.601997177498298 44.753957597364305 2.2955623655609303 0 0 1
2603 1 28.184656984326534 46.66716349970952 0.5618882095284654 0 0 1
2450 1 34.539223258650274 46.32864056166882 0.7324291850516411 0 0 1
1603 1 6.417970814273379 49.38439890736748 -0.09439259532070488 0 0 1
1543 1 8.01765213574404 -0.20077000326376387 1.768096604332483 0 1 1
1914 1 11.129775292824132 48.037385795520194 1.885184353706037 0 0 1
1501 1 12.533175875902444 49.598129487424046 0.4717479886833372 0 0 1
1502 1 14.630827094067092 -0.25739054421361357 1.7378545841133337 0 1 1
1776 1 17.7361945380375 48.15603980945748 2.1993629692335177 0 0 1
2390 1 21.436125988074313 -0.32696217050052323 1.9888755743007014 0 1 1
2286 1 19.382459469202097 49.400343974085544 0.7645097300423163 0 0 1
2346 1 24.98094684815731 49.51121161933685 0.7628902130343715 0 0 1
2569 1 29.503581269103496 48.14365009189713 2.152586222434345 0 0 1
2533 1 31.224973156393883 49.4076638092434 0.4388449010834501 0 0 1
2263 1 32.86908750359019 -0.07020613389936725 1.8048301204285502 0 1 1
196 1 0.19026078281120415 46.603803310164 16.924073773295923 0 0 0
6358 1 4.700801177533595 3.022639514329771 4.796126091630615 1 -1 3
2066 1 6.233087347854198 1.3567132940754623 3.196181921932944 0 0 0
4414 1 7.599329156569936 0.4476221026847833 5.273530776602341 2 0 2
2118 1 12.405490217938528 1.2976933978986958 3.070869327442827 0 0 0
6734 1 10.72328025804682 3.106812477880443 5.4708385060138545 1 0 0
124 1 17.445046527830748 0.043972335487285685 5.318682207922786 0 1 0
2758 1 19.556429422858503 1.304706076707102 3.018270955229723 0 0 0
1373 1 24.724352717412906 2.3087398838882778 4.324632644153807 0 0 0
2816 1 31.315713843967416 1.2685746346061084 3.486155343251838 0 0 0
1 1 1.5305752375425483 4.060352092952022 5.676151853434794 0 0 0
92 1 3.3003509723916857 5.351567406947364 4.309281624536177 0 0 0
4 1 7.631595853401622 3.380317962392437 5.654502062988868 0 0 0
48 1 9.21293868913725 5.74106899966318 4.300343408238829 0 0 0
7175 1 12.485437550824846 5.1627706170290555 3.723374547783446 1 1 0
1722 1 15.875950799461426 5.106312242993474 3.495131064158629 0 0 0
7 1 14.168029108702845 3.5491927679232593 5.667553732945261 0 0 0
16 1 17.527465393520984 6.315931170238244 5.749612191061563 0 0 0
2822 1 21.999040635051156 5.29080177083061 3.43813714929773 0 0 0
743 1 20.819637300243222 3.4139235830086254 5.8878793896980905 0 0 0
822 1 28.112406838617925 5.2238122245817395 4.375388077429185 0 0 0
747 1 26.708102231899066 3.5564320309765627 5.64453964552135 0 0 0
1369 1 34.397376640182024 5.0711997869948675 4.397903079066899 0 0 0
11 1 4.933294070066568 6.947698127894684 5.647403480783846 0 0 0
1491 1 6.507458541427118 8.414797846995057 3.2150674789133786 0 0 0
108 1 12.444452121014463 8.321189814341784 4.2782646673321905 0 0 0
12 1 11.106796053405219 7.237534173867165 5.952585967603478 0 0 0
2130 1 18.622387921858714 7.877653771707617 3.4062045289156493 0 0 0
758 1 20.21283122332107 9.371993148982497 5.638895296377882 0 0 0
754 1 23.937969682801324 6.557766110271408 5.704468019448555 0 0 0
1370 1 25.34606386470211 8.37054744160673 4.691852831017339 0 0 0
753 1 31.574148751219372 7.981655691639602 4.431088745667446 0 0 0
756 1 29.776333168767597 6.785283924513161 5.882830981882249 0 0 0
2123 1 3.124481530080083 11.269443211748332 3.439113956166141 0 0 0
19 1 1.484684718332669 9.863233082603431 5.781352385113804 0 0 0
23 1 7.90691168118358 10.009831501542152 5.59173343711845 0 0 0
8 1 9.667334726230603 11.646931849328482 4.304224305404654 0 0 0
36 1 15.680630887842545 11.207766880290938 4.493998692042613 0 0 0
1372 1 22.19097962280098 11.352128195241324 4.43043097228287 0 0 0
1348 1 28.629707797389692 11.352481723130596 4.4834187515058765 0 0 0
763 1 33.158127797991014 9.591537782578856 5.809059154448848 0 0 0
28 1 4.594924077208145 12.841027141149311 5.427821407433098 0 0 0
115 1 6.071573519099295 15.115729005585791 4.343723836954349 0 0 0
208 1 12.735048733416154 14.739756748574893 4.7008830903531305 0 0 0
33 1 17.54528853021084 13.004750013048348 5.72720720190484 0 0 0
2249 1 19.314806002027535 14.55319481328721 3.386078044474315 0 0 0
766 1 23.63733232448443 13.379463652571012 5.5698456664043885 0 0 0
2235 1 25.51103658024793 14.870459359355667 3.446935538485647 0 0 0
768 1 29.947203496154696 13.320789717712998 5.878158150574382 0 0 0
1374 1 32.05745038713064 14.626976025109535 4.274424480258815 0 0 0
35 1 1.9452878567618328 16.047795112451563 5.8226387709865906 0 0 0
650 1 2.927424479525328 18.108777444098465 4.52764037833969 0 0 0
6 1 9.346968737804824 18.068752020119753 4.554725430196691 0 0 0
39 1 14.443831695322563 16.416125379180105 5.84211315519518 0 0 0
18 1 16.211529886040783 17.789594953828402 4.271840704680139 0 0 0
771 1 20.59287111765872 16.044841020550383 5.733866084359801 0 0 0
1365 1 22.12584212581304 17.681058801144427 4.278028514578785 0 0 0
774 1 27.122270921855787 16.16152023442218 5.734800527679468 0 0 0
2689 1 28.495051659813168 17.933979411063994 3.188584474530972 0 0 0
775 1 33.057087208621034 16.144366479638244 5.8656765446899755 0 0 0
1363 1 34.689044748932595 17.889246968889783 4.424995954586314 0 0 0
3283 1 0.3368387641922074 35.63369467517266 1.3013455468809252 2 1 -1
104 1 6.283577976185529 21.199389638138577 4.334619824153542 0 0 0
29 1 12.725845464353624 20.915529996910962 4.399127416437123 0 0 0
41 1 18.73419105267717 20.878494756263272 4.469391871843013 0 0 0
1375 1 25.104813250404682 21.119666229740872 4.293944532429525 0 0 0
779 1 23.76046117629824 19.283932252661366 5.956118148895563 0 0 0
785 1 27.115718363532576 22.237634285325722 5.523213138409523 0 0 0
781 1 29.940835723226783 19.382761169827106 5.764898675735132 0 0 0
1376 1 31.69225096225459 20.916607110297264 4.294829882485118 0 0 0
51 1 1.643181853175855 23.060662043554235 5.785662436665994 0 0 0
2110 1 3.6222367642712414 24.05118152294111 3.3630408189994454 0 0 0
56 1 8.235316363187584 22.384752132288433 5.717941185979516 0 0 0
1453 1 9.492282069626034 23.8380206429685 3.5156116272921323 0 0 0
57 1 11.158504436154455 25.289343910995694 5.80021279303704 0 0 0
45 1 15.72226467417293 24.307702042462374 4.329224525000545 0 0 0
59 1 14.315865263248567 22.731424250204128 5.923624537147084 0 0 0
1368 1 22.120945303807932 23.987971756741107 4.3532545678468 0 0 0
783 1 20.666281470677326 22.500913090317137 5.9389395121037 0 0 0
2382 1 28.6159775260966 23.87366272331793 3.173457848842942 0 0 0
787 1 30.222132294159664 25.265850327336356 5.619124708658883 0 0 0
789 1 33.337967003793295 22.56343474040776 5.746986435210111 0 0 0
2187 1 34.790499263575484 23.979174437123376 3.368929849456323 0 0 0
646 1 10.116328063229457 49.29398942279629 23.312554979386945 0 0 0
715 1 6.384083958993224 27.187927055213333 4.3672001257059225 0 0 0
55 1 4.756773203787691 25.6372247349297 5.934008271877 0 0 0
1927 1 12.575574999837709 27.266912707391146 3.3508743871419586 0 0 0
68 1 14.510181725492767 28.573343986795603 5.613144595008868 0 0 0
61 1 17.562288124750346 25.623030036321826 5.724833440261235 0 0 0
2777 1 19.072665298316803 27.17544305866794 3.328824918610009 0 0 0
2471 1 25.153780602826096 27.07988634799199 3.333394906815307 0 0 0
2823 1 31.289898979592177 27.27369128083721 3.5222000858483162 0 0 0
64 1 1.5384936569779721 28.822670617752042 5.672125089519718 0 0 0
692 1 3.13938062322474 30.47650393472897 4.5438150501784484 0 0 0
67 1 8.208340577941204 29.000658261996136 5.875061860829438 0 0 0
20 1 10.097611631368482 30.214189570789408 4.613725246312082 0 0 0
93 1 15.973710463158467 30.554903009146706 4.323685929860618 0 0 0
796 1 20.570565830179437 28.994905970526915 5.2607951447805705 0 0 0
2258 1 22.060679925303454 30.944065000153252 3.5086886054653865 0 0 0
794 1 26.864714762580416 28.82252292048459 5.618457966791732 0 0 0
2810 1 28.505279175912147 30.287693062771893 3.4535839230905556 0 0 0
800 1 30.002367094183732 31.837119492577425 5.873315305662816 0 0 0
801 1 33.298648461094544 28.81459877568425 5.867190534083066 0 0 0
1442 1 0.2612097922427177 33.50793359627632 3.539973116661379 0 0 0
77 1 1.7778270579302218 34.97047732053052 5.826261588397963 0 0 0
99 1 6.613610792113295 33.44775993575834 4.602945777617163 0 0 0
79 1 8.050580278693147 35.10377098547251 5.774636308560983 0 0 0
1446 1 12.479435133052514 33.633352987949266 3.265772392429881 0 0 0
73 1 11.17271860745151 32.290222315145314 5.830364643677588 0 0 0
1737 1 18.76201821662891 33.88086998880989 3.5103010441091103 0 0 0
75 1 17.21837272687775 32.32519807651845 5.781651233179423 0 0 0
804 1 20.37519149203131 34.99138001782461 5.969316606383962 0 0 0
2821 1 25.274711845676368 33.60368446772331 3.3910904078322996 0 0 0
806 1 26.60538878761253 34.84537730787082 5.969488588048981 0 0 0
809 1 31.519464153585364 33.2661532750907 4.422097112309658 0 0 0
65 1 3.0416492397685566 36.51624887681051 4.3876462089713435 0 0 0
2122 1 9.619933249781178 36.69709938967755 3.3897815012522594 0 0 0
81 1 14.085124912577875 35.21454665158309 5.649977529479968 0 0 0
1463 1 15.390746877577943 36.95631269795041 3.5374579428574253 0 0 0
88 1 17.257936025144083 38.110442772100015 5.854250465514582 0 0 0
963 1 22.239486051931934 36.849494413155725 4.515629595375385 0 0 0
2658 1 28.30624742245548 36.24994718146095 3.494159009036315 0 0 0
813 1 29.69478508493747 38.04682328233986 5.379198855532711 0 0 0
1371 1 34.543502745148494 36.83383677104163 4.377218132669925 0 0 0
619 1 0.24107074045691268 39.74802012757429 4.543321215229308 0 0 0
2116 1 6.286025327247301 39.62039116546815 3.556695491520404 0 0 0
94 1 7.856924083099794 41.48347789877705 5.6704313864175395 0 0 0
86 1 11.249553530014458 38.37505571317939 5.81238475574029 0 0 0
1422 1 12.713818899937671 39.988664570513464 3.2903986041865028 0 0 0
96 1 14.18579229765581 41.4004990823111 5.960846570344784 0 0 0
357 1 18.990569184901883 39.72260503716963 4.405363661737569 0 0 0
817 1 20.82143325113921 41.287176938316236 5.902821097700999 0 0 0
1367 1 25.471207048527464 39.69882716841329 4.451005497158307 0 0 0
2814 1 31.372339722970597 39.638683224843234 3.298196851124419 0 0 0
821 1 32.894733519923506 41.054410374640824 5.703004256147756 0 0 0
2124 1 3.2753129368426985 42.89560053362143 3.517041974492652 0 0 0
2121 1 9.530635616773814 42.957794547433025 3.4947619578643243 0 0 0
103 1 10.90253564928951 44.666972044241504 5.826738158742308 0 0 0
89 1 16.083628687733224 43.22035126973164 4.585656014709447 0 0 0
903 1 22.050651043019652 43.36778182786884 4.67164987637393 0 0 0
826 1 23.858211371124497 44.66439109850596 5.9352995709843315 0 0 0
769 1 28.490307737945116 42.922403434594486 4.5025052164393085 0 0 0
2809 1 34.716989553974805 42.561222750743525 3.318259629229522 0 0 0
110 1 1.6261987909686884 47.78861160596274 5.813993200249417 0 0 0
5768 1 0.24885908820089672 29.675951467090425 14.750153819380014 1 1 2
101 1 4.805504854865985 44.73619166153799 5.482933720641502 0 0 0
1400 1 6.506922991838039 46.392014067911035 3.3000198252107995 0 0 0
2125 1 12.755514971896377 46.090488531719245 3.064711083952435 0 0 0
114 1 13.917312894118947 47.854885473624506 5.686188744496764 0 0 0
1360 1 19.31416857564193 46.38170667660496 4.3065192874290785 0 0 0
778 1 25.225816773351877 46.394725008150516 4.255639874345861 0 0 0
833 1 26.91682344450707 47.79049386880233 5.792470601265997 0 0 0
1366 1 31.405154853011478 46.348604831360745 4.372150340505796 0 0 0
835 1 33.46769246953743 47.65244929987338 5.674777830387995 0 0 0
1379 1 3.0063035605663946 49.1914264700151 3.026128589302083 0 0 0
1296 1 22.340554225497137 49.69547706237495 23.14561254980667 0 0 0
119 1 4.302853794116119 -0.17237399755654775 5.782636607050582 0 1 0
112 1 7.6967192039018135 48.08201696050999 5.652667423244439 0 0 0
2129 1 9.314855002827132 49.52532954969003 3.5087829715548287 0 0 0
121 1 11.097987655467774 -0.017319013749603207 5.768769250467299 0 1 0
2126 1 15.83643663580647 49.59186426281765 3.36850919916176 0 0 0
1106 1 22.23710015790752 49.19924955616416 4.6480834857041655 0 0 0
1364 1 27.843022212212627 49.57653595388422 4.317240236698291 0 0 0
2820 1 34.55394609869255 49.89287312167782 3.524704074888629 0 0 0
2 1 2.9116940956192687 2.1953534622285327 7.086709858134992 0 0 0
5 1 9.212008755605433 1.3913121932306018 7.616160324217303 0 0 0
9 1 15.682009944127874 1.2340279380633106 7.411521245724151 0 0 0
744 1 21.955089111206345 1.00405002846682 7.588148127167008 0 0 0
839 1 28.453257854058965 2.2069050570205837 7.481089473281236 0 0 0
751 1 34.462492733985286 2.214388257735209 7.550747635688845 0 0 0
127 1 4.872118112667199 3.6398069043149697 8.365201539509584 0 0 0
3 1 6.6124327552332804 5.285606476730737 7.272662424975079 0 0 0
14 1 12.50646261844892 5.279809550374784 7.325999879577643 0 0 0
129 1 11.099324991274257 3.997166142830709 8.863198778284616 0 0 0
131 1 17.18415816943236 3.5943685018788267 8.855146719572828 0 0 0
1056 1 19.136746044150062 4.977255240907928 7.423470479436693 0 0 0
746 1 25.34727638569805 4.723932349754434 7.312656504195439 0 0 0
845 1 23.68130164657791 3.2726090171674853 9.108827550673961 0 0 0
750 1 31.24900195682983 5.451768262827861 7.5319582593858385 0 0 0
848 1 30.048468942608455 3.6918462984708382 8.955440748009057 0 0 0
749 1 32.65194082857663 3.5133876820498826 6.160096848557518 0 0 0
10 1 3.1850602807988238 8.30477734888874 7.300888222286954 0 0 0
133 1 1.597009472094407 6.87386995824131 8.767124726519413 0 0 0
13 1 8.974801245961663 8.438397594657818 7.397659484143934 0 0 0
17 1 15.744714433356185 8.11566030625592 7.323726742539814 0 0 0
136 1 13.941846567461958 6.870866008750496 8.951270164742995 0 0 0
752 1 22.004743005363085 8.081839811045088 7.134410096302697 0 0 0
850 1 20.71187070868856 6.761656856922715 8.994592247002595 0 0 0
852 1 26.529237992612376 6.565726321488247 8.631315506588294 0 0 0
755 1 28.249667620222905 8.186310008083659 7.685964236188676 0 0 0
757 1 34.65058842168617 7.985445897569271 7.560203152927426 0 0 0
140 1 4.904051750932304 10.232078552673324 8.700568803270162 0 0 0
22 1 6.5450211282646205 11.665951042555667 7.3300060184468725 0 0 0
25 1 12.491842244994366 11.68273065838268 7.452371811886925 0 0 0
142 1 10.792656823481567 9.789823683630821 9.15550107860193 0 0 0
24 1 13.926556462288008 9.89673834697713 6.0207950906316645 0 0 0
143 1 17.381029078093164 9.825835798464443 8.594371606582028 0 0 0
860 1 19.037964141516852 11.14484299569374 7.161870543752019 0 0 0
761 1 25.066812040603573 11.89987315872826 7.3963826953724885 0 0 0
855 1 23.865753045469475 9.897274533762833 8.667822927119474 0 0 0
762 1 26.765637813878495 10.125410499016834 6.133442363808194 0 0 0
764 1 31.35407702866329 11.287355410471738 7.311383895707089 0 0 0
863 1 33.07606735050999 12.72379078076607 9.067001611550975 0 0 0
145 1 1.506474150120691 12.913804132915558 8.698004497568508 0 0 0
27 1 3.2655336628038185 14.192183135289863 7.224367017256086 0 0 0
30 1 9.649042687606816 15.49244960407515 8.030357137480324 0 0 0
147 1 8.091655906254436 13.391466370879469 9.105238830006552 0 0 0
31 1 10.91811521399961 13.55550365940296 6.451539577459178 0 0 0
148 1 14.452724701937585 13.02079144113582 8.740666200803279 0 0 0
34 1 15.949867991375706 14.650638791550698 7.354245620126042 0 0 0
859 1 20.50199368387369 13.051794115106551 8.644241605545941 0 0 0
765 1 22.28266299596552 14.68708676750092 7.2755104205538625 0 0 0
767 1 28.50485820464963 14.777221616146917 7.434447138754286 0 0 0
862 1 26.854042101843575 13.196852985220078 8.925767571471697 0 0 0
770 1 34.656710597667264 14.500083880416488 7.289692476259534 0 0 0
37 1 6.366094162256811 17.950207502987617 7.73560960887365 0 0 0
151 1 4.786566224934888 16.299403845254833 9.088405098800152 0 0 0
38 1 7.913176542510336 16.482822307490576 6.215942745115392 0 0 0
40 1 12.924205766370665 17.699750228019933 7.567895136289598 0 0 0
155 1 17.62786384323228 16.46820618060661 8.809129658359362 0 0 0
1100 1 19.200177501599317 17.753895764565 7.276497601055621 0 0 0
773 1 25.398161640933427 17.595935365698296 7.397794516685299 0 0 0
866 1 23.736613392797782 16.013489259814996 9.085737819918029 0 0 0
776 1 31.714639949592847 17.668197754848386 7.25762824888406 0 0 0
868 1 29.924231869498023 16.4169809832852 8.908810893761828 0 0 0
43 1 3.053471613382889 21.052061394798454 7.184843244057797 0 0 0
156 1 1.7807342846614753 19.521069100053587 8.872973406653431 0 0 0
44 1 4.842026302197876 19.62834954804764 6.213720451296497 0 0 0
159 1 5.102829886137757 22.289079993240346 8.868903440194781 0 0 0
160 1 8.090177561730808 19.491770478380058 9.093847686956357 0 0 0
46 1 10.951571700360017 19.23702485978742 6.204117025745408 0 0 0
47 1 9.728757871094047 21.080368826153567 7.726662854871439 0 0 0
50 1 15.734455060067459 21.260673174364396 7.8837107264221515 0 0 0
161 1 14.136695668823196 19.4174267805444 9.169982269381421 0 0 0
49 1 17.0245184218734 19.54754490311338 6.1746044150927055 0 0 0
870 1 22.219859591529783 20.882616308948073 7.483296410667207 0 0 0
873 1 26.312885689603835 19.684784913414603 8.774258641336191 0 0 0
780 1 28.57715320671674 20.917655648362818 7.320905086615286 0 0 0
874 1 33.15239888659257 19.227426288963706 8.908466006391649 0 0 0
782 1 34.85241473138194 20.87006437204255 7.675308242670829 0 0 0
54 1 6.669228054998844 23.932864309458207 7.374954808103988 0 0 0
165 1 11.064309516301396 22.762855320149622 9.016871358282785 0 0 0
60 1 12.8489703780098 24.081372794125603 7.320656456547565 0 0 0
168 1 17.389111130200646 22.54317778803368 8.82712945881126 0 0 0
919 1 19.177316725608016 23.944157909002335 7.395334820559095 0 0 0
880 1 21.072392053582686 25.547200010326105 8.654924393417808 0 0 0
877 1 23.610312273065166 22.534450897402465 8.854301784548337 0 0 0
784 1 25.69684371301177 23.7735038618232 7.278097889244165 0 0 0
878 1 29.832790447059782 22.686508689804597 8.89627853015709 0 0 0
790 1 31.777148532686876 23.927215234993103 7.46401881619324 0 0 0
63 1 3.077625979378922 27.52200297170428 7.3171137721768496 0 0 0
170 1 1.513522206060788 25.903910836352097 9.14171327764639 0 0 0
173 1 7.704512111275941 25.9400971172276 8.931981708700958 0 0 0
66 1 9.694411399938698 27.133319891125105 7.381437472785398 0 0 0
167 1 14.478448575145551 25.667430344416935 9.011260406228907 0 0 0
69 1 15.73899649562372 27.08026235649842 7.461468168788458 0 0 0
786 1 23.78825262269301 25.70993548596354 5.998610483529689 0 0 0
792 1 22.501649845590475 27.64245689976026 7.153498115847755 0 0 0
883 1 26.90026637251585 25.59177181220503 8.85558883770688 0 0 0
793 1 28.64221611998521 27.28488187512601 7.190079656888847 0 0 0