
# Create simulation box of size 50 x 50 x 50 Angstrom
#
lattice	            sc 1
Lattice spacing in x,y,z = 1.0000000 1.0000000 1.0000000
region 	            all block 0 ${X} ${YZ_LO} ${YZ_HI} ${YZ_LO} ${YZ_HI} units box
region 	            all block 0 53.4 ${YZ_LO} ${YZ_HI} ${YZ_LO} ${YZ_HI} units box
region 	            all block 0 53.4 0.3191026151110101.0 ${YZ_HI} ${YZ_LO} ${YZ_HI} units box
region 	            all block 0 53.4 0.3191026151110101.0 50.5880173848891.0 ${YZ_LO} ${YZ_HI} units box
region 	            all block 0 53.4 0.3191026151110101.0 50.5880173848891.0 0.3191026151110101.0 ${YZ_HI} units box
region 	            all block 0 53.4 0.3191026151110101.0 50.5880173848891.0 0.3191026151110101.0 50.5880173848891.0 units box
create_box          1 all
Created orthogonal box = (0.0000000 0.31910262 0.31910262) to (53.400000 50.588017 50.588017)
  3 by 1 by 2 MPI processor grid

# fill box with 4175 randomly distributed atoms
#
create_atoms        1 random 4608 63782 all
Created 4608 atoms
  create_atoms CPU = 0.001 seconds
mass                1 18.015

# Define potential
#
pair_style          sw
pair_coeff          * * /data/emrosky-sim/Freezing_Simulations/Melting/mW_fancy/mW.sw mW
Reading sw potential file /data/emrosky-sim/Freezing_Simulations/Melting/mW_fancy/mW.sw with DATE: 2019-02-27

# Run minimization
#
minimize            1.0e-8 1.0e-8 10000 1000
WARNING: Using 'neigh_modify every 1 delay 0 check yes' setting during minimization (../min.cpp:187)
Neighbor list info ...
  update every 1 steps, delay 0 steps, check yes
  max neighbors/atom: 2000, page size: 100000
  master list distance cutoff = 6.3065
  ghost atom cutoff = 6.3065
  binsize = 3.15325, bins = 17 16 16
  1 neighbor lists, perpetual/occasional/extra = 1 0 0
  (1) pair sw, perpetual
      attributes: full, newton on
      pair build: full/bin/atomonly
      stencil: full/bin/3d
      bin: standard
Per MPI rank memory allocation (min/avg/max) = 4.236 | 4.254 | 4.260 Mbytes
Step Temp E_pair E_mol TotEng Press 
       0            0    4725957.5            0    4725957.5      3346340 
     697            0   -52181.433            0   -52181.433    308.58815 
Loop time of 2.12332 on 6 procs for 697 steps with 4608 atoms

99.3% CPU use with 6 MPI tasks x no OpenMP threads

Minimization stats:
  Stopping criterion = max force evaluations
  Energy initial, next-to-last, final = 
      4725957.52761265  -52181.3338105428   -52181.433150262
  Force two-norm initial, final = 1.0811541e+08 2.1276296
  Force max component initial, final = 57160813.0 0.46598087
  Final line search alpha, max atom move = 0.12063288 0.056212615
  Iterations, force evaluations = 697 1001

MPI task timing breakdown:
Section |  min time  |  avg time  |  max time  |%varavg| %total
---------------------------------------------------------------
Pair    | 1.825      | 1.918      | 2.0014     |   4.2 | 90.33
Neigh   | 0.045419   | 0.046665   | 0.048638   |   0.5 |  2.20
Comm    | 0.051438   | 0.13605    | 0.2294     |  16.0 |  6.41
Output  | 0          | 0          | 0          |   0.0 |  0.00
Modify  | 0          | 0          | 0          |   0.0 |  0.00
Other   |            | 0.02259    |            |       |  1.06

Nlocal:        768.000 ave         781 max         756 min
Histogram: 2 0 0 1 0 0 1 0 1 1
Nghost:        1682.50 ave        1700 max        1662 min
Histogram: 1 0 1 0 0 1 1 1 0 1
Neighs:        0.00000 ave           0 max           0 min
Histogram: 6 0 0 0 0 0 0 0 0 0
FullNghs:      25823.7 ave       26201 max       25456 min
Histogram: 1 1 0 0 1 1 0 0 1 1

Total # of neighbors = 154942
Ave neighs/atom = 33.624566
Neighbor list builds = 40
Dangerous builds = 0

# Add velocity/set timestep
#
velocity            all create ${TEMP} 120598 rot yes dist gaussian
velocity            all create 274 120598 rot yes dist gaussian
timestep            5.0

# Define output
#
compute	            1 all msd
thermo	            100
thermo_style        custom step temp press vol etotal ke pe c_1[4] density

# Neighbor lists
#
neigh_modify        delay 0 every 1 check yes

# Set fixes
#
fix                 1 all momentum 10 linear 1 1 1 rescale
fix                 2 all nve
fix                 3 all temp/csvr ${TEMP} ${TEMP} 500.0 928347
fix                 3 all temp/csvr 274 ${TEMP} 500.0 928347
fix                 3 all temp/csvr 274 274 500.0 928347
fix                 4 all press/berendsen iso ${PRES} ${PRES} 1000.0 modulus 20000
fix                 4 all press/berendsen iso -1000 ${PRES} 1000.0 modulus 20000
fix                 4 all press/berendsen iso -1000 -1000 1000.0 modulus 20000

# Run 0.5 ns equilibration
#
dump                1 all custom 1000 eq.${NAME}.dump id type x y z vx vy vz
dump                1 all custom 1000 eq.liq_274K_-1000atm_mW.dump id type x y z vx vy vz
run                 100000
Per MPI rank memory allocation (min/avg/max) = 3.504 | 3.507 | 3.510 Mbytes
Step Temp Press Volume TotEng KinEng PotEng c_1[4] Density 
     697          274     1583.252    134939.87   -48418.703    3762.7302   -52181.433            0    1.0215403 
     700    232.48011    1852.3724    135217.27   -48411.581    3192.5545   -51604.136 0.0084500636    1.0194446 
     800    180.81843   -565.19917    138890.45   -46802.867    2483.1057   -49285.973   0.51059169   0.99248379 
     900    213.72481   -687.28793    139841.49   -45795.304    2934.9956   -48730.299   0.94085764     0.985734 
    1000    224.79286   -862.91191    140268.22   -45122.116    3086.9886   -48209.105    1.5005936    0.9827352 
    1100    242.66824   -940.06974    140749.53   -44620.557    3332.4638   -47953.021    2.0906729   0.97937458 
    1200    251.51426   -747.17177    141177.33     -44247.8    3453.9427   -47701.743    2.7443485   0.97640691 
    1300    260.61479   -1036.8767    141413.82   -43880.049    3578.9166   -47458.966    3.5874841     0.974774 
    1400    263.88222   -933.18075    141397.64    -43724.81    3623.7869   -47348.596    4.3886115   0.97488553 
    1500    265.61475   -1121.9515    141262.09   -43583.828    3647.5789   -47231.407    5.3460844   0.97582103 
    1600    265.79593   -837.85712    141219.11   -43509.673    3650.0671    -47159.74    6.3761057   0.97611802 
    1700    269.11094   -979.64944    141222.56   -43506.127    3695.5907   -47201.718    7.5190491   0.97609415 
    1800    268.92613   -896.27705    141173.51    -43392.72    3693.0529   -47085.773    8.6665783   0.97643333 
    1900    266.62108   -992.10642    140977.47   -43369.885    3661.3985   -47031.284    9.6957719   0.97779108 
    2000    273.39489   -977.87298     140850.4   -43271.096    3754.4205   -47025.516    10.985696   0.97867324 
    2100    273.34559   -1054.1624    140820.98   -43339.035    3753.7435   -47092.778    12.304725   0.97887771 
    2200    269.06781   -861.29298     140995.1   -43356.166    3694.9984   -47051.165    13.642284   0.97766883 
    2300    276.96541   -1027.2012    141034.57   -43266.598    3803.4529    -47070.05    14.814579   0.97739524 
    2400    267.35332   -917.77104    140904.25   -43265.761    3671.4541   -46937.215    16.081621   0.97829922 
    2500    275.20064   -1063.9903    140893.32   -43228.598    3779.2181   -47007.816    17.427845   0.97837514 
    2600     279.7003   -1060.4704    140672.87   -43193.833    3841.0101   -47034.843    18.742585   0.97990831 
    2700    276.99789   -970.65962    140889.42   -43113.698     3803.899   -46917.597    20.181618   0.97840218 
    2800    272.93032    -892.8381    140959.87   -43200.334    3748.0407   -46948.374    21.447745    0.9779132 
    2900    274.64365   -1056.4902    141020.75   -43123.635    3771.5692   -46895.204    22.621948     0.977491 
    3000     273.8233   -1076.6327    141081.68   -43056.247    3760.3036   -46816.551    23.905396   0.97706887 
    3100    275.24873   -1013.3705    140948.63   -43056.846    3779.8785   -46836.724    25.055599   0.97799121 
    3200    277.72663   -1058.4081    140901.69   -43077.837    3813.9064   -46891.743    26.627138   0.97831698 
    3300    277.67753   -959.96488    140694.08   -43113.323    3813.2322   -46926.556    27.960113   0.97976062 
    3400    275.80298   -982.85287    140571.51   -43114.968    3787.4898   -46902.458    29.240708   0.98061491 
    3500    285.96906   -920.23657    140777.92    -43053.79    3927.0964   -46980.887     30.47603    0.9791771 
    3600    281.82713   -859.96006    140922.29   -43045.005     3870.217   -46915.222    31.769072   0.97817394 
    3700    275.06337   -998.39683    140708.71   -43109.398    3777.3329   -46886.731    32.819164   0.97965876 
    3800    272.09538     -903.309    140731.37   -43112.621    3736.5748   -46849.195    34.014601   0.97950097 
    3900    277.49545   -977.00225    140610.23   -43177.637    3810.7318   -46988.368    34.795546   0.98034488 
    4000    269.99767   -910.62223    140838.59   -43241.062    3707.7678    -46948.83    36.062166   0.97875529 
    4100    271.23019   -1088.8891    141001.09   -43175.773    3724.6935   -46900.466    37.316722   0.97762733 
    4200    273.95429   -1122.4395       140684   -43128.696    3762.1024   -46890.798    38.331057   0.97983082 
    4300    275.16874   -915.17767    140506.12   -43148.639    3778.7799   -46927.419    39.646702   0.98107126 
    4400    274.34526   -837.50095    140511.45   -43121.246    3767.4715   -46888.718    40.444138   0.98103404 
    4500    278.72872   -1004.6032    140672.63   -43109.549    3827.6677   -46937.217    41.906912   0.97991001 
    4600    274.46967   -1033.2432    140829.78   -43123.418      3769.18   -46892.598    43.414639   0.97881657 
    4700    270.25926   -1055.6897    140847.31   -43151.873    3711.3602   -46863.233    44.894272   0.97869469 
    4800    273.19014   -877.58515     140679.4   -43164.921    3751.6088    -46916.53    46.189067   0.97986286 
    4900    275.68384   -1107.4299    140826.55   -43129.442    3785.8537   -46915.296    47.219794   0.97883901 
    5000    273.69849   -1023.6385    140930.95   -43257.867    3758.5897   -47016.457    48.254354   0.97811387 
    5100    274.45014   -1059.9029    140876.18   -43156.442    3768.9118   -46925.354    49.483836   0.97849415 
    5200    267.50904   -988.00045    140509.14   -43212.492    3673.5925   -46886.085    50.903515   0.98105016 
    5300     274.3618   -858.08866    140550.53   -43227.649    3767.6986   -46995.347    52.128644   0.98076128 
    5400    275.52102   -1020.2457    140798.18   -43147.927    3783.6178   -46931.545    53.650819    0.9790362 
    5500    279.26928   -884.20974     141013.7   -43050.889    3835.0911    -46885.98    55.015566   0.97753989 
    5600    275.60686   -1108.9635       141049   -43000.181    3784.7966   -46784.977    56.456518   0.97729527 
    5700    270.64701   -882.04123    140979.55   -43138.071    3716.6849   -46854.756    57.588214   0.97777667 
    5800    277.35688   -877.31654    140949.76   -43077.439    3808.8289   -46886.268    59.027916   0.97798334 
    5900    274.61554   -980.28895    140995.13   -43155.935    3771.1831   -46927.118    60.304451   0.97766862 
    6000    272.26963   -800.14069    141211.38    -43249.53    3738.9677   -46988.498    61.959639   0.97617144 
    6100    265.56172   -675.66869    140857.77    -43255.27    3646.8508   -46902.121    62.719636     0.978622 
    6200    270.85696   -962.55145    141100.48   -43209.377    3719.5681   -46928.946    63.828347   0.97693867 
    6300    274.39335   -977.11148    141010.69    -43216.58    3768.1318   -46984.712    64.980025   0.97756078 
    6400    270.96394   -837.07901    140789.72   -43216.936    3721.0372   -46937.973    66.132816   0.97909502 
    6500    272.46705   -1037.4447    140678.34   -43162.191    3741.6788   -46903.869    67.107581   0.97987026 
    6600    270.48286   -936.39168    140657.25   -43267.572    3714.4308   -46982.003    68.283414   0.98001716 
    6700     274.1175   -1071.0608    140715.06   -43226.931    3764.3438   -46991.275    69.512925   0.97961456 
    6800    269.35345   -942.61445    140930.98   -43267.298     3698.921   -46966.219     70.90489   0.97811365 
    6900    269.44262   -1087.8297    140701.33    -43222.04    3700.1455   -46922.186    72.204738    0.9797101 
    7000    274.02556   -1012.8895    140901.44   -43110.294    3763.0812   -46873.375    73.463962   0.97831874 
    7100    272.85322   -1159.1068    140864.32   -43179.078    3746.9819   -46926.059    75.019022    0.9785765 
    7200    271.82748   -965.64902    140745.36   -43200.549    3732.8959   -46933.445    76.202111   0.97940367 
    7300    273.38387   -1046.4323    140893.26   -43215.003    3754.2692   -46969.273    77.666823   0.97837554 
    7400    266.74408   -971.35566    140553.27   -43281.032    3663.0875   -46944.119    79.172075   0.98074218 
    7500    270.88136   -1144.9099    140414.45   -43256.134    3719.9032   -46976.037     80.83919   0.98171178 
    7600     272.9346   -1014.8906    140516.13   -43159.661    3748.0995   -46907.761    82.215309   0.98100136 
    7700     277.5833   -1103.4202    140666.68   -43147.907    3811.9381   -46959.845    83.494238   0.97995146 
    7800    272.17572   -1053.6856    140794.72    -43158.41    3737.6781   -46896.088    84.391062   0.97906024 
    7900    267.78728   -898.06555    140460.17   -43261.743    3677.4134   -46939.156     85.19302   0.98139218 
    8000    267.70261    -936.6011    140632.99   -43296.408    3676.2507   -46972.659    86.468293   0.98018622 
    8100    270.09365   -1046.2197     140731.9   -43212.933    3709.0859   -46922.019     88.15344    0.9794973 
    8200    274.12569   -1037.4076    140754.62   -43139.023    3764.4562   -46903.479    89.201754   0.97933918 
    8300    275.90308   -1083.9785    140785.89   -43131.357    3788.8644   -46920.221    90.314849   0.97912166 
    8400    275.03662   -1031.3637    140847.95     -43187.1    3776.9657   -46964.066     91.47532   0.97869027 
    8500    272.20663   -972.39104    140833.52   -43249.717    3738.1026    -46987.82    92.513558   0.97879052 
    8600    275.25475   -884.55203    140742.42    -43178.29    3779.9611   -46958.251    93.875165   0.97942411 
    8700     277.8541   -1103.6708    140838.76   -43127.799     3815.657   -46943.456    94.895083   0.97875409 
    8800    276.27544   -878.10864     141037.3   -43082.908    3793.9779   -46876.886    96.431279   0.97737629 
    8900    276.11932    -799.1003    141070.53   -43107.539     3791.834   -46899.373    97.505168   0.97714612 
    9000    274.82163    -1042.313    140871.76   -43075.017    3774.0132   -46849.031    98.550395   0.97852484 
    9100    278.95279   -1078.8264     140747.4   -43058.161    3830.7448   -46888.905    99.998129   0.97938941 
    9200    276.23908   -1207.0667     140371.2   -43121.451    3793.4785    -46914.93    100.85479   0.98201422 
    9300    276.68044   -1066.9838    140590.93   -43133.623    3799.5396   -46933.163    102.14436   0.98047944 
    9400    276.04233   -1051.6187    140493.37   -43099.749    3790.7766   -46890.525    103.18058   0.98116028 
    9500    269.07004   -1064.9793    140652.65   -43128.027    3695.0291   -46823.056    104.62582   0.98004917 
    9600    271.71065   -879.97193    140591.83   -43200.515    3731.2915   -46931.806    105.53021   0.98047313 
    9700    274.95897   -1010.8372    140907.44   -43117.087    3775.8994   -46892.986    107.15149   0.97827707 
    9800    273.85132   -978.49314     140748.1   -43172.934    3760.6884   -46933.623    107.99646   0.97938454 
    9900    276.75544   -938.69303    140961.67   -43082.083    3800.5695   -46882.652    109.15489   0.97790072 
   10000    274.05965   -1173.1653    140888.16   -43219.564    3763.5493   -46983.113    110.01156   0.97841094 
   10100    267.69264   -970.05109    140745.14   -43195.085    3676.1137   -46871.199    111.01515   0.97940513 
   10200    272.40608   -1115.7525     140715.6   -43211.349    3740.8415    -46952.19    112.30558   0.97961079 
   10300    274.44866   -1019.2097     140587.1   -43198.113    3768.8915   -46967.005    113.33795   0.98050614 
   10400     275.6234   -985.08728    140605.19    -43092.86    3785.0236   -46877.884    114.92768      0.98038 
   10500    278.43623   -959.72609    140546.11   -43079.592    3823.6511   -46903.244    116.24249   0.98079214 
   10600    273.02746   -1037.5144    140675.56   -43080.827    3749.3746   -46830.201    118.05619   0.97988956 
   10700    271.01235    -1032.732    140687.13   -43110.785     3721.702   -46832.487    119.32785   0.97980902 
   10800    277.96053    -961.4869    140600.22   -43056.759    3817.1186   -46873.877    120.70869   0.98041469 
   10900    279.52925    -918.2881    140704.17   -43015.259    3838.6612    -46853.92    122.15498   0.97969034 
   11000    278.22713   -1015.4699    140707.52   -43042.711    3820.7796   -46863.491    123.74179   0.97966702 
   11100    277.65872    -968.1345    140816.04   -43052.729    3812.9738   -46865.702    125.07784   0.97891201 
   11200    279.12642   -1035.4723    141030.26   -43086.473    3833.1292   -46919.602    126.85094    0.9774251 
   11300    273.43762   -1145.8807    140780.72   -43127.827    3755.0072   -46882.834    127.90812   0.97915764 
   11400    273.39952   -897.13573    140707.63   -43170.594    3754.4841   -46925.078    129.44022   0.97966623 
   11500    270.78601   -903.75486    140692.34   -43277.793    3718.5938   -46996.386    130.27247   0.97977274 
   11600    270.85442    -1076.793    140512.97   -43317.776    3719.5332   -47037.309    131.54341   0.98102341 
   11700    265.40298   -1231.8289     140687.3   -43295.042    3644.6708   -46939.713     133.0199   0.97980784 
   11800    273.51939   -985.01077    140823.64   -43230.016    3756.1302   -46986.146    134.28163   0.97885922 
   11900     270.0338   -1138.4508    140404.38    -43335.71     3708.264   -47043.974    135.07418    0.9817822 
   12000    269.97003   -1082.6593    140270.01   -43249.034    3707.3883   -46956.422    136.23086   0.98272265 
   12100    274.00536   -902.99058    140586.24   -43186.789    3762.8038   -46949.593    137.82979   0.98051218 
   12200    274.81534   -805.10299    140575.96   -43126.251    3773.9269   -46900.178    139.13202   0.98058386 
   12300    274.40073   -1156.7909    140479.42   -43107.549    3768.2333   -46875.782    139.96649    0.9812577 
   12400     281.3776   -1031.7926    140368.51   -42995.601    3864.0438   -46859.644    141.32843   0.98203305 
   12500    273.15809   -1036.5206    140397.16    -43059.32    3751.1686   -46810.489    142.88913   0.98183265 
   12600    274.21628   -928.55777    140446.32   -43074.824    3765.7003   -46840.524    144.22054   0.98148897 
   12700    279.44819   -740.62366    140770.49   -43021.057     3837.548   -46858.605    145.92568   0.97922879 
   12800    276.50924   -986.49204    140626.07   -43078.395    3797.1885   -46875.584    147.26361   0.98023444 
   12900      275.547   -880.19463     140399.4   -43085.336    3783.9745    -46869.31    148.60054     0.981817 
   13000    273.32719   -996.25561    140399.28   -43134.822    3753.4907   -46888.313    150.14191    0.9818178 
   13100    271.26154   -1196.6181    140525.78   -43166.671    3725.1241   -46891.795    151.77747   0.98093399 
   13200    276.79837   -918.02154    140427.61   -43088.178     3801.159   -46889.337    153.07564   0.98161973 
   13300    275.85177   -846.09308    140884.95   -43041.287    3788.1597   -46829.447    154.36363   0.97843322 
   13400    272.33577   -1108.5245       140759   -43105.369     3739.876   -46845.245    155.37126   0.97930872 
   13500    267.71899   -789.39345    140626.01   -43103.826    3676.4756   -46780.301    157.27955   0.98023487 
   13600    270.01172   -954.36416    140677.64   -43153.954    3707.9607   -46861.915     158.4769    0.9798751 
   13700    270.33973   -1014.1145    140731.57     -43115.5    3712.4651   -46827.965     159.9263   0.97949957 
   13800    268.63897   -941.61281    140428.31   -43194.493    3689.1094   -46883.602    161.31017   0.98161486 
   13900    271.56152   -780.18459    140783.33   -43218.349    3729.2436   -46947.593    163.37735   0.97913945 
   14000    270.55205   -966.19351    140860.63   -43255.421    3715.3809   -46970.802    164.88126   0.97860214 
   14100    267.93151    -1050.312    140610.45   -43295.953    3679.3941   -46975.347    166.61037   0.98034333 
   14200    273.53939   -1190.9565    140576.64   -43200.362    3756.4048   -46956.767    168.07041   0.98057915 
   14300     279.1317   -964.82707    140377.67   -43194.656    3833.2018   -47027.858    168.89519     0.981969 
   14400    274.88215   -846.95339    140593.73   -43188.909    3774.8444   -46963.754    170.15869   0.98045989 
   14500    275.82103   -1035.6388    140899.41   -43154.292    3787.7377    -46942.03    171.82377   0.97833284 
   14600    272.34899    -841.1183    141015.59   -43149.723    3740.0576    -46889.78    173.49742   0.97752677 
   14700    280.45311   -1093.2418    141164.55    -43044.08    3851.3482   -46895.428    174.96289   0.97649531 
   14800    275.75997   -903.47674    141048.65   -43123.628    3786.8991   -46910.527    176.07771   0.97729769 
   14900    274.43958   -845.57721    140947.89   -43128.226    3768.7668   -46896.993    177.27744   0.97799629 
   15000    273.47184   -1089.2738    140589.81   -43196.518    3755.4772   -46951.995    178.00207   0.98048724 
   15100    272.81176   -848.29109    140396.79   -43237.644    3746.4125   -46984.056    179.35517   0.98183526 
   15200    272.15288    -953.7344    140507.48   -43266.676    3737.3645   -47004.041    180.33675   0.98106178 
   15300    272.00674   -1106.0476     140484.7   -43198.935    3735.3576   -46934.293    181.30254   0.98122082 
   15400    277.24644   -954.40703    140258.68   -43200.064    3807.3122   -47007.376    182.07903   0.98280203 
   15500    276.96849   -1099.7633    140464.64    -43192.79    3803.4953   -46996.285    183.27376     0.981361 
   15600    275.12003   -966.88327    140550.47   -43185.646    3778.1111   -46963.757    184.58589   0.98076166 
   15700    273.48365   -1031.6407    140442.21   -43223.458    3755.6393   -46979.097     185.8488    0.9815177 
   15800    271.31089    -979.8019    140402.92   -43207.833    3725.8017   -46933.634    186.69647   0.98179239 
   15900    272.80128   -977.96164    140390.56   -43184.664    3746.2686   -46930.933    188.73113   0.98187882 
   16000    270.69728   -1078.4508    140289.33   -43243.939    3717.3753   -46961.314    189.99015   0.98258735 
   16100    269.39432   -773.01867    140407.82   -43249.217    3699.4822   -46948.699    191.28465   0.98175813 
   16200    275.72708   -853.75756    140633.24   -43161.329    3786.4474   -46947.776    192.62192   0.98018444 
   16300    279.44436   -879.19478    140494.39   -43055.879    3837.4954   -46893.375    193.92794   0.98115315 
   16400    274.93381   -978.14637    140745.68   -43060.485    3775.5538   -46836.039    195.90479   0.97940142 
   16500    276.63616   -1120.0241    140872.94   -43060.386    3798.9315   -46859.318    197.83353   0.97851667 
   16600    273.11091   -1012.1753     141011.9   -43054.114    3750.5206   -46804.635    199.92754   0.97755235 
   16700    276.57978   -1011.3945    140859.15   -43084.907    3798.1573   -46883.065    201.01321   0.97861246 
   16800    276.14808   -890.51229    140926.83   -43140.291    3792.2289    -46932.52    202.27641   0.97814249 
   16900    275.97628   -948.27547    140817.14   -43136.524    3789.8697   -46926.393     204.2279    0.9789044 
   17000    272.98991   -1211.8518    140722.94   -43154.645     3748.859   -46903.504    205.21417   0.97955966 
   17100     274.2732   -1082.8304    140781.87   -43157.911     3766.482   -46924.393    206.99254   0.97914964 
   17200    272.15924   -1129.4029    140694.06   -43108.961    3737.4518   -46846.413    208.38099   0.97976073 
   17300    274.01125   -1017.9564    140769.28   -42992.982    3762.8847   -46755.867    209.89795   0.97923721 
   17400    278.39591   -1081.6967    140972.32    -43076.88    3823.0975   -46899.977    211.69986   0.97782682 
   17500    271.18499   -841.74023    140774.25   -43091.439    3724.0728   -46815.512    213.30897   0.97920261 
   17600    271.84599   -1131.6274    140871.95   -43111.446      3733.15   -46844.596    215.07773   0.97852351 
   17700    272.11832   -1069.0447    140563.91   -43162.349    3736.8898   -46899.239    216.31748   0.98066794 
   17800    277.28811   -770.41878    140762.22   -43120.042    3807.8844   -46927.926    217.98226   0.97928633 
   17900    272.37693   -1056.3388    140746.51   -43174.944    3740.4412   -46915.385    219.62241   0.97939566 
   18000    269.71434   -880.74547    140724.74   -43319.568    3703.8769   -47023.445     220.4509   0.97954711 
   18100    269.92817    -1110.372    140789.16   -43309.205    3706.8134   -47016.018    221.28293   0.97909896 
   18200    269.78608   -975.44351    140909.36    -43215.16    3704.8622   -46920.022     222.6579   0.97826375 
   18300    274.71926    -1054.577    141068.34   -43205.535    3772.6075   -46978.142    223.97843   0.97716125 
   18400    270.88707   -1139.5094    140739.52   -43248.695    3719.9816   -46968.676    225.02253   0.97944428 
   18500    271.67858   -996.95955    140715.14   -43195.668    3730.8511   -46926.519    225.98943     0.979614 
   18600    275.64387   -960.09865    140552.63    -43171.42    3785.3048   -46956.724      227.006   0.98074664 
   18700    272.69324   -832.46298    140782.94   -43116.644    3744.7849   -46861.429    228.60919   0.97914216 
   18800    274.67953   -1162.9203    140801.73   -43101.681    3772.0619   -46873.743    230.31799   0.97901154 
   18900    273.99257   -916.52169    141063.19   -43130.366    3762.6282   -46892.994    231.44663   0.97719696 
   19000    273.81356   -1049.8697    141174.69   -43132.631    3760.1699   -46892.801    232.21065   0.97642517 
   19100    270.38058   -882.86041    140936.19   -43205.002    3713.0262   -46918.028    233.40752   0.97807748 
   19200    274.77088   -1037.6201    140943.65   -43153.425    3773.3163   -46926.741    234.99897    0.9780257 
   19300     275.9802   -1016.0955    140610.19   -43127.166    3789.9235    -46917.09    235.89717   0.98034512 
   19400    275.63158    -931.8119    140795.96   -43112.957    3785.1361   -46898.093     237.0348   0.97905162 
   19500    274.46796   -809.55472    140975.72   -43128.835    3769.1565   -46897.991    238.46681   0.97780322 
   19600    275.97005   -1293.5627    141025.03    -43131.15     3789.784   -46920.934    239.17812   0.97746135 
   19700    274.19325   -876.82598    141010.16   -43147.696    3765.3841    -46913.08    240.90562    0.9775644 
   19800    280.08159   -931.93932    140863.07   -43065.598    3846.2462   -46911.844    242.41925   0.97858518 
   19900    273.93196   -1342.8659    140796.14   -43106.442    3761.7958   -46868.238    243.88594    0.9790504 
   20000    281.04517   -881.45705    140518.42   -42990.268    3859.4786   -46849.747    245.36668    0.9809854 
   20100    269.06564    -869.9402    140466.43   -43029.363    3694.9686   -46724.332    246.44218    0.9813485 
   20200    279.28952   -923.48215    140795.46   -43025.066    3835.3691   -46860.435    247.91473   0.97905516 
   20300    274.66768   -736.24888    140756.71   -43014.501    3771.8992     -46786.4    248.61837   0.97932467 
   20400    277.24243   -1096.9595    140776.12   -43078.437    3807.2572   -46885.694    249.86438   0.97918962 
   20500    271.61072   -926.23779    141012.52   -43024.005    3729.9192   -46753.924    251.11828   0.97754807 
   20600    275.38479   -1033.7502    140831.44   -43108.966    3781.7469   -46890.713    252.43566   0.97880497 
   20700    269.48274   -817.53581    140953.64   -43114.416    3700.6965   -46815.113    253.57741   0.97795643 
   20800    274.15211   -891.60722    141021.94   -43153.468     3764.819   -46918.288    254.83557   0.97748279 
   20900    269.63153   -933.11502    140895.85   -43142.195    3702.7398   -46844.935     255.8345   0.97835754 
   21000    276.23971   -965.20653    140706.14   -43108.778    3793.4872   -46902.265    257.00345   0.97967664 
   21100    275.12309   -1055.4569    140848.56   -43171.967    3778.1531    -46950.12    258.20199   0.97868602 
   21200    271.91051   -1080.9398    140946.94   -43218.725    3734.0361   -46952.761    258.88474   0.97800289 
   21300    275.50602   -1093.9073    141187.15   -43253.381    3783.4117   -47036.793    260.64424   0.97633894 
   21400    274.74347   -1101.3929     141221.5   -43199.038    3772.9399   -46971.978    261.79321    0.9761015 
   21500    277.96533   -1223.0173    141148.63   -43066.999    3817.1844   -46884.184    263.58736   0.97660541 
   21600    269.07294   -1018.9111    140899.02   -43179.008    3695.0689   -46874.076    264.34646   0.97833555 
   21700    273.11075    -1002.093    140978.49   -43171.308    3750.5185   -46921.826    265.84271   0.97778401 
   21800    276.49465   -930.97132    140916.84   -43065.885    3796.9883   -46862.874    267.17164   0.97821183 
   21900    275.98922   -1114.1733    140918.59    -43113.64    3790.0474   -46903.687    269.52041   0.97819963 
   22000    276.24368   -1115.9612    141032.16   -43090.488    3793.5417   -46884.029    271.86894    0.9774119 
   22100    275.12995   -934.15374    140757.46   -43137.721    3778.2474   -46915.969    273.44231   0.97931941 
   22200    273.86724   -930.38952     140897.8   -43068.258     3760.907   -46829.165    275.03682   0.97834398 
   22300    278.08641    -1046.049     141073.6   -43050.858    3818.8471   -46869.705    277.00645   0.97712484 
   22400    271.21275   -1116.8656    140989.13   -43192.603     3724.454   -46917.057    278.50127   0.97771023 
   22500    273.45923   -1195.6937    140831.13   -43194.507     3755.304   -46949.811    279.41114   0.97880713 
   22600    274.83482   -824.46267    140844.38   -43192.701    3774.1944   -46966.896    281.01462   0.97871505 
   22700    273.50517   -1077.9404    140909.27     -43193.7    3755.9349   -46949.635    282.29029   0.97826433 
   22800    275.52439     -907.037    140994.18   -43251.259     3783.664   -47034.923    283.35631   0.97767524 
   22900    274.61287     -1017.93    141106.74   -43358.008    3771.1465   -47129.154    285.01762   0.97689534 
   23000    272.13756   -1172.2639    140993.19    -43265.53    3737.1541   -47002.684    285.56896   0.97768207 
   23100    276.95381   -925.24877     141008.3   -43194.222    3803.2937   -46997.516    287.04291   0.97757731 
   23200    276.50487   -1053.6495    140964.88   -43175.411    3797.1286    -46972.54    287.87184   0.97787846 
   23300    276.57636   -1041.3358    140816.57   -43193.881    3798.1103   -46991.991    288.52892   0.97890835 
   23400    274.89979   -1005.1219    140862.79   -43227.966    3775.0866   -47003.052    289.17753   0.97858715 
   23500    274.79083   -1090.3332    140901.87   -43165.529    3773.5903   -46939.119    290.78986   0.97831575 
   23600    273.65446   -988.33221     140946.8   -43217.891     3757.985   -46975.876    292.36641   0.97800385 
   23700    277.00463    -1095.839    141113.95   -43289.331    3803.9916   -47093.323    293.59151   0.97684545 
   23800    270.79787   -852.76355    141228.43   -43243.428    3718.7566   -46962.184    295.39591   0.97605358 
   23900    271.72078   -930.95642    141248.34   -43193.829    3731.4306   -46925.259    295.78381   0.97591603 
   24000    276.15671   -818.18838    141354.93   -43167.091    3792.3474   -46959.438    296.89811   0.97518008 
   24100    270.79658   -1017.9397    141389.74   -43187.879    3718.7389   -46906.618    298.14185   0.97494002 
   24200    277.64326   -1004.8425    141510.02   -43062.472    3812.7616   -46875.234    299.58603   0.97411137 
   24300    275.10843   -1158.6127    141449.98   -43087.744    3777.9518   -46865.696    300.90198   0.97452485 
   24400    276.45025   -881.21255    141214.22   -43059.171    3796.3785   -46855.549    302.25812    0.9761518 
   24500    272.78871   -1042.6823    141027.51   -43098.554    3746.0961    -46844.65    303.51397    0.9774442 
   24600    275.30785   -1042.5886    140606.54   -43144.719    3780.6903    -46925.41    303.68859    0.9803706 
   24700    276.36859   -974.93316    140685.01   -43110.565     3795.257   -46905.822    305.18209   0.97982374 
   24800    277.93627   -1017.1406    140585.24   -43086.757    3816.7854   -46903.542    306.62204   0.98051912 
   24900    275.66251   -1134.8678    140661.69   -43206.996    3785.5608   -46992.557    307.63868   0.97998624 
   25000    270.76755   -1273.1303    140516.53   -43218.754    3718.3403   -46937.094    308.66545   0.98099861 
   25100    272.72243   -997.23743    140458.29   -43234.381    3745.1859   -46979.567    309.91188   0.98140532 
   25200    268.37259   -1024.9437     140509.6   -43221.177    3685.4513   -46906.628    310.95143   0.98104695 
   25300    276.60824   -1095.6492    140237.49   -43236.515    3798.5481   -47035.063    311.67188   0.98295051 
   25400    274.59437   -918.71149    140614.33   -43205.628    3770.8925   -46976.521    313.21381    0.9803163 
   25500    269.87771   -985.99002    140813.28   -43160.914    3706.1205   -46867.034    314.93063   0.97893126 
   25600    268.43996   -954.60002    140820.92   -43226.979    3686.3764   -46913.355    316.30015   0.97887813 
   25700    270.48871   -847.12269    140983.27   -43197.992     3714.511   -46912.503    317.43836   0.97775091 
   25800    269.85314   -1004.7163    141023.85   -43226.929    3705.7831   -46932.712    318.80482   0.97746951 
   25900    265.31519   -1145.7671    140838.89   -43367.323    3643.4652   -47010.789    320.12156   0.97875325 
   26000    276.58444   -1064.3837    140947.32   -43238.773    3798.2213   -47036.995    321.30136   0.97800024 
   26100    272.19554   -1167.6583    141044.61   -43302.341    3737.9503   -47040.291    322.32248   0.97732566 
   26200    271.67827   -962.04533    141092.19   -43194.677    3730.8468   -46925.523    323.62557    0.9769961 
   26300     272.5687   -898.75346    140883.57   -43156.252    3743.0747   -46899.327    323.86349   0.97844278 
   26400    270.99195   -1017.8788    140699.54   -43245.952    3721.4219   -46967.374    324.99287   0.97972256 
   26500    278.72781   -891.46096    140697.94   -43091.027    3827.6553   -46918.682    326.68172    0.9797337 
   26600    278.37037   -1184.5389    140500.46   -43109.708    3822.7467   -46932.455    328.58386   0.98111078 
   26700    271.98459   -973.51645    140402.11    -43123.06    3735.0533   -46858.114    329.86097   0.98179805 
   26800    275.35954   -892.37899    140692.82   -43099.714    3781.4001   -46881.114    331.86008   0.97976938 
   26900    275.23382   -948.01519     140582.2   -43208.671    3779.6737   -46988.345    332.98712   0.98054033 
   27000    274.09608   -963.80972    140638.28   -43183.071    3764.0496   -46947.121    334.75464   0.98014933 
   27100    272.04351   -916.17909    140697.72   -43251.063    3735.8625   -46986.926    336.27553   0.97973526 
   27200    274.78706   -986.07258    140980.11   -43156.997    3773.5385   -46930.535    337.88225   0.97777278 
   27300    281.17342   -914.06305     141044.7   -43104.122    3861.2398   -46965.362    339.41546   0.97732506 
   27400    274.00088   -1207.8123    140672.74   -43107.437    3762.7423   -46870.179    339.54618   0.97990925 
   27500    270.97065   -1000.2581    140342.74   -43172.763    3721.1293   -46893.892    340.62425   0.98221337 
   27600    273.65593   -846.22424    140673.13   -43092.424    3758.0052   -46850.429    341.86761   0.97990649 
   27700    273.44436   -960.70503     140416.8   -43096.374    3755.0998   -46851.474    343.32853    0.9816953 
   27800    278.14734   -893.88582    140694.87   -43042.624    3819.6839   -46862.308    344.82563   0.97975511 
   27900    274.74382    -892.5317    140691.44   -43099.885    3772.9447   -46872.829    346.07511   0.97977902 
   28000    277.21178   -1026.6585    140934.13   -42935.668    3806.8362   -46742.504    347.29483   0.97809179 
   28100    277.92321   -983.48149    140861.39   -43043.028     3816.606   -46859.634    348.17075   0.97859688 
   28200     270.3345   -873.08957    140771.16   -43138.224    3712.3933   -46850.617    350.07542   0.97922416 
   28300    272.10287   -1035.9316    140596.39   -43173.706    3736.6776   -46910.383    351.33598   0.98044135 
   28400    278.41192   -1056.5043    140632.74   -43052.439    3823.3173   -46875.756    352.97316   0.98018794 
   28500    275.63181    -861.1225     140862.2   -43070.591    3785.1391    -46855.73    355.06079   0.97859126 
   28600    271.72102    -1040.353    140673.65   -43151.855    3731.4339   -46883.289    356.14248   0.97990289 
   28700    269.26094   -942.58439    140518.91   -43221.164    3697.6506   -46918.814    357.54109   0.98098198 
   28800    273.92625   -883.81662    140412.58   -43176.897    3761.7173   -46938.614    358.10332   0.98172485 
   28900     269.9288    -1037.922    140618.75   -43130.143    3706.8221   -46836.965    359.56025   0.98028545 
   29000    276.99336   -940.51539    140634.58   -43148.057    3803.8368   -46951.893    361.43154   0.98017514 
   29100    277.04441   -925.26377    140776.92   -43122.693    3804.5378   -46927.231    363.28278    0.9791841 
   29200    273.75501   -1044.4323    140750.39   -43126.243    3759.3658   -46885.609    364.48601    0.9793686 
   29300    275.48505   -899.76289    140634.94   -43128.525    3783.1238   -46911.649    365.36136   0.98017259 
   29400    273.96992   -978.85023    140450.27   -43133.564    3762.3171   -46895.881     366.6497   0.98146141 
   29500    277.89478   -1054.1524    140228.38   -43178.507    3816.2156   -46994.723    367.00106   0.98301441 
   29600    267.53579   -1081.7401    140112.86   -43149.955    3673.9598   -46823.915    368.10221   0.98382486 
   29700    274.42144   -1233.2273    140390.88   -43078.611    3768.5176   -46847.129    370.15383    0.9818766 
   29800    274.56697   -1069.2537    140267.81   -43066.676    3770.5161   -46837.192    370.67617   0.98273806 
   29900    275.99359   -810.55327    140642.56   -42999.135    3790.1073   -46789.242    372.77476   0.98011954 
   30000    275.05993   -849.06737    140888.45   -42986.038    3777.2858   -46763.323    374.64925   0.97840893 
   30100    275.71994   -972.75145    140807.57    -43012.81    3786.3494   -46799.159    376.07023   0.97897092 
   30200    274.07697   -1008.2982    140788.45   -43032.157    3763.7872   -46795.944    377.43056   0.97910384 
   30300    281.62813   -952.73456    141069.02   -43024.684    3867.4841   -46892.168    379.56509   0.97715658 
   30400    276.35437   -991.00834    140792.28   -43121.958    3795.0618    -46917.02    380.44287   0.97907723 
   30500    276.56389   -904.63808    140587.51   -43212.832    3797.9391   -47010.771    381.41686   0.98050331 
   30600    270.99588   -1065.8077    140352.53       -43209    3721.4758   -46930.476     381.9117   0.98214488 
   30700     273.6266    -753.3689    140391.14   -43174.471    3757.6025   -46932.073    382.31666   0.98187479 
   30800    276.18905   -1056.4997    140522.64   -43156.426    3792.7915   -46949.217    383.65164   0.98095596 
   30900    276.09643    -1168.967    140590.51   -43164.717    3791.5196   -46956.237    384.49321   0.98048236 
   31000    274.98441   -1033.4178     140645.7   -43156.072    3776.2487   -46932.321    385.65087   0.98009765 
   31100    273.27709    -872.5671     140582.9   -43223.986    3752.8028   -46976.789    386.54856   0.98053542 
   31200    268.46609   -811.50188    140390.64   -43323.343    3686.7352   -47010.078    386.00439   0.98187828 
   31300    275.34693   -1084.0822    140672.48   -43198.541     3781.227   -46979.768    388.02017   0.97991106 
   31400    273.62653    -1178.724    140848.95   -43245.131    3757.6015   -47002.733    389.97601   0.97868332 
   31500    276.32714   -1229.8487    140825.77   -43169.554    3794.6878   -46964.242    391.17859   0.97884438 
   31600     275.9461   -949.80357    140964.17   -43145.947    3789.4552   -46935.402    392.76835   0.97788339 
   31700    276.23317   -1112.6108    140881.61   -43201.482    3793.3974   -46994.879     394.0891   0.97845644 
   31800    271.50534   -990.13557    141225.45   -43185.409    3728.4721   -46913.881    396.25575   0.97607421 
   31900    273.83933   -963.69247    140946.26   -43119.193    3760.5237   -46879.717    396.75869   0.97800766 
   32000    276.30926   -966.26489    140947.89   -43094.158    3794.4423     -46888.6    398.15687    0.9779963 
   32100    272.53484   -921.72779     140943.9   -43216.715    3742.6098   -46959.325    399.58595   0.97802401 
   32200    274.24962    -1111.374    141151.72   -43120.987    3766.1582   -46887.145    400.84924   0.97658405 
   32300    272.57403    -880.7104    140938.66   -43150.121    3743.1479   -46893.269     402.1234   0.97806035 
   32400    272.42676   -885.23598    141030.24   -43101.792    3741.1255   -46842.917    403.48585   0.97742523 
   32500    278.11336   -1115.0056    140830.87   -43132.415    3819.2172   -46951.632    404.63554   0.97880896 
   32600    271.84242   -919.33653     140824.2    -43175.62     3733.101   -46908.721    406.28911    0.9788553 
   32700     272.7231   -943.86325    140693.02   -43100.651    3745.1951   -46845.846     407.2976   0.97976796 
   32800    276.81232   -941.14466    140733.64   -43126.169    3801.3506   -46927.519    408.80941   0.97948518 
   32900    270.38976   -914.27512    140886.78   -43240.217    3713.1522   -46953.369    410.60271   0.97842053 
   33000    270.75924   -975.06911    140668.41   -43202.786    3718.2262   -46921.012    411.96979    0.9799394 
   33100    270.82303   -994.04714    140640.95    -43314.08    3719.1021   -47033.182    413.52066   0.98013075 
   33200    278.85767    -1038.047    140486.32   -43191.493    3829.4386   -47020.931    414.54309   0.98120954 
   33300    279.42135   -1050.7085    140720.44   -43141.879    3837.1794   -46979.058    416.17718   0.97957704 
   33400    275.44166   -1088.2744    140708.06   -43195.466    3782.5279   -46977.994    417.06475   0.97966323 
   33500    275.62119   -1159.9929    140708.54   -43110.627    3784.9933    -46895.62    418.08975    0.9796599 
   33600    274.60566   -998.82135     140758.2   -43125.685    3771.0474   -46896.732    418.90944   0.97931427 
   33700    272.81532   -1029.1315    140643.81   -43154.492    3746.4615   -46900.954    419.54723   0.98011077 
   33800    270.22717   -1004.1745    140578.39   -43162.546    3710.9194   -46873.465     420.1823   0.98056693 
   33900    271.09676    -924.0791    140822.91   -43141.308    3722.8612   -46864.169    422.34296   0.97886426 
   34000    269.33915   -907.24383    140676.04    -43149.05    3698.7246   -46847.775    423.07095   0.97988626 
   34100    273.55356   -1045.6405    140543.12   -43180.334    3756.5993   -46936.933    424.19083   0.98081295 
   34200    279.05795   -905.41342    140812.06   -43175.606     3832.189   -47007.795    426.21308   0.97893972 
   34300    278.00527   -944.40558     140961.8   -43193.208    3817.7329   -47010.941    427.42785   0.97789981 
   34400     276.3222   -924.10274    140963.36   -43112.871      3794.62   -46907.491    428.92859   0.97788901 
   34500    273.98245   -1001.1999    141195.14     -43024.2    3762.4891   -46786.689    430.68472   0.97628372 
   34600    278.59475   -1122.5643    141351.56   -43035.401     3825.828   -46861.229    431.97698   0.97520339 
   34700    273.84655   -892.05331    141083.47   -43149.985    3760.6229   -46910.608    433.72507   0.97705644 
   34800    272.88329   -1178.0236    140912.18   -43175.359    3747.3948   -46922.754    435.34312   0.97824412 
   34900    272.33881   -1093.7091    140607.41   -43184.967    3739.9178   -46924.885    436.26365   0.98036451 
   35000    273.71952   -941.83605    140518.35   -43238.988    3758.8784   -46997.866    437.45023   0.98098586 
   35100    275.80431   -848.92211    140613.53   -43165.417     3787.508   -46952.925    438.95426   0.98032184 
   35200    279.95945   -1030.8564    140759.89   -43105.235    3844.5689   -46949.804    440.92512   0.97930254 
   35300    275.91462    -1099.609    141066.33   -43102.414    3789.0229   -46891.437     443.4151   0.97717518 
   35400    272.89412   -1109.9799     140983.8   -43194.501    3747.5436   -46942.045    445.52413   0.97774722 
   35500    274.93737   -812.72159    141099.01   -43185.122    3775.6027   -46960.725    447.25199   0.97694888 
   35600    275.00034   -1124.8721    140951.56   -43218.206    3776.4674   -46994.674    448.45864   0.97797087 
   35700    269.24467   -901.95518     141148.3   -43185.398    3697.4272   -46882.825    449.78959   0.97660768 
   35800    273.38593   -1020.4318    141160.02   -43164.831    3754.2975   -46919.128    450.55554   0.97652664 
   35900    271.08305   -783.55889    141204.89   -43125.973    3722.6728   -46848.646    452.96341   0.97621628 
   36000     273.0826   -905.04202    141231.92   -43155.326    3750.1319   -46905.458    455.52958   0.97602947 
   36100    272.45176   -905.88664    141263.92   -43164.126    3741.4688   -46905.595    456.75379   0.97580836 
   36200     276.0793   -945.56531     141443.1   -43117.439    3791.2843   -46908.724    458.56863   0.97457225 
   36300    274.97063   -1051.0942    141271.22   -43081.563    3776.0594   -46857.622    458.70608   0.97575797 
   36400    271.83866   -1036.8404    140782.98   -43132.661    3733.0493   -46865.711    459.32411   0.97914194 
   36500    279.73892   -767.31979    140766.55   -42976.111    3841.5404   -46817.652    460.69285   0.97925618 
   36600    274.64465   -1025.4621    140999.62   -43103.564    3771.5828   -46875.147    461.72413   0.97763748 
   36700    279.60158   -1042.5356    141002.06   -43106.985    3839.6544   -46946.639    462.46071   0.97762058 
   36800    274.89269   -1227.6332    140790.92   -43185.626    3774.9891   -46960.615    463.69925   0.97908669 
   36900    273.75472   -1255.0011    140742.17   -43209.752    3759.3619   -46969.114    464.83561    0.9794258 
   37000    275.47641   -871.78457    140786.22   -43170.037    3783.0051   -46953.042    467.26857    0.9791194 
   37100    275.77766   -1090.5722    140757.51   -43207.267    3787.1421    -46994.41    468.40296   0.97931911 
   37200    275.90176   -915.54513    140739.93   -43182.382    3788.8462   -46971.228    469.27196   0.97944144 
   37300    277.19809   -932.11121    140360.55   -43220.297    3806.6483   -47026.945    469.33634   0.98208875 
   37400    272.66966   -1046.4642    140473.64   -43258.325    3744.4612   -47002.786    470.71393   0.98129811 
   37500    269.63648   -732.77659    140536.58   -43324.935    3702.8077   -47027.743    471.32853   0.98085864 
   37600    275.97104   -1023.3168    140905.82   -43264.172    3789.7977    -47053.97    474.01094   0.97828834 
   37700    270.91185   -1109.7833    140697.51   -43258.592    3720.3219   -46978.914    476.35507   0.97973672 
   37800    273.34007   -833.76878    140682.75   -43290.921    3753.6677   -47044.589    476.89808   0.97983953 
   37900    265.83159   -1041.8803    140948.18    -43263.67    3650.5567   -46914.226    479.11738   0.97799429 
   38000    272.64469   -978.30322    140798.04   -43271.914    3744.1182   -47016.032    480.39549   0.97903718 
   38100    270.18209   -922.93014    140476.43   -43281.979    3710.3004   -46992.279    481.14383   0.98127862 
   38200    270.26039   -926.91954     140650.8   -43233.849    3711.3757   -46945.225    483.00888   0.98006207 
   38300    272.09921   -988.04974    140747.57   -43277.826    3736.6274   -47014.454    483.64384   0.97938829 
   38400    272.43626   -1042.0621     140711.2   -43341.938    3741.2559   -47083.194    484.53903   0.97964138 
   38500    272.79919   -1141.0384    140727.27   -43365.258      3746.24   -47111.498    485.95406   0.97952955 
   38600    272.16869   -966.23158    140946.31   -43318.399    3737.5816   -47055.981    487.34695   0.97800726 
   38700      265.053   -1209.9338    140737.13   -43294.203    3639.8647   -46934.068    487.99182   0.97946093 
   38800    271.59205   -883.73445    140538.37    -43215.64    3729.6628   -46945.303    488.48007    0.9808461 
   38900    276.88083   -1134.4748    140441.22   -43159.059    3802.2914   -46961.351    489.15334   0.98152461 
   39000    273.15913   -1060.5201    140485.66   -43193.425    3751.1828   -46944.607    490.33917   0.98121415 
   39100    273.00461   -850.64057    140785.14   -43137.528    3749.0609   -46886.589    492.35503   0.97912692 
   39200     271.5847   -1127.9578    140689.26   -43193.177    3729.5618   -46922.739    492.88225   0.97979415 
   39300    272.75052   -841.19096    140707.96   -43130.079    3745.5716    -46875.65    493.76359   0.97966397 
   39400    271.89751   -936.39673    140913.55   -43103.989    3733.8576   -46837.847    496.12851   0.97823465 
   39500    275.48413   -1119.9307    140902.84   -43105.381    3783.1112   -46888.492    497.89481   0.97830897 
   39600    278.58017   -1069.7309    140840.08   -43062.236    3825.6278   -46887.864    499.08719   0.97874497 
   39700    276.26644   -1051.1205    140846.04   -43103.304    3793.8543   -46897.158    499.04658   0.97870351 
   39800    272.11651   -1000.8622    140798.48   -43108.303     3736.865   -46845.168    500.73889   0.97903414 
   39900    268.48644    -1122.269    140522.15   -43253.559    3687.0147   -46940.574    501.89345   0.98095932 
   40000    272.92564   -769.81822    140741.95   -43261.581    3747.9765   -47009.557    503.22705   0.97942737 
   40100    267.10645    -1125.474    140651.52   -43171.988    3668.0639   -46840.052     504.2096   0.98005708 
   40200    275.47697   -969.33495    140590.46   -43087.967    3783.0128    -46870.98     505.3089   0.98048275 
   40300    273.39623   -1090.3708    140683.22    -43114.97    3754.4388   -46869.409    506.53978   0.97983623 
   40400    277.92524   -1116.7709    140697.03   -43095.209    3816.6339   -46911.843    507.21929   0.97974005 
   40500    275.25493   -865.66373    140697.57   -43153.525    3779.9637   -46933.489    508.87756   0.97973631 
   40600    271.04227    -786.0006    140668.94   -43103.657    3722.1128    -46825.77    510.55129    0.9799357 
   40700    275.77745   -1044.7078    140750.04   -43171.623    3787.1391   -46958.762    512.52682   0.97937105 
   40800    271.54095   -994.42123    140511.55   -43197.139     3728.961     -46926.1    514.13931   0.98103337 
   40900    274.62908   -1165.5617    140670.09   -43130.859     3771.369   -46902.228    516.21058   0.97992772 
   41000    274.71953    -1066.131    140137.19   -43171.733    3772.6112   -46944.345    515.70316   0.98365404 
   41100    274.41602   -859.73677    140092.94   -43240.964    3768.4432   -47009.407    515.78795   0.98396477 
   41200    280.43027   -871.68802    140305.03   -43109.069    3851.0344   -46960.103    517.31908   0.98247738 
   41300    276.01876   -1218.5615    140461.79    -43191.65    3790.4529   -46982.103    518.63622   0.98138087 
   41400    271.16049   -998.16795    140311.79   -43183.704    3723.7364    -46907.44    520.21793   0.98243006 
   41500    272.90438   -956.96116    140416.16   -43167.368    3747.6845   -46915.052    521.59844    0.9816998 
   41600    269.60258     -663.988    140666.51   -43134.239    3702.3421   -46836.581    523.18788   0.97995263 
   41700    270.34027   -944.73836    140653.82    -43211.33    3712.4727   -46923.803    523.41594   0.98004107 
   41800    273.39259   -1053.4359    140490.96   -43161.142    3754.3889    -46915.53    524.47511   0.98117713 
   41900    276.15981   -1169.4401    140514.32   -43087.249      3792.39   -46879.639     525.7139   0.98101399 
   42000    274.80929   -947.33035     140496.9   -43175.176    3773.8439    -46949.02    526.65475   0.98113565 
   42100    277.75444   -1012.7972    140734.17   -43109.439    3814.2883   -46923.727    528.95364   0.97948149 
   42200    275.42759   -868.65227    140696.07   -43128.791    3782.3347   -46911.126    529.71421   0.97974677 
   42300    275.37916   -1300.5244    140537.04   -43165.617    3781.6697   -46947.287     531.0447   0.98085544 
   42400    272.87547   -1005.0594    140575.58   -43252.569    3747.2875   -46999.857    533.81569    0.9805865 
   42500    269.66478   -997.52099    140645.96   -43173.096    3703.1964   -46876.293     535.4393   0.98009584 
   42600    271.31691   -915.60215     140668.9   -43222.159    3725.8843   -46948.043    536.00898   0.97993601 
   42700    271.99732   -912.70706    140831.75    -43217.55    3735.2283   -46952.778    537.58762   0.97880287 
   42800    272.17523   -879.62909    140605.06   -43304.493    3737.6714   -47042.164     538.0997   0.98038088 
   42900    266.17471   -954.89003    140687.87   -43270.929    3655.2687   -46926.198    539.54995   0.97980382 
   43000    274.55202   -801.97703    141032.18   -43196.478    3770.3109   -46966.789    541.73886   0.97741177 
   43100    273.17345   -898.75862    141092.25   -43244.641    3751.3795    -46996.02    542.93463   0.97699569 
   43200    271.30091    -1042.308    140910.42   -43238.437    3725.6647   -46964.102    543.17231   0.97825638 
   43300    274.18814   -1127.7171    140800.34    -43268.41    3765.3138   -47033.724    544.13409   0.97902119 
   43400    271.36785   -1134.2556     140713.5   -43325.091    3726.5839   -47051.675    545.03816    0.9796254 
   43500    270.57347   -806.65213    140912.67   -43281.251     3715.675   -46996.926    547.18558   0.97824074 
   43600    275.92819   -976.10358    141106.14   -43247.363    3789.2093   -47036.572    548.77759   0.97689948 
   43700    275.83923   -945.39693    141269.71   -43278.271    3787.9876   -47066.259    550.72544    0.9757684 
   43800    274.00067   -973.09226    141021.27   -43229.358    3762.7394   -46992.097    551.28242   0.97748745 
   43900    273.67112   -1076.3823    140864.47   -43232.397    3758.2137   -46990.611    551.81309   0.97857548 
   44000    275.56623   -917.24658    140999.46   -43211.673    3784.2386   -46995.911    553.14155   0.97763858 
   44100    271.87463   -1049.0846    140975.69   -43115.396    3733.5434   -46848.939    553.74414   0.97780345 
   44200    271.59028   -1096.5952    140967.53   -43142.055    3729.6385   -46871.693    554.72967   0.97786008 
   44300    272.45407   -1002.4294    140821.21   -43189.031    3741.5006   -46930.531    555.63427   0.97887608 
   44400    275.54976   -1060.0131    140779.08   -43239.346    3784.0124   -47023.358    556.62515   0.97916901 
   44500    271.30795   -979.36967    140767.75   -43273.492    3725.7614   -46999.253    558.10852   0.97924786 
   44600    273.32151    -1025.137    140681.16   -43251.147    3753.4128    -47004.56    559.13972    0.9798506 
   44700    270.94937    -931.2624    140447.43    -43328.93    3720.8371   -47049.767    559.36221   0.98148122 
   44800    274.52875   -980.87775    140361.05    -43283.15    3769.9913   -47053.142     560.6175   0.98208524 
   44900    273.02419   -984.48479    140364.56   -43243.208    3749.3298   -46992.538    562.25581   0.98206071 
   45000    272.40398   -897.92164     140417.5    -43241.31    3740.8127   -46982.123    564.27196   0.98169047 
   45100     270.7442   -846.80712    140740.01   -43245.463    3718.0196   -46963.482    566.89195    0.9794409 
   45200    276.63029   -1170.9968    140861.98   -43266.666    3798.8509   -47065.517    567.56782   0.97859278 
   45300    271.71155   -920.84678    140947.01   -43264.586    3731.3038    -46995.89    569.19166   0.97800243 
   45400    271.97031   -982.72287    140739.32    -43255.06    3734.8573   -46989.917     569.3561   0.97944569 
   45500    279.48838   -883.20762       140846   -43254.892    3838.0999   -47092.992    571.01643   0.97870383 
   45600    277.70484   -904.05698    141049.86   -43241.224    3813.6073   -47054.831    572.41864   0.97728932 
   45700    271.24512   -763.84725    141083.66   -43271.904    3724.8985   -46996.802    573.00776   0.97705517 
   45800    275.37403   -1025.8765     141330.5   -43141.128    3781.5991   -46922.727     575.2787    0.9753487 
   45900    275.94207   -1047.8599    141359.43   -43200.044    3789.3998   -46989.444    576.60249    0.9751491 
   46000    271.01253   -1303.5489    141096.78   -43234.758    3721.7045   -46956.463    576.71341    0.9769643 
   46100    271.17073   -1017.3132    140922.05   -43276.634     3723.877   -47000.511    576.18334   0.97817565 
   46200     273.6044   -876.99925    140948.14   -43194.041    3757.2976   -46951.339     578.5303    0.9779946 
   46300     273.2372   -1036.4965    140730.65   -43160.688    3752.2549   -46912.942     579.5783     0.979506 
   46400     277.7799   -1007.2063    140863.24     -43138.9    3814.6381   -46953.538    582.35931   0.97858403 
   46500     274.6812   -1220.2857    140856.58   -43183.599    3772.0848   -46955.684    583.29975   0.97863029 
   46600    277.35848   -1038.6626    140610.15   -43055.606    3808.8509   -46864.456     583.6895   0.98034543 
   46700    273.82212   -1106.3722    140799.09   -43084.133    3760.2874    -46844.42    585.61575    0.9790299 
   46800    280.16389   -1057.2285    140917.75   -42988.029    3847.3763   -46835.405    586.64736    0.9782055 
   46900     275.4772    -979.5981    141035.04   -43026.898     3783.016   -46809.914    588.43213     0.977392 
   47000    276.58753   -1001.4156    140911.54   -43032.417    3798.2637   -46830.681    589.81889   0.97824858 
   47100    272.98917   -963.99652    141008.38   -43042.679    3748.8489   -46791.528    591.26075    0.9775768 
   47200    277.51321   -1008.4182    141142.52   -43051.704    3810.9757   -46862.679    592.95134   0.97664769 
   47300    279.74971   -969.97565    141246.32   -43082.218    3841.6886   -46923.907    593.79827   0.97592995 
   47400    276.49698   -1133.4131    141155.83   -43066.768    3797.0202   -46863.788    595.39099   0.97655559 
   47500    278.54921   -1049.1751     140794.8   -43079.093    3825.2026   -46904.296    594.98554   0.97905973 
   47600    278.60442   -1130.8573    140931.23   -43090.298    3825.9607   -46916.258    596.87968   0.97811192 
   47700    273.96018   -900.72017    140802.04   -43146.782    3762.1834   -46908.965    598.01623   0.97900935 
   47800    273.25785   -820.34443    140989.51   -43167.723    3752.5385   -46920.261    600.34001   0.97770759 
   47900    277.21821   -984.65077    141139.69   -43130.998    3806.9245   -46937.923     602.8828   0.97666724 
   48000    269.11592   -861.01177    140994.11   -43240.247    3695.6591   -46935.906    603.46782   0.97767568 
   48100    266.53098   -1148.9981    140818.71   -43192.278    3660.1611   -46852.439    604.47997   0.97889351 
   48200    275.69066   -998.93938     140777.7   -43179.313    3785.9473    -46965.26    604.67821   0.97917862 
   48300    280.81441   -1108.7901    140816.24   -43167.873    3856.3097   -47024.183    606.25629   0.97891063 
   48400    275.73711   -1187.0328    140864.08    -43122.89    3786.5852   -46909.475    607.55591   0.97857818 
   48500    274.02606   -1012.2712    140656.06   -43175.909     3763.088   -46938.997    607.23889   0.98002541 
   48600    271.83162   -1039.2907     140586.3   -43249.384    3732.9528   -46982.337    608.29358    0.9805117 
   48700    271.79402   -1020.4104    140838.46   -43215.035    3732.4364   -46947.472     610.1775    0.9787562 
   48800    265.53772   -885.22766    140984.09   -43249.013    3646.5211   -46895.534    611.84576   0.97774519 
   48900    274.29008   -1156.4374    140957.88    -43230.19    3766.7137   -46996.903    612.59798     0.977927 
   49000    273.46341   -869.30826    140799.21   -43215.022    3755.3614   -46970.383    614.04714   0.97902906 
   49100    272.78511   -1276.7173    140658.46   -43241.926    3746.0466   -46987.972    615.21085   0.98000873 
   49200    269.16595   -954.80102    140377.99   -43320.589    3696.3462   -47016.935    616.25728   0.98196676 
   49300     263.9943   -960.79876    139972.54    -43319.16    3625.3259   -46944.486    617.11516   0.98481112 
   49400    272.93553   -1011.6808    140041.86   -43193.496    3748.1122   -46941.608    618.26592   0.98432368 
   49500     275.2077   -925.05818    139909.96    -43184.07     3779.315   -46963.385    619.53518   0.98525161 
   49600    279.63364   -904.76861    140399.49   -43209.916    3840.0947   -47050.011    622.53551   0.98181634 
   49700    271.76971     -1084.28    140705.57    -43208.93    3732.1025   -46941.032      624.923   0.97968058 
   49800      276.527   -1051.6685    140607.89   -43120.105    3797.4325   -46917.537    625.42574   0.98036119 
   49900    273.20705   -863.56037    140463.34   -43186.193    3751.8409   -46938.034    626.21818   0.98137008 
   50000    270.67083   -1178.7092    140641.11   -43247.323    3717.0121   -46964.335    629.07543   0.98012959 
   50100    271.18919   -1034.7208     140696.4   -43241.071    3724.1305   -46965.202    630.88057   0.97974448 
   50200    273.87861   -898.22108    140678.74   -43199.352    3761.0632   -46960.415    631.64251   0.97986744 
   50300    271.88559   -752.60498     140563.4   -43216.711    3733.6938   -46950.405    632.71162   0.98067148 
   50400    276.40195   -1012.8215    140925.97   -43198.239    3795.7151   -46993.954    634.43711   0.97814842 
   50500    270.22043   -1143.1018    140770.52   -43251.282    3710.8269   -46962.109     634.4123    0.9792286 
   50600    277.27639   -1048.0978     140757.8   -43239.925    3807.7235   -47047.649     635.1587   0.97931705 
   50700    269.39883   -980.03254    140722.28   -43248.469    3699.5441   -46948.013    636.86445   0.97956424 
   50800    275.34453    -1005.304    140892.35   -43080.664     3781.194   -46861.858    639.34825   0.97838187 
   50900    278.71653   -1163.9535    140863.39   -43128.594    3827.5004   -46956.094    640.94151   0.97858301 
   51000    279.02894   -1169.7653    140726.84   -43144.711    3831.7905   -46976.502    642.89707   0.97953254 
   51100    273.64436   -1263.5156    140518.87   -43200.097    3757.8463   -46957.943    643.82746   0.98098222 
   51200    276.96718   -1082.6096    140602.74     -43091.9    3803.4772   -46895.377    646.33565   0.98039707 
   51300    270.79206   -886.00234    140710.22   -43028.594    3718.6768   -46747.271    648.86908   0.97964822 
   51400    272.65056    -1206.919    140501.92   -43247.753    3744.1988   -46991.952    650.12825   0.98110062 
   51500     270.5626     -1017.36    140335.04   -43246.064    3715.5258    -46961.59    651.34664   0.98226728 
   51600    269.03218   -882.33976    140524.53   -43259.014    3694.5092   -46953.523    653.66828   0.98094272 
   51700    269.66226   -740.29012    140579.47   -43185.608    3703.1618    -46888.77    655.51553   0.98055934 
   51800    269.43537   -1047.5202    140682.35   -43205.207     3700.046   -46905.253    657.73493   0.97984227 
   51900    268.79195   -1177.2643    140678.11    -43285.97    3691.2101    -46977.18    659.19074    0.9798718 
   52000     271.2565   -1048.4686     140412.7   -43289.213    3725.0547   -47014.267    659.58693   0.98172402 
   52100    271.67187   -942.76876    140410.78   -43243.072    3730.7589   -46973.831    661.01785    0.9817374 
   52200    271.28057   -1077.5653    140463.52   -43292.682    3725.3854   -47018.067    661.51703   0.98136883 
   52300    272.65898   -1081.5025    140460.42   -43174.347    3744.3146   -46918.661    663.66614   0.98139049 
   52400    278.27065   -1012.2561    140586.19   -43094.936    3821.3772   -46916.313    665.00287   0.98051252 
   52500    275.01814   -958.30379    140554.09   -43136.146    3776.7119   -46912.858    666.14379   0.98073645 
   52600    272.55235   -1006.9728    140783.73   -43173.329    3742.8502    -46916.18     668.9513   0.97913672 
   52700    273.61798   -1216.5221    140765.57   -43175.301     3757.484   -46932.785    669.97953   0.97926304 
   52800    268.72531   -1012.4148    140639.94   -43235.583     3690.295   -46925.878    671.21176   0.98013774 
   52900    272.59159   -1041.2012    140603.05   -43302.647    3743.3891   -47046.037    672.36542   0.98039494 
   53000    269.75689   -962.47484    140579.05   -43319.691    3704.4612   -47024.152    673.44123    0.9805623 
   53100    267.90344   -918.31309    140767.02    -43396.77    3679.0086   -47075.779    675.82331   0.97925292 
   53200    272.55605   -1197.6586    141041.24   -43262.634     3742.901   -47005.535    677.85498   0.97734904 
   53300    274.27717   -1010.9025    140933.16   -43257.282    3766.5364   -47023.818    678.57469   0.97809853 
   53400    273.96207   -750.60423    141044.08   -43219.716    3762.2093   -46981.925    681.06392   0.97732935 
   53500     276.9364   -1105.3956    140992.52   -43167.759    3803.0545   -46970.813    682.37549   0.97768674 
   53600    275.61163   -1070.8073    140920.93   -43195.893     3784.862   -46980.755    683.51235   0.97818341 
   53700    272.81175    -802.5154    140886.65   -43151.275    3746.4124   -46897.687    684.63736   0.97842144 
   53800    271.54811   -972.46243    140927.63   -43250.426    3729.0594   -46979.486    686.03683    0.9781369 
   53900    269.96382    -1055.824    141192.92   -43282.226    3707.3029   -46989.529    687.52147   0.97629907 
   54000    270.82788   -921.63212    141163.33   -43222.294    3719.1688   -46941.463    688.06131    0.9765037 
   54100    273.33267   -1047.9866    140962.36   -43176.623     3753.566   -46930.189    690.18163   0.97789592 
   54200    271.68268   -997.16039    140973.27   -43171.158    3730.9074   -46902.065    692.74256   0.97782027 
   54300    273.05026   -929.19344    141231.53   -43246.156    3749.6878   -46995.844    694.51854   0.97603216 
   54400    275.32681   -1106.3092    141050.61    -43223.09    3780.9508   -47004.041    694.76032   0.97728412 
   54500    269.12187   -1135.4941    140701.58   -43247.271    3695.7408   -46943.012    694.56336   0.97970841 
   54600    275.73473    -1006.373    140840.07   -43229.819    3786.5525   -47016.371    696.56645   0.97874502 
   54700    276.26786   -1023.3636    140822.52   -43231.502    3793.8738   -47025.375    698.21802   0.97886702 
   54800    271.51483   -1035.8797    141076.19   -43232.856    3728.6023   -46961.459    700.13855   0.97710687 
   54900    274.20454   -1084.2247    141192.57   -43182.454    3765.5391   -46947.993    701.71276   0.97630148 
   55000    280.82704   -977.70602     141025.3   -43137.935    3856.4831   -46994.418     703.8037   0.97745949 
   55100    279.30772   -870.75561    141197.36   -43063.252    3835.6189   -46898.871    705.35568   0.97626835 
   55200    269.20103   -1110.3229    141077.74   -43097.417    3696.8279   -46794.245    705.47495   0.97709612 
   55300    279.91593    -992.8145    140999.96   -43068.102    3843.9712   -46912.073    706.77838   0.97763518 
   55400    275.52776     -1034.05    140834.97   -43147.197    3783.7103   -46930.907    708.47269   0.97878043 
   55500    277.03097   -872.33596    140919.84    -43082.81    3804.3532   -46887.163    709.43486     0.978191 
   55600    278.91384   -898.47906    140864.82   -43102.383    3830.2099   -46932.593    711.04797   0.97857306 
   55700    273.17306   -1090.8897    141226.24   -43127.741    3751.3742   -46879.115    714.41895   0.97606873 
   55800    272.30241   -1145.5201     141083.6   -43153.799    3739.4179   -46893.217    714.63903   0.97705559 
   55900    270.70021   -1012.7122    140997.29   -43260.525    3717.4154   -46977.941    715.87331   0.97765369 
   56000    268.68755   -821.82877    140812.09   -43307.364    3689.7765   -46997.141    715.72913   0.97893951 
   56100    270.50746   -780.30394     141024.3    -43283.26    3714.7685   -46998.028    716.85417   0.97746642 
   56200    274.50676   -1094.5937    141216.49   -43276.675    3769.6893   -47046.364    719.11653   0.97613613 
   56300    278.24435   -991.41645    141101.12   -43201.545    3821.0161   -47022.562    720.49647   0.97693426 
   56400    278.89075   -1166.5309    141154.43   -43149.892    3829.8928   -46979.785    721.18196   0.97656526 
   56500    273.06062   -971.46212    140886.83   -43153.861      3749.83   -46903.691    722.29368   0.97842014 
   56600    274.71379   -945.88609    140864.72    -43137.83    3772.5323   -46910.362    723.27704   0.97857372 
   56700    276.41884   -1174.2126    140994.93   -43154.469    3795.9471   -46950.416    726.26554   0.97767001 
   56800    277.08901   -1067.1575    141085.54   -43125.189    3805.1503   -46930.339    727.92746   0.97704211 
   56900    271.55761   -990.69108    140922.09    -43166.72    3729.1898    -46895.91    728.46228   0.97817534 
   57000     268.2191   -955.17384    140709.24   -43233.699    3683.3434   -46917.042    728.89527   0.97965507 
   57100    269.43863   -1041.7432    140825.84   -43290.023    3700.0908   -46990.114     731.3101   0.97884393 
   57200    268.24892   -1245.5795    140904.23   -43333.045     3683.753   -47016.798    733.65672   0.97829934 
   57300    269.89825   -1160.9974    140739.27   -43376.132    3706.4026   -47082.534     734.9851   0.97944604 
   57400     263.4317    -992.3047    140653.23   -43377.701    3617.6001   -46995.301     735.3817   0.98004512 
   57500    272.89955   -958.30952    140862.64    -43280.41    3747.6182   -47028.028     736.8004   0.97858823 
   57600    272.67551   -1083.3361    140792.87   -43387.263    3744.5416   -47131.805    738.04426   0.97907314 
   57700    269.38988   -812.53414    140671.08    -43374.83    3699.4213   -47074.252    738.89274   0.97992077 
   57800    270.58628    -869.0546    140761.35   -43297.906     3715.851   -47013.757    740.02017    0.9792924 
   57900     274.4066   -1103.7884     140547.3   -43260.817    3768.3139   -47029.131    740.77527   0.98078384 
   58000    268.75396   -841.58779    140472.56   -43367.214    3690.6884   -47057.902    742.22665   0.98130563 
   58100    271.44528   -1008.1278    140957.51   -43254.226    3727.6473   -46981.874    745.46341   0.97792954 
   58200    276.05112   -1016.3599    140878.35   -43216.717    3790.8973   -47007.614    746.93487   0.97847909 
   58300    268.57618   -950.67565    140898.11   -43291.287     3688.247   -46979.534    748.69709   0.97834185 
   58400    277.90253   -1185.7761    141059.57   -43208.742    3816.3221   -47025.064    750.02478   0.97722202 
   58500    274.71095     -909.117       141169   -43172.969    3772.4934   -46945.463    751.54688   0.97646451 
   58600    271.71809    -989.6715    141205.43   -43208.346    3731.3936   -46939.739    753.12739   0.97621259 
   58700    272.92656   -1030.9612    141314.28   -43125.875    3747.9891   -46873.864    754.50049   0.97546065 
   58800    276.16135   -1151.1103    141271.75   -43194.736    3792.4112   -46987.147    756.53663   0.97575432 
   58900    275.80481   -870.93873    141112.11   -43106.877    3787.5149   -46894.392    757.02518   0.97685814 
   59000    272.94444   -939.43571    141202.77   -43177.136    3748.2346   -46925.371    758.02374   0.97623096 
   59100    275.09749   -994.04485    141312.64   -43184.526    3777.8015   -46962.327     760.1159   0.97547194 
   59200    274.22066   -1173.1818    141088.67   -43194.069    3765.7605    -46959.83    761.23594   0.97702043 
   59300    271.82398   -1125.1873    140876.44   -43244.106    3732.8478   -46976.954    761.09184   0.97849234 
   59400    273.61702   -1130.6747    140800.09   -43176.579    3757.4708   -46934.049    761.51977   0.97902295 
   59500    271.60391   -1132.3665    140810.82   -43231.958    3729.8257   -46961.784    763.23176   0.97894832 
   59600    269.08964   -847.15254    140833.08   -43154.213    3695.2983   -46849.512    764.93227    0.9787936 
   59700    274.29649   -995.69797    141017.91   -43114.175    3766.8017   -46880.976    766.74251   0.97751069 
   59800    276.02675   -988.41284    141388.78   -43030.698    3790.5627    -46821.26    768.56259   0.97494666 
   59900    268.01294   -831.62079    141252.56   -43184.405    3680.5124   -46864.917    769.92719   0.97588688 
   60000    274.20523   -1021.4956    141188.06   -43137.003    3765.5485   -46902.551    771.95883   0.97633267 
   60100    275.51104   -1059.1114    140956.45   -43101.465    3783.4807   -46884.945    773.23998   0.97793689 
   60200    272.38223   -946.11733    140601.08    -43189.44     3740.514   -46929.954    773.11824   0.98040869 
   60300    272.55876   -1076.4784    140490.51   -43195.413    3742.9382   -46938.351    773.56821    0.9811803 
   60400    272.27517   -951.56967    140751.75   -43140.316    3739.0438    -46879.36    775.68246   0.97935914 
   60500    271.97699   -1086.1745    140938.52   -43229.999     3734.949   -46964.948    778.40573   0.97806136 
   60600    270.37993   -1027.9327    140837.08   -43219.685    3713.0173   -46932.703    779.11131    0.9787658 
   60700    271.90639   -989.07617    140905.69   -43166.875    3733.9794   -46900.855    780.13539   0.97828924 
   60800    271.21108   -1111.6204    141064.28   -43164.647     3724.431   -46889.078    781.53063   0.97718935 
   60900    279.92499   -1043.4799    140941.17   -43153.531    3844.0957   -46997.626    782.64999   0.97804296 
   61000    278.51989   -1055.5405    140913.46    -43108.14    3824.7999    -46932.94    783.91722   0.97823527 
   61100    276.05683   -1109.3534    140754.68   -43062.657    3790.9758   -46853.632     784.1335   0.97933876 
   61200    274.43729   -1082.6633    140665.56    -43105.25    3768.7353   -46873.985    783.76863   0.97995927 
   61300    270.36442    -1084.923    140608.59   -43134.896    3712.8043     -46847.7    785.16529   0.98035629 
   61400    278.37747   -794.94431     140598.4    -42981.75    3822.8443   -46804.594    786.52033   0.98042732 
   61500     277.7202   -1162.4416    140417.78   -43042.924    3813.8182   -46856.743    788.01619   0.98168845 
   61600    275.97232   -890.20571    140325.08   -43097.649    3789.8153   -46887.464     788.9022   0.98233698 
   61700    272.97661   -1012.2704     140414.3    -43103.05    3748.6764   -46851.726    790.03429   0.98171279 
   61800    276.61737   -844.46693     140694.5   -43089.595    3798.6735   -46888.268     792.3806   0.97975765 
   61900    277.22441   -895.99211    140361.12   -43047.234    3807.0097   -46854.243    792.55621   0.98208478 
   62000    278.27307   -821.02573    140742.89   -43115.709    3821.4106    -46937.12    796.41153   0.97942079 
   62100    271.55392    -1200.135    140704.11   -43160.939    3729.1391   -46890.078    797.38512   0.97969074 
   62200    271.89313   -836.00545    141037.22   -43092.766    3733.7974   -46826.564    798.86368   0.97737687 
   62300     276.1656   -970.38607     140870.5   -43133.902    3792.4695   -46926.371    799.38937   0.97853356 
   62400    271.58543   -955.51123    140750.61   -43194.315    3729.5718   -46923.887    799.75345    0.9793671 
   62500    267.60358   -745.00821     140697.1   -43216.471    3674.8908   -46891.362    799.68681   0.97973957 
   62600    275.48434   -1168.1783    140647.32   -43121.993     3783.114   -46905.107    802.07034   0.98008637 
   62700    272.77893   -899.11472    140569.12   -43138.938    3745.9617     -46884.9     804.4806   0.98063157 
   62800    268.55863   -966.28145    140480.19   -43195.323    3688.0061   -46883.329    805.75187   0.98125237 
   62900    274.38174   -895.49789    140238.16   -43090.375    3767.9725   -46858.348    807.19858   0.98294582 
   63000    274.38094    -772.4291    140380.79   -43146.449    3767.9615    -46914.41    809.67513   0.98194713 
   63100    272.14386   -1059.8287    140345.58   -43158.123    3737.2406   -46895.363    810.79566   0.98219352 
   63200    271.00687   -855.68638    140493.55   -43174.918    3721.6267   -46896.545    813.30981   0.98115905 
   63300    270.70966    -885.8721    140530.16   -43204.394    3717.5452   -46921.939    814.21099   0.98090346 
   63400    272.06554   -817.67027    140685.71   -43232.505    3736.1651    -46968.67    816.51024   0.97981888 
   63500    273.75253    -908.4894     140859.6   -43209.964    3759.3318   -46969.296    819.09355   0.97860933 
   63600    277.71825    -1085.837    140773.67   -43115.566    3813.7915   -46929.357    819.06867   0.97920665 
   63700    275.42266   -742.39147     140664.1   -43183.973    3782.2669    -46966.24    820.62026   0.97996939 
   63800    273.63694   -988.92369    140492.78   -43256.594    3757.7444   -47014.339    820.76761   0.98116442 
   63900    277.15803   -1110.7844     140581.2   -43149.834    3806.0981   -46955.932    822.72678   0.98054734 
   64000    264.91377   -773.34409    140408.04   -43244.136    3637.9526   -46882.089    823.15012   0.98175654 
   64100    270.63427   -1048.8306    140330.83   -43328.651      3716.51   -47045.161    823.22314   0.98229672 
   64200    273.48429   -1186.4327    140379.03   -43294.929    3755.6482   -47050.577    824.71791   0.98195946 
   64300    273.91063   -1000.4628    140412.19   -43351.785    3761.5029   -47113.288    826.14707   0.98172756 
   64400    266.12103      -929.35    140392.29   -43319.476    3654.5314   -46974.008    826.57851   0.98186674 
   64500    268.01642   -1106.7301    140422.84   -43390.619    3680.5602   -47071.179    828.53685   0.98165312 
   64600    271.68211    -951.7046    140540.84    -43263.89    3730.8995    -46994.79    830.12603   0.98082891 
   64700     273.5213   -1092.8898    140721.62   -43176.449    3756.1564   -46932.606    831.28368   0.97956887 
   64800    278.60365   -939.51045    140713.48    -43128.76    3825.9502   -46954.711    832.73656    0.9796255 
   64900    278.08187   -885.24369    140921.29   -43101.392    3818.7848   -46920.177    835.21008    0.9781809 
   65000    275.62253   -1041.6506    140893.92   -43165.367    3785.0118   -46950.379    836.07634   0.97837097 
   65100    271.67066   -1109.2361     140828.5   -43208.582    3730.7423   -46939.325    837.26432   0.97882543 
   65200    268.02989   -877.50074    140606.39   -43236.534    3680.7451   -46917.279      837.868   0.98037163 
   65300    271.16615   -1003.6853    140770.41   -43244.856     3723.814    -46968.67    838.83476   0.97922937 
   65400    270.21028   -982.37979    140746.48   -43248.375    3710.6874   -46959.063    840.52292   0.97939584 
   65500    279.86859   -886.94077    141186.28   -43207.028    3843.3211   -47050.349    844.14633   0.97634502 
   65600    275.04753   -889.91508    141208.09    -43157.11    3777.1155   -46934.225     845.4954   0.97619421 
   65700    275.40973   -1038.8944    141214.48   -43111.082    3782.0894   -46893.172    845.21107   0.97615005 
   65800    272.15019   -893.43268    140958.93   -43187.943    3737.3275    -46925.27    845.25761   0.97791969 
   65900      275.942   -961.47243    141051.22   -43169.478    3789.3989   -46958.877    847.53106   0.97727985 
   66000    276.07731   -1073.9858    141137.29   -43103.915     3791.257   -46895.172    849.59165   0.97668386 
   66100    275.06917   -1056.2915    140809.43   -43131.186    3777.4127   -46908.599    849.57812   0.97895799 
   66200    278.66534   -700.80543    140844.85   -43066.072    3826.7974   -46892.869    851.54035   0.97871181 
   66300    271.87079   -965.00724     141009.2   -43107.768    3733.4906   -46841.258    853.26965   0.97757109 
[...]
   84600    272.12179    -1129.091    140777.04   -43234.428    3736.9374   -46971.365    1074.9927   0.97918325 
   84700    268.10265   -1010.9837    140606.73   -43291.019    3681.7442   -46972.763    1075.8006   0.98036929 
   84800     279.0262   -1125.4981    140501.33     -43212.7    3831.7529   -47044.453    1075.3025   0.98110474 
   84900    269.18708   -921.97243    140630.79   -43164.108    3696.6363   -46860.744    1078.3971   0.98020153 
   85000     276.6559   -1040.7333    140883.52   -43195.264    3799.2025   -46994.466     1081.433   0.97844315 
   85100    272.61646   -903.35152     140874.5   -43222.566    3743.7306   -46966.296     1082.093   0.97850584 
   85200    273.31127   -1063.0986    140945.28   -43239.393    3753.2721   -46992.665    1082.2754   0.97801441 
   85300     275.0946   -1000.6572    140744.63   -43154.418    3777.7618    -46932.18    1081.3996   0.97940869 
   85400    274.83177   -1105.1334    140767.55   -43183.238    3774.1526   -46957.391    1082.6369   0.97924927 
   85500     275.7719   -1081.4317    140977.38   -43191.796     3787.063   -46978.859    1085.8598   0.97779174 
   85600    274.75893   -987.28232    141020.91   -43111.137    3773.1523   -46884.289    1087.2482   0.97748988 
   85700    272.24294   -848.36484    140937.46   -43167.824    3738.6013   -46906.425    1088.6051   0.97806869 
   85800     270.0997   -972.57538    140858.72   -43166.282     3709.169   -46875.451    1089.6845   0.97861544 
   85900    270.84068   -1092.0997    140797.76   -43190.282    3719.3445   -46909.626    1091.1066   0.97903917 
   86000    272.15778   -1122.4872    140896.48   -43182.027    3737.4318   -46919.458    1093.5431   0.97835319 
   86100    275.88133   -715.22106    140814.22   -43242.455    3788.5657   -47031.021    1093.8566   0.97892472 
   86200    271.78467   -906.04115       140909   -43229.092    3732.3079     -46961.4    1096.8012   0.97826621 
   86300    279.37532   -1070.4596    140880.93   -43242.177    3836.5473   -47078.725    1097.1418   0.97846116 
   86400    275.08902   -990.85237    140838.24   -43212.367    3777.6852   -46990.052    1098.1575   0.97875776 
   86500    270.76136   -1097.9913    140813.84   -43224.606    3718.2553   -46942.862    1100.0753   0.97892733 
   86600    272.88423   -964.34103    140736.81   -43173.883    3747.4078   -46921.291    1101.7128   0.97946312 
   86700    275.22961   -921.65991    140721.53   -43195.622     3779.616   -46975.238    1103.9367   0.97956948 
   86800    276.96902   -902.09761    140706.56   -43159.056    3803.5025   -46962.559    1106.0639   0.97967374 
   86900    273.38557   -1027.9087    140661.88   -43147.241    3754.2924   -46901.533    1107.7675   0.97998487 
   87000    274.26602   -955.44299    140420.94   -43180.402    3766.3834   -46946.785    1108.3503   0.98166641 
   87100    269.33508   -1190.0562     140429.2   -43244.791    3698.6688   -46943.459    1109.5433   0.98160865 
   87200    267.05838   -983.40087    140425.05   -43247.018    3667.4037   -46914.421    1112.3783   0.98163769 
   87300     275.8651   -917.50287    140536.02   -43125.899    3788.3428   -46914.241    1114.3205   0.98086252 
   87400    273.46319   -774.71557    140475.99   -43114.117    3755.3584   -46869.476    1116.0992   0.98128172 
   87500    270.42917   -938.21392    140679.56   -43222.072    3713.6935   -46935.765    1118.0467   0.97986174 
   87600    276.26675   -1169.3996       140513    -43166.74    3793.8586   -46960.599    1119.1977   0.98102325 
   87700    271.64112   -1057.0033    140608.69   -43200.081    3730.3367   -46930.417    1121.6283   0.98035563 
   87800    276.50891   -958.97489    140427.59   -43160.695     3797.184   -46957.879    1123.5963   0.98161987 
   87900    274.79536   -1028.1564    140572.32   -43129.461    3773.6526   -46903.113    1125.4719   0.98060922 
   88000    274.34101   -1076.5095    140703.03   -43101.019    3767.4131   -46868.432    1126.8427   0.97969826 
   88100    275.29374   -1164.6881    140436.51   -43161.771    3780.4966   -46942.268    1126.0304   0.98155755 
   88200    280.98551   -1024.6874    140454.59   -43121.539    3858.6593   -46980.198    1125.8704   0.98143119 
   88300    273.97922   -969.55279    140678.19    -43153.02    3762.4449   -46915.465    1128.0867   0.97987128 
   88400    274.70039   -941.33801    140867.54    -43131.31    3772.3484   -46903.659    1130.3096   0.97855414 
   88500    268.10626   -895.95563    140958.92   -43180.352    3681.7938   -46862.146    1133.8658    0.9779198 
   88600    270.35569   -1184.2284    140982.82   -43225.142    3712.6844   -46937.826    1135.6222     0.977754 
   88700    273.27694    -894.2883    140948.37   -43203.457    3752.8006   -46956.257      1135.73   0.97799295 
   88800    277.69764   -1204.0826    140967.11   -43193.848    3813.5084   -47007.357    1137.6253   0.97786298 
   88900    269.93071   -1156.7536    140971.56   -43265.216    3706.8483   -46972.064    1138.7755    0.9778321 
   89000    271.44263   -1175.0377    140978.56    -43192.03    3727.6109   -46919.641    1141.7615   0.97778358 
   89100    277.13559   -849.12508    140514.38   -43170.401      3805.79   -46976.191     1141.386   0.98101357 
   89200      273.738   -1086.6839    140574.13   -43232.892    3759.1322   -46992.024    1143.6851   0.98059659 
   89300     272.8467   -1059.9258    140500.96   -43234.276    3746.8924   -46981.169    1143.5054   0.98110726 
   89400    276.04013   -998.16839    140570.92   -43182.216    3790.7465   -46972.962    1145.6007   0.98061898 
   89500    274.43921   -981.06656    140280.21   -43247.918    3768.7616    -47016.68    1144.8958   0.98265123 
   89600    270.85252   -1035.2211    140363.35   -43216.808    3719.5071   -46936.315    1146.0624   0.98206913 
   89700    275.19681   -951.72449    140500.54   -43190.263    3779.1655   -46969.428    1148.6636   0.98111019 
   89800    270.11714   -989.71896    140523.41   -43219.148    3709.4084   -46928.557    1150.3713   0.98095057 
   89900    276.21919   -1154.4596    140530.54   -43172.366    3793.2055   -46965.571    1150.9348   0.98090077 
   90000    270.65987   -767.31283    140513.24   -43266.156    3716.8615   -46983.018    1152.6327   0.98102158 
   90100    274.87258   -978.33329    140655.48   -43204.671     3774.713   -46979.384    1155.6918   0.98002949 
   90200    269.48237   -1100.9999    140822.47   -43260.035    3700.6914   -46960.727    1157.9199   0.97886731 
   90300    274.94092   -1010.7961    140796.91   -43318.681    3775.6515   -47094.333    1159.1749   0.97904507 
   90400    270.80401   -1016.1566    140557.31   -43265.041    3718.8409   -46983.882    1157.3493   0.98071398 
   90500    277.13653   -874.82617    140852.18   -43169.353    3805.8028   -46975.156    1160.7275   0.97866087 
   90600    274.25095    -930.4173    140907.56   -43157.702    3766.1763   -46923.878    1162.0749    0.9782762 
   90700    275.25537    -1056.628    140722.69   -43189.803    3779.9697   -46969.772    1163.0446   0.97956141 
   90800    283.61231   -885.82361    141001.65   -43159.433    3894.7321   -47054.165    1164.5652   0.97762345 
   90900    271.04911   -957.96145    141113.61   -43225.835    3722.2069   -46948.041    1165.4377   0.97684778 
   91000    273.86988   -1027.7383    140916.73   -43224.049    3760.9432   -46984.992    1164.4136   0.97821254 
   91100    272.80603    -889.8934    140745.09   -43194.916    3746.3339    -46941.25    1164.1761   0.97940549 
   91200    276.42348   -764.28252    141121.97   -43185.557    3796.0108   -46981.568    1166.7323   0.97678994 
   91300    272.03832   -1001.2979    141295.92   -43191.302    3735.7912   -46927.093    1168.5951   0.97558736 
   91400    271.32923   -920.59754     140961.8   -43259.809    3726.0536   -46985.862    1167.4462   0.97789977 
   91500    270.79604   -902.41051    140927.11   -43246.646    3718.7315   -46965.378    1167.2336   0.97814055 
   91600    270.30559   -1139.0462    140952.74   -43235.603    3711.9963   -46947.599    1170.4435   0.97796266 
   91700    275.94105   -1032.4045    140898.86    -43243.69    3789.3858   -47033.075    1172.4326   0.97833663 
   91800    270.26263   -1349.1024     140953.6   -43312.948    3711.4064   -47024.355    1174.1064   0.97795669 
   91900    271.99392   -919.73042    140784.14   -43304.704    3735.1815   -47039.886    1174.1464   0.97913385 
   92000    269.85337   -830.33871    140539.17   -43275.061    3705.7862   -46980.847    1173.3132   0.98084056 
   92100    277.35451    -1094.837     140517.4   -43225.039    3808.7963   -47033.835    1173.3056   0.98099252 
   92200    275.48058   -947.61322    140993.96   -43098.262    3783.0624   -46881.324    1178.4051   0.97767676 
   92300    273.87652   -867.95761     140915.7   -43131.161    3761.0345   -46892.195    1178.8868   0.97821971 
   92400    274.52531   -941.84117     140713.3   -43183.474    3769.9441   -46953.418    1179.3275   0.97962678 
   92500    275.84082   -1180.8437    140627.42   -43158.901    3788.0095    -46946.91    1181.1338   0.98022502 
   92600    275.81432   -1149.4872    140938.76    -43158.66    3787.6454   -46946.305    1182.7515   0.97805964 
   92700    272.01188   -781.24867    141005.67   -43188.718    3735.4281   -46924.147    1185.5025   0.97759555 
   92800    276.89128   -1039.9361    141225.69   -43198.806    3802.4349   -47001.241    1186.0844    0.9760725 
   92900    272.33762   -1018.8576    141218.34   -43202.997    3739.9014   -46942.899    1186.7359   0.97612331 
   93000    275.52586   -1296.5797    141071.59   -43122.648    3783.6842   -46906.332    1187.5739   0.97713878 
   93100    278.69271   -1033.0153    140827.85   -43137.381    3827.1732   -46964.554    1187.3563   0.97882992 
   93200    275.61393   -988.32165    140812.16    -43151.37    3784.8936   -46936.264    1189.0541   0.97893899 
   93300    276.67825   -1209.4422    140758.76   -43059.887    3799.5095   -46859.397      1188.39   0.97931036 
   93400    273.30589   -979.97349    140641.35   -43134.925    3753.1982   -46888.123      1188.74   0.98012793 
   93500    277.03145   -1045.8352    140431.24   -43145.319    3804.3599   -46949.679    1188.3891   0.98159437 
   93600    268.55379   -1021.6936    140388.83   -43210.457    3687.9396   -46898.396    1189.8873    0.9818909 
   93700    272.97794   -1194.2469     140157.8   -43185.841    3748.6947   -46934.535    1189.7009   0.98350942 
   93800    278.23264   -788.36773    140408.37   -43122.735    3820.8553   -46943.591     1193.451   0.98175424 
   93900    271.66508   -1061.6077    140514.73   -43174.701    3730.6657   -46905.366    1194.4014   0.98101114 
   94000    268.75953    -983.6474    140641.92   -43216.404     3690.765   -46907.169    1196.6394   0.98012395 
   94100    272.91719   -917.44369    140691.37   -43281.583    3747.8604   -47029.444    1198.0195    0.9797795 
   94200    270.08752   -979.38377    140806.23     -43306.2    3709.0016   -47015.202    1199.5891   0.97898024 
   94300    270.60276   -780.32772    140866.35   -43228.544    3716.0772   -46944.621    1200.7414    0.9785624 
   94400    270.59804   -1106.6829    140896.41   -43239.776    3716.0124   -46955.788    1202.0454   0.97835362 
   94500    272.21517   -858.55332    140529.23   -43267.185    3738.2198   -47005.405    1200.3983   0.98090991 
   94600    270.29125   -924.99518    140717.29   -43335.941    3711.7994   -47047.741    1203.5012     0.979599 
   94700    272.74074   -895.98138    140952.25   -43296.188    3745.4373   -47041.625    1205.9005   0.97796608 
   94800    273.64215   -847.29745    141062.36   -43204.006     3757.816   -46961.822     1207.604   0.97720271 
   94900    276.71264   -1026.8541    140929.95   -43179.412    3799.9817   -46979.394      1208.27   0.97812081 
   95000    277.45972   -1164.2639    140983.07     -43176.1    3810.2412   -46986.341    1210.4722   0.97775227 
   95100    276.27078   -1161.6312     140766.4   -43179.248    3793.9139   -46973.162    1209.3994   0.97925724 
   95200    273.16052     -1077.57    140536.36   -43216.684    3751.2019   -46967.886    1209.2343   0.98086016 
   95300    278.92792   -1064.7214    140384.48    -43172.22    3830.4033   -47002.623    1208.7982   0.98192134 
   95400     275.4342   -926.34607    140445.84   -43227.431    3782.4255   -47009.857     1210.389   0.98149236 
   95500    269.38567   -810.89634    140505.09    -43240.83    3699.3635   -46940.193    1212.5392   0.98107845 
   95600    271.90014   -960.10776    140608.86   -43240.802    3733.8937   -46974.696    1214.3038   0.98035438 
   95700    276.26971   -1147.9165    140904.01   -43208.153    3793.8991   -47002.052    1216.6089   0.97830088 
   95800    275.93464   -1051.3425    141138.72   -43182.651    3789.2978   -46971.949    1219.9515   0.97667397 
   95900    274.43091   -1253.9533    141108.35   -43206.045    3768.6477   -46974.692    1221.1579    0.9768842 
   96000    277.41837   -891.26235     140954.4   -43143.211    3809.6733   -46952.884    1221.6924   0.97795116 
   96100    270.84735   -1057.2847    140965.37   -43157.243    3719.4362   -46876.679    1222.1218   0.97787505 
   96200    274.29256    -992.4839    140888.52   -43151.525    3766.7478   -46918.273    1223.3222   0.97840842 
   96300    274.34609   -1075.4411    140797.51   -43141.711     3767.483   -46909.194    1224.4712   0.97904088 
   96400    274.78771   -889.43646     140841.8   -43164.269    3773.5474   -46937.816    1225.5216   0.97873302 
   96500    272.52931   -932.07999    140505.26   -43139.075    3742.5338   -46881.609    1225.5477   0.98107729 
   96600     279.3723   -1096.1913    140716.48   -43148.331    3836.5058   -46984.837    1228.4834   0.97960465 
   96700    278.93951   -1035.7314    140741.76   -43177.474    3830.5625   -47008.036    1230.0915   0.97942866 
   96800    276.18876   -960.83003    140667.94   -43099.768    3792.7875   -46892.555    1231.4421   0.97994265 
   96900    277.30832    -1033.436    140854.11   -43115.096    3808.1621   -46923.258    1234.4454   0.97864747 
   97000    273.35963    -1032.742    140967.73   -43120.862    3753.9362   -46874.798    1237.1575   0.97785866 
   97100    271.49352   -1014.1504    140719.19   -43162.372    3728.3098   -46890.681    1236.4127   0.97958579 
   97200    274.61227   -1000.4373    140684.82   -43151.221    3771.1383   -46922.359    1238.8102   0.97982509 
   97300    273.19163   -1219.9201    140789.77   -43183.531    3751.6292    -46935.16     1241.417   0.97909471 
   97400    277.10806   -800.49796    140954.98   -43171.756    3805.4119   -46977.168    1245.6045    0.9779471 
   97500    275.77996   -1089.8688    141004.66   -43145.599    3787.1737   -46932.773    1247.4757   0.97760256 
   97600    275.41176   -989.11269    140856.42   -43182.649    3782.1173   -46964.766     1248.417   0.97863138 
   97700    273.87258   -1131.2336     140495.3   -43287.764    3760.9803   -47048.744     1248.345   0.98114684 
   97800    268.65387   -878.75953    140327.57   -43286.769    3689.3139   -46976.083    1248.5747   0.98231956 
   97900    273.21349   -1040.2432     140398.8   -43219.387    3751.9294   -46971.316    1251.1128   0.98182116 
   98000    276.05315   -823.60359    140429.31   -43132.764    3790.9253   -46923.689    1253.5495   0.98160791 
   98100     273.4229   -997.51269    140578.44   -43170.933    3754.8051   -46925.738    1256.0798   0.98056659 
   98200    274.56814   -999.08633    140665.64   -43130.275    3770.5322   -46900.807    1258.8464   0.97995868 
   98300    276.71386   -1284.5655    140477.37   -43070.579    3799.9985   -46870.578    1259.1623   0.98127203 
   98400    277.50035   -851.52288     140360.2   -43018.387     3810.799   -46829.186    1260.9136   0.98209122 
   98500    277.38744   -1185.5942    140226.76   -43129.086    3809.2485   -46938.334    1261.8397   0.98302575 
   98600    279.65531   -959.83214    140506.05   -43092.004    3840.3923   -46932.397    1264.6091   0.98107176 
   98700    272.00693   -993.62871    140527.95   -43181.215    3735.3602   -46916.575    1265.3173   0.98091889 
   98800    277.82734   -885.07408    140413.23   -43157.822    3815.2894   -46973.112    1264.3409   0.98172029 
   98900    273.99448   -1053.7375    140380.15   -43174.011    3762.6544   -46936.665      1266.62    0.9819516 
   99000    274.26948   -999.81811    140456.92   -43131.551    3766.4308   -46897.982    1268.0569   0.98141492 
   99100    275.86716   -1072.5793    140513.06   -43164.943    3788.3712   -46953.314    1270.5659    0.9810228 
   99200    275.05724    -1061.053    140573.01    -43147.42    3777.2488   -46924.668    1272.0952   0.98060441 
   99300    272.16858     -947.085    140784.09   -43122.567    3737.5801   -46860.147    1274.1784   0.97913417 
   99400    271.54781   -1077.3218    140871.31   -43108.212    3729.0553   -46837.267    1275.6536   0.97852794 
   99500     274.0717   -931.77407    140810.46   -43118.217    3763.7148   -46881.932    1278.0866   0.97895082 
   99600    272.23168    -974.0359    140947.75   -43170.143    3738.4466    -46908.59    1280.0967   0.97799725 
   99700    280.22817   -1130.7221    140682.02   -43141.138    3848.2591   -46989.397    1280.1467   0.97984457 
   99800    273.80366   -1092.6634    140484.75   -43225.409    3760.0339   -46985.443    1279.7625   0.98122048 
   99900     276.4569   -1104.1571    140575.79   -43202.656    3796.4698   -46999.126    1280.6417   0.98058504 
  100000    271.31533   -945.84739    140678.86   -43122.507    3725.8627   -46848.369    1282.9206   0.97986657 
  100100    272.88624   -1119.9679    140412.36   -43182.596    3747.4354   -46930.031    1282.3737   0.98172637 
  100200    271.43004   -891.47282    140219.58   -43134.931    3727.4379   -46862.369    1281.4694   0.98307607 
  100300    273.97534   -987.60947     140284.3   -43089.309    3762.3915   -46851.701    1283.1403   0.98262258 
  100400    272.19599   -1151.9835    140565.62   -43124.666    3737.9565   -46862.622    1285.6116   0.98065601 
  100500    276.30977   -961.24117    140627.69   -43154.299    3794.4493   -46948.748    1286.7057   0.98022316 
  100600    269.33972   -1173.2598    140459.51   -43177.146    3698.7325   -46875.879    1286.5958   0.98139684 
  100697    272.00282   -938.80983    140498.67   -43104.241    3735.3038   -46839.545    1289.2387   0.98112331 
Loop time of 176.198 on 6 procs for 100000 steps with 4608 atoms

Performance: 245.179 ns/day, 0.098 hours/ns, 567.545 timesteps/s
99.3% CPU use with 6 MPI tasks x no OpenMP threads

MPI task timing breakdown:
Section |  min time  |  avg time  |  max time  |%varavg| %total
---------------------------------------------------------------
Pair    | 154.97     | 156.12     | 159.87     |  13.7 | 88.60
Neigh   | 7.4768     | 7.5786     | 7.7646     |   3.6 |  4.30
Comm    | 6.0635     | 9.7498     | 11.025     |  54.3 |  5.53
Output  | 0.17567    | 0.17649    | 0.17999    |   0.4 |  0.10
Modify  | 1.8534     | 1.9347     | 2.0319     |   4.1 |  1.10
Other   |            | 0.64       |            |       |  0.36

Nlocal:        768.000 ave         778 max         759 min
Histogram: 2 0 0 0 1 0 2 0 0 1
Nghost:        1655.17 ave        1685 max        1632 min
Histogram: 1 0 1 1 1 1 0 0 0 1
Neighs:        0.00000 ave           0 max           0 min
Histogram: 6 0 0 0 0 0 0 0 0 0
FullNghs:      25344.3 ave       25847 max       25026 min
Histogram: 2 1 0 0 0 2 0 0 0 1

Total # of neighbors = 152066
Ave neighs/atom = 33.000434
Neighbor list builds = 7067
Dangerous builds = 0

undump              1
unfix               2
unfix               3
unfix               4


################################################
#######         Run Simulation         #########
################################################

reset_timestep      0
log                 log.run_${NAME}
log                 log.run_liq_274K_-1000atm_mW
