
# Define the lattice
#
variable	    lattice_constant equal 6.36339
lattice		    diamond ${lattice_constant}
lattice		    diamond 6.36339
Lattice spacing in x,y,z = 6.3633900 6.3633900 6.3633900

# Define region
# multiples of lattice spacing
#
region 		    simbox block 0 9 0 8 0 8

# Create Atoms
#
create_box          1 simbox
Created orthogonal box = (0.0000000 0.0000000 0.0000000) to (57.270510 50.907120 50.907120)
  3 by 1 by 2 MPI processor grid
create_atoms        1 box
Created 4608 atoms
  create_atoms CPU = 0.000 seconds
mass                1 18.015

# Define potential
#
pair_style          sw
pair_coeff          * * /data/emrosky-sim/Freezing_Simulations/Melting/mW_fancy/mW.sw mW
Reading sw potential file /data/emrosky-sim/Freezing_Simulations/Melting/mW_fancy/mW.sw with DATE: 2019-02-27

# Add velocity/set timestep
#
velocity            all create ${TEMP} 120598 rot yes dist gaussian
velocity            all create 274 120598 rot yes dist gaussian
timestep            5.0

# Define output
#
compute	            1 all msd
thermo              100
thermo_style        custom step temp press vol etotal ke pe c_1[4]

# Neighbor lists
#
neigh_modify        delay 0 every 1 check yes

# Set fixes
#
fix                 1 all momentum 10 linear 1 1 1 rescale
fix                 2 all nve
fix                 3 all temp/csvr ${TEMP} ${TEMP} 500.0 928347
fix                 3 all temp/csvr 274 ${TEMP} 500.0 928347
fix                 3 all temp/csvr 274 274 500.0 928347
fix                 4 all press/berendsen iso ${PRES} ${PRES} 1000.0 modulus 20000
fix                 4 all press/berendsen iso -1000 ${PRES} 1000.0 modulus 20000
fix                 4 all press/berendsen iso -1000 -1000 1000.0 modulus 20000

# Run 0.5 ns equilibration
#
dump		    1 all custom 1000 eq.${NAME}.dump id type x y z vx vy vz
dump		    1 all custom 1000 eq.ice_274K_-1000atm_mW.dump id type x y z vx vy vz
run                 100000
Neighbor list info ...
  update every 1 steps, delay 0 steps, check yes
  max neighbors/atom: 2000, page size: 100000
  master list distance cutoff = 6.3065
  ghost atom cutoff = 6.3065
  binsize = 3.15325, bins = 19 17 17
  1 neighbor lists, perpetual/occasional/extra = 1 0 0
  (1) pair sw, perpetual
      attributes: full, newton on
      pair build: full/bin/atomonly
      stencil: full/bin/3d
      bin: standard
Per MPI rank memory allocation (min/avg/max) = 4.778 | 4.778 | 4.778 Mbytes
Step Temp Press Volume TotEng KinEng PotEng c_1[4] 
       0          274   -4574.7557    148418.52   -52790.792    3762.7302   -56553.522            0 
     100     216.6892   -1512.3131    142554.92   -51591.695    2975.7044   -54567.399   0.21061369 
     200    213.07207   -1004.0005     142071.8   -50708.134    2926.0318   -53634.166   0.27516165 
     300    226.28122   -967.34612    142242.04   -50136.872    3107.4276     -53244.3   0.28946576 
     400    245.53274   -1009.7246    142440.14   -49746.034    3371.8009   -53117.835   0.26347434 
     500    262.09233   -1021.5877    142586.89   -49468.496     3599.207   -53067.703   0.27251356 
     600    262.95537   -958.71853    142704.81   -49206.408    3611.0588   -52817.466   0.29682638 
     700    272.16552   -948.89245     142742.5   -49134.966    3737.5381   -52872.504   0.24895446 
     800    268.91809   -993.41341    142787.04   -49050.268    3692.9424    -52743.21   0.27815204 
     900    269.47289   -1006.0846    142852.93   -49039.528    3700.5612   -52740.089   0.27271944 
    1000    276.41439   -995.65313     142807.3   -49081.757     3795.886   -52877.643   0.26377315 
    1100    276.94972   -984.64515    142848.82   -49022.158    3803.2374   -52825.395   0.25430387 
    1200    282.28611   -978.55168    142834.37   -49021.895      3876.52   -52898.415    0.2646241 
    1300    278.52355   -1012.8092    142858.41   -48933.012    3824.8502   -52757.862   0.28560055 
    1400    272.18111   -989.50464     142864.5   -49027.543    3737.7521   -52765.295   0.25163107 
    1500    270.98932   -1028.9339     142823.9    -49061.17    3721.3858   -52782.555    0.2713993 
    1600    274.13165   -985.66695    142822.33   -48998.823    3764.5381   -52763.362   0.28216782 
    1700    271.45563   -1021.7452    142792.87   -49017.566    3727.7894   -52745.355   0.26610919 
    1800     270.9929   -984.77252    142782.97   -49015.839    3721.4348   -52737.274   0.26130207 
    1900    276.80268   -985.46931    142813.17   -48926.498    3801.2183   -52727.716   0.27658855 
    2000    277.65465   -977.07017    142853.02   -48877.314    3812.9181   -52690.232   0.28500989 
    2100    272.41799   -1014.8461    142822.93   -49041.286    3741.0051   -52782.291   0.25244287 
    2200    270.66599   -981.04868     142827.8   -48978.283    3716.9456   -52695.229    0.2742268 
    2300    278.49894   -966.83091    142846.32    -48906.54    3824.5123   -52731.053   0.28401933 
    2400    277.87819   -995.64183    142819.56   -48933.205    3815.9878   -52749.193   0.25829621 
    2500     273.9928   -1036.9539     142833.1   -48978.125    3762.6314   -52740.756   0.26585388 
    2600    274.66768   -982.00394    142829.02   -49011.454    3771.8991   -52783.353   0.28566782 
    2700    279.70646   -997.83872    142831.47   -48988.874    3841.0947   -52829.969    0.2657064 
    2800    281.56959   -961.51986    142861.99   -48897.346    3866.6802   -52764.026   0.24934628 
    2900    278.29932   -1006.5507    142883.92   -48914.385     3821.771   -52736.156   0.29138742 
    3000    276.46311   -1026.4821     142860.6   -48968.335    3796.5551    -52764.89   0.27607893 
    3100    278.78042   -1002.9788    142873.11   -48946.107    3828.3777   -52774.484   0.24948591 
    3200     270.3102   -1034.5576    142842.42   -49047.576    3712.0596   -52759.635   0.27902789 
    3300    270.57198   -1018.7079    142769.52   -49110.211    3715.6546   -52825.865   0.28173146 
    3400    279.05652   -989.16025     142774.5   -49044.698    3832.1693   -52876.867   0.25214322 
    3500    275.97478   -998.33656    142761.09   -49003.862    3789.8491   -52793.711   0.27060033 
    3600    273.33604   -991.87136    142834.84   -49012.651    3753.6123   -52766.263   0.28970084 
    3700    272.46842   -980.28005       142835    -48973.14    3741.6976   -52714.837   0.27004345 
    3800    272.65374   -1023.1314    142850.99   -48959.579    3744.2426   -52703.822   0.26355735 
    3900     275.5006   -1021.0912    142844.21   -48960.973    3783.3374    -52744.31   0.28775579 
    4000    269.52157   -1000.4398    142817.22   -49002.923    3701.2298   -52704.153   0.28057301 
    4100    268.13504   -1021.9562    142837.89   -49025.421    3682.1891    -52707.61   0.26380607 
    4200    274.77564   -963.24427    142837.25    -48980.08    3773.3818   -52753.462   0.26705865 
    4300    269.49405   -1006.8417     142833.3   -49107.702    3700.8518   -52808.553   0.28180489 
    4400    272.77681   -1038.9268    142813.77   -49002.237    3745.9326    -52748.17   0.27683384 
    4500    273.26534   -1039.1168    142819.25   -49056.917    3752.6413   -52809.559   0.25924375 
    4600    277.77503   -984.76371    142800.98   -49090.906    3814.5711   -52905.477    0.2840402 
    4700    279.25738     -993.409    142835.36   -48992.899    3834.9276   -52827.827    0.2731702 
    4800    276.32898   -1001.7748    142834.31   -48905.061    3794.7131   -52699.774   0.25683178 
    4900    279.37005   -973.09513    142819.39   -48868.535    3836.4748    -52705.01   0.28482577 
    5000    271.77876   -1019.9417    142815.95    -48992.92    3732.2268   -52725.147   0.28916169 
    5100    278.44026   -1023.0142     142773.8   -48921.552    3823.7064   -52745.258   0.25425716 
    5200    275.50819   -1005.0046    142770.39   -48988.557    3783.4415   -52771.998   0.27321114 
    5300    269.15736   -1002.0972    142743.96    -49092.49    3696.2282   -52788.718   0.30231901 
    5400    274.33666   -981.98617    142727.57   -49059.715    3767.3534   -52827.069   0.25818011 
    5500     268.6241   -995.23865    142746.68   -49030.184    3688.9052   -52719.089   0.26754391 
    5600    272.92531   -978.63014    142706.02   -49059.283    3747.9719   -52807.255   0.29032459 
    5700     267.7774   -1012.0388    142744.11   -49055.136    3677.2778   -52732.414   0.28030921 
    5800    279.51585   -974.81667    142777.68    -48998.72    3838.4771   -52837.197   0.25447245 
    5900    268.85532   -988.74855    142807.48   -49077.229    3692.0804   -52769.309   0.27906443 
    6000    270.45337   -982.66737    142808.87   -49059.246    3714.0258   -52773.271   0.27723972 
    6100    269.28255   -993.51773     142796.1   -49132.502    3697.9473   -52830.449   0.25459458 
    6200    270.88668   -1001.5441    142771.72   -49113.273    3719.9763   -52833.249   0.27721622 
    6300    272.57894   -1020.2101    142792.79   -48999.927    3743.2153   -52743.142   0.28810378 
    6400    274.26265   -999.68814    142803.43   -49048.494    3766.3371   -52814.831   0.26226627 
    6500    276.08378   -993.25855    142778.42   -49065.508    3791.3459   -52856.854    0.2667377 
    6600    268.95342   -1019.0312     142773.6   -49071.465    3693.4275   -52764.893    0.2773782 
    6700    269.19685   -1007.0239    142758.27   -49119.538    3696.7705   -52816.308   0.28327413 
    6800    275.75928   -987.13463    142749.28   -49078.039    3786.8896   -52864.929   0.25774903 
    6900    271.62149   -996.99299    142774.39   -49004.179    3730.0671   -52734.246   0.28392196 
    7000    270.77314   -1009.7713    142773.17   -49000.796     3718.417   -52719.213   0.29140073 
    7100    279.06867   -982.47188    142757.33   -49005.002    3832.3362   -52837.338   0.26017108 
    7200    271.50516   -1028.0745    142734.98   -49115.215    3728.4695   -52843.685   0.28109991 
    7300    272.97899   -989.29175    142713.68    -49162.39    3748.7091   -52911.099    0.2806388 
    7400    277.00806   -941.72632    142755.97   -49058.646    3804.0387   -52862.685   0.27706494 
    7500    277.92262   -968.86413    142770.47   -48991.654    3816.5979   -52808.252   0.25963041 
    7600    279.01825   -980.15761    142771.91   -48971.034    3831.6438   -52802.678   0.28299425 
    7700    272.56364   -1008.0789    142773.14   -49058.859    3743.0052   -52801.864    0.2844093 
    7800    269.97047   -1020.1307     142765.9   -49113.858    3707.3944   -52821.252    0.2540605 
    7900    271.89609   -967.91976    142741.73   -49058.008    3733.8381   -52791.846   0.28389375 
    8000    274.51344    -1005.279    142782.62   -48962.593     3769.781   -52732.374    0.2856599 
    8100    275.63569    -975.9011    142798.88   -48927.178    3785.1924   -52712.371   0.27317023 
    8200    280.60199    -967.7526    142799.17   -48950.693    3853.3926   -52804.085   0.26316936 
    8300    275.64381   -1002.5595    142830.26   -48916.933    3785.3039   -52702.237   0.28908412 
    8400    276.38903   -1021.4356    142830.68   -48892.713    3795.5378   -52688.251   0.28698732 
    8500    276.99104   -1015.4272    142802.88   -48970.778    3803.8049   -52774.583   0.25309171 
    8600    273.79197   -1052.8877    142789.16   -48990.974    3759.8734   -52750.847   0.29920722 
    8700    275.16746    -958.7503    142810.92   -48962.655    3778.7624   -52741.418   0.27562042 
    8800    282.19383   -1011.3115    142801.25   -48996.917    3875.2528    -52872.17   0.25884269 
    8900    275.57074   -1006.5316    142769.34   -49055.004    3784.3005   -52839.305   0.28125844 
    9000    272.55023   -1002.6141    142783.75   -48986.729    3742.8211    -52729.55   0.28809648 
    9100    271.64787   -1021.9812    142768.09   -49038.349    3730.4293   -52768.778   0.27967698 
    9200    277.56202   -991.39958    142778.32   -48936.987    3811.6459   -52748.633   0.26084219 
    9300    273.15079   -1006.1048    142778.48   -49081.449    3751.0683   -52832.517   0.28975532 
    9400    274.10374   -997.48097    142757.76   -49042.131    3764.1548   -52806.286   0.27334194 
    9500    272.36568   -997.69214    142764.04   -49084.512    3740.2867   -52824.799   0.26295133 
    9600    270.48166   -986.19378    142752.16   -49075.417    3714.4142   -52789.831   0.27776368 
    9700    271.65734   -975.48251    142816.01   -48962.301    3730.5594    -52692.86   0.27907778 
    9800    279.40955   -986.07045    142854.68   -48918.936    3837.0173   -52755.954   0.26255238 
    9900    280.59311   -1024.5184    142824.98   -48939.603    3853.2707   -52792.874   0.26288885 
   10000    273.33224   -1067.5169    142818.88   -48995.496    3753.5602   -52749.056   0.29568566 
   10100    277.70996    -976.3405    142840.38   -48944.481    3813.6776   -52758.159   0.26817987 
   10200    275.27458   -1018.7576    142855.35   -48921.505    3780.2335   -52701.739   0.25951332 
   10300    274.48323   -1002.1906    142857.96   -48917.061    3769.3662   -52686.427    0.2842876 
   10400    278.24845   -1023.8874    142878.03   -48927.771    3821.0724   -52748.844   0.27718319 
   10500    272.94134   -1018.5499    142827.78    -48975.13    3748.1921   -52723.322   0.25542889 
   10600    274.99336   -947.73135     142798.5   -48993.321    3776.3715   -52769.692   0.27194324 
   10700    268.16588   -981.83781    142782.26   -49015.851    3682.6125   -52698.463   0.29078587 
   10800    267.60432   -1020.8825    142748.22   -49143.923    3674.9009   -52818.824   0.25958192 
   10900    268.76713   -1061.6638     142741.1   -49134.481    3690.8693    -52825.35   0.26207742 
   11000    266.01765   -1016.1527    142737.15   -49140.908    3653.1118    -52794.02    0.2971692 
   11100    272.04337   -999.12358    142790.38   -49055.292    3735.8606   -52791.152   0.25979784 
   11200    270.20656   -1049.8725    142762.83   -49155.286    3710.6364   -52865.922   0.26028214 
   11300    272.74134   -998.89444    142746.12   -49071.059    3745.4456   -52816.505   0.28655567 
   11400     274.2231   -1012.1964    142743.82   -49051.119    3765.7939   -52816.913   0.27392511 
   11500    274.28112   -991.61189    142764.47   -48957.665    3766.5907   -52724.256    0.2662051 
   11600    274.55947   -1006.4579    142811.05   -48957.673    3770.4131   -52728.086   0.27470766 
   11700     279.7016   -978.05043    142831.66   -48830.881    3841.0279   -52671.909   0.29354273 
   11800     275.9486   -997.89574    142806.19   -48895.606    3789.4895   -52685.095   0.26413737 
   11900    277.71889   -1016.5292     142804.8   -48947.412    3813.8002   -52761.212   0.26974208 
   12000    277.33787   -998.65726    142795.31    -48907.78    3808.5678   -52716.348   0.28533045 
   12100    275.34497   -1008.0307    142783.97   -48959.014    3781.2001   -52740.215   0.27343753 
   12200    273.60614   -1024.0924       142782   -48963.418    3757.3215   -52720.739    0.2710124 
   12300    273.33057   -1007.8709    142768.52   -49018.764    3753.5371   -52772.301   0.26944159 
   12400    275.31101    -998.8124    142737.14   -49009.048    3780.7338   -52789.781   0.29275019 
   12500     273.1545    -999.3783    142751.93   -48943.269    3751.1192   -52694.388   0.26952063 
   12600    274.21839   -1015.5722     142768.7   -48907.121    3765.7293    -52672.85   0.27881215 
   12700    271.59627   -1021.4822    142769.99   -48980.176    3729.7207   -52709.897   0.30668965 
   12800     278.4731   -1006.6978    142758.02   -48969.207    3824.1575   -52793.365   0.27175669 
   12900    277.38865   -998.36444    142746.21   -49024.135    3809.2651     -52833.4   0.26452438 
   13000    276.10937   -1010.3505    142707.36    -48995.48    3791.6972   -52787.177     0.285952 
   13100     274.2417   -1029.6001    142689.51   -49067.331    3766.0493   -52833.381    0.2950139 
   13200    271.72418   -979.13313    142688.05   -49095.559    3731.4773   -52827.036   0.26076934 
   13300    267.04409   -1020.6686    142673.58   -49171.887    3667.2075   -52839.094   0.28443808 
   13400    268.54265   -956.52968    142655.58   -49154.368    3687.7867   -52842.155   0.29801592 
   13500    268.37752   -989.97346    142680.79   -49069.594     3685.519   -52755.113   0.26808686 
   13600    273.89596   -979.85934    142711.02   -49022.822    3761.3015   -52784.123   0.27959771 
   13700    272.36136   -967.21235    142707.24   -49049.868    3740.2274   -52790.096   0.29287633 
   13800     274.9302   -998.34257    142717.82   -49002.557    3775.5042   -52778.062   0.28444224 
   13900    280.50024   -957.79431    142722.18   -48998.465    3851.9954    -52850.46   0.25516832 
   14000    276.46197   -973.08582     142759.8   -48896.995    3796.5394   -52693.535   0.29670258 
   14100    275.41953   -995.79736    142745.11    -48974.98    3782.2241   -52757.204   0.28915856 
   14200    272.99842   -1018.5654    142767.17   -48985.536    3748.9758   -52734.512   0.26536182 
   14300    275.59535   -982.82109    142769.62   -49017.715    3784.6384   -52802.353   0.28415618 
   14400    271.44615   -1008.5676    142723.08   -49067.534    3727.6592   -52795.193   0.28667527 
   14500    275.03486   -987.58306    142723.46   -49089.666    3776.9415   -52866.607   0.27727099 
   14600    273.83633   -959.04668    142730.07   -49042.829    3760.4826   -52803.312   0.27169756 
   14700    273.33517   -1010.4663    142737.27   -48994.718    3753.6003   -52748.318   0.28957661 
   14800    273.16075    -992.6708    142746.16   -48970.752    3751.2051   -52721.957   0.28310554 
   14900    273.29917   -1020.7258    142744.55   -48981.289    3753.1059   -52734.395   0.27760817 
   15000    272.76919    -1010.812    142728.07   -49043.874    3745.8279   -52789.702   0.28667037 
   15100    272.26964   -967.93274    142732.81   -49057.121    3738.9679   -52796.088    0.2916431 
   15200    275.19093   -975.19125    142752.86   -48987.944    3779.0847   -52767.029   0.27016874 
   15300    272.09898   -1014.7436    142742.16   -49065.689    3736.6243   -52802.313   0.27091071 
   15400    273.62313   -1006.2623    142759.05   -49072.837    3757.5548   -52830.392   0.28754778 
   15500     271.0377   -1005.8146    142739.02   -49007.224    3722.0501   -52729.274   0.28695105 
   15600    274.01589   -997.42268    142761.38   -48889.146    3762.9483   -52652.094   0.26298837 
   15700    276.08641   -1002.3093    142770.06   -48899.937     3791.382   -52691.319   0.29717118 
   15800    279.43703   -1027.8555    142797.25   -48905.155    3837.3946   -52742.549   0.29514712 
   15900    275.95548   -1005.4682     142808.8   -48926.245     3789.584   -52715.829   0.25592392 
   16000    275.69016   -994.12053    142805.73   -48969.503    3785.9404   -52755.443   0.28144651 
   16100    278.16528   -1002.5375    142759.03   -49003.068    3819.9302   -52822.998   0.28764313 
   16200     265.8384   -1006.7226    142753.28   -49011.848    3650.6503   -52662.499   0.26875043 
   16300     269.0353     -1007.36     142749.5   -49030.979     3694.552   -52725.531    0.2758765 
   16400    271.99186   -1045.3438    142751.78   -49042.604    3735.1532   -52777.757   0.29475252 
   16500    272.30229   -1036.0973    142772.09   -48962.787    3739.4163   -52702.203   0.27914648 
   16600    278.41852   -966.54949    142786.02   -48887.786    3823.4078   -52711.194   0.26983659 
   16700    274.10451   -1000.7079    142758.73    -48923.73    3764.1653   -52687.895   0.29636389 
   16800    274.51369    -980.7648    142755.04   -48981.705    3769.7845   -52751.489   0.27786502 
   16900    272.83408   -1009.2661    142766.08   -49008.968    3746.7191   -52755.687   0.27128113 
   17000    277.00829   -968.23605    142751.98   -49052.527    3804.0418   -52856.569   0.27229551 
   17100    271.74013   -1003.3376    142802.93   -49006.275    3731.6963   -52737.971   0.28398245 
   17200    269.90819   -1014.3613    142775.28   -49060.597     3706.539   -52767.136   0.27664033 
   17300    267.72948   -1034.9708     142761.7   -49155.674    3676.6197   -52832.293   0.27004209 
   17400    266.45498   -1010.7291    142718.01    -49143.53    3659.1175   -52802.647    0.2953855 
   17500    273.86139   -1002.1394    142727.54   -49046.474    3760.8267   -52807.301   0.28271969 
   17600    274.38806   -969.47393    142748.67   -49057.398    3768.0593   -52825.458   0.27082865 
   17700    271.50123   -1014.0951    142729.84   -49113.715    3728.4156   -52842.131   0.27591799 
   17800    275.48592   -994.27617    142724.91   -49065.591    3783.1357   -52848.726   0.29088271 
   17900    273.74745   -973.09635    142731.58   -49006.485     3759.262   -52765.747   0.27041938 
   18000    272.59347   -972.10662       142726   -48922.587    3743.4149   -52666.002   0.27606659 
   18100    277.79774   -1007.5945    142755.38   -48928.339     3814.883   -52743.222   0.30466688 
   18200    273.67151   -1060.7622    142741.89   -48974.986    3758.2192   -52733.206   0.27838256 
   18300    274.04419   -1021.5341    142736.67   -48979.245     3763.337   -52742.582   0.27898158 
   18400    273.95537   -996.69437    142718.62   -49065.652    3762.1172    -52827.77   0.28499237 
   18500    266.81655   -978.96913    142715.63   -49004.798    3664.0828    -52668.88   0.29364615 
   18600    273.38995   -991.71574    142732.41   -48961.575    3754.3527   -52715.928   0.27140704 
   18700     274.7221   -1013.7307    142746.82   -48981.607    3772.6465   -52754.254   0.27940717 
   18800    272.22004   -995.45932    142725.96   -48995.898    3738.2868   -52734.184   0.30180929 
   18900    273.48717   -1030.3985    142769.49   -48954.966    3755.6877   -52710.654   0.26869838 
   19000    267.97756   -998.45639    142770.75   -48987.127    3680.0264   -52667.153   0.28362871 
   19100    275.27078   -995.65383    142811.42   -48903.884    3780.1813   -52684.065   0.28762498 
   19200    278.47591   -979.50739    142837.04   -48937.725    3824.1961   -52761.921   0.26729414 
   19300    279.63251   -973.57787    142834.95   -48830.512    3840.0792   -52670.591   0.26844621 
   19400    273.84991   -1027.7051    142806.83   -48889.043     3760.669   -52649.712   0.28985001 
   19500     273.9888   -1023.9497    142818.06   -48886.506    3762.5764   -52649.083   0.28834695 
   19600     279.4352   -1013.3009    142828.24   -48882.567    3837.3696   -52719.937   0.26446603 
   19700    277.36622   -1028.5136    142836.46   -48937.087    3808.9571   -52746.045   0.28417288 
   19800    279.73269   -978.31492    142835.46   -48889.034    3841.4548   -52730.489   0.28186057 
   19900    276.62792   -1028.5857    142797.98   -48967.384    3798.8183   -52766.202   0.26782016 
   20000    269.12231   -1017.0362     142783.4   -48989.817    3695.7468   -52685.564   0.27965101 
   20100    270.60797   -995.33086     142764.5   -49040.114    3716.1488   -52756.263   0.27943417 
   20200    274.96438   -986.05865    142753.74   -49016.216    3775.9736   -52792.189   0.27596981 
   20300    271.59132   -1020.0709    142766.02     -48980.3    3729.6528   -52709.953    0.2766738 
   20400    277.42282    -998.4079    142751.76   -49035.631    3809.7343   -52845.366   0.27718773 
   20500     266.3261   -1017.6413    142755.56   -49074.868    3657.3477   -52732.216   0.29191807 
   20600    271.13834   -987.68006     142758.9   -49097.359    3723.4321   -52820.791    0.2752339 
   20700    272.37703   -1007.5149    142764.67   -49041.826    3740.4425   -52782.268   0.27055486 
   20800    276.81194   -967.00868    142800.67   -48914.206    3801.3455   -52715.551   0.28790133 
   20900    276.62136   -1014.8673    142803.35   -49015.564    3798.7283   -52814.293   0.28468321 
   21000    274.37241   -1023.4015    142787.83   -49024.688    3767.8443   -52792.533   0.26183761 
   21100    273.40419   -1009.8387    142825.06   -48915.306    3754.5481   -52669.854    0.2815852 
   21200    276.35112   -989.41611    142827.82   -48929.856    3795.0171   -52724.873   0.29432456 
   21300    276.68095     -989.505    142839.85   -48922.792    3799.5466   -52722.339   0.25634583 
   21400    275.15045   -994.05858    142819.18   -48958.912    3778.5288   -52737.441   0.28026444 
   21500    283.67363   -978.47199    142841.78   -48869.915    3895.5742   -52765.489   0.28915219 
   21600    280.68889   -1027.8746    142839.51   -48873.958     3854.586   -52728.544   0.26457124 
   21700    276.79129   -1014.5662    142773.88   -48997.766    3801.0618   -52798.828   0.27056734 
   21800    272.96685   -1005.3243    142781.64   -49034.318    3748.5424   -52782.861   0.29221325 
   21900      274.086   -1017.0466    142766.91   -49010.075    3763.9112   -52773.986   0.27718568 
   22000    274.30999    -991.2681    142761.85   -49043.357    3766.9872   -52810.344   0.25928444 
   22100    275.50514   -992.22405    142751.36   -49075.729    3783.3996   -52859.128   0.29260444 
   22200    270.06854   -1029.1906     142726.7   -49151.967     3708.741   -52860.708   0.28036359 
   22300    276.47829   -962.41478    142764.43   -49052.749    3796.7636   -52849.512   0.26491346 
   22400    274.58878   -1003.9885    142800.83   -49000.021    3770.8156   -52770.837   0.28291464 
   22500    275.25053   -988.25275    142793.81   -48951.269    3779.9032   -52731.172   0.27161359 
   22600    275.08104    -1021.264    142770.94   -48990.859    3777.5757   -52768.435   0.27607601 
   22700    275.57991   -1011.5551    142764.64   -49051.469    3784.4265   -52835.895   0.27271799 
   22800    277.25108   -984.59634    142797.28   -48977.762     3807.376   -52785.138   0.27790391 
   22900    272.90739   -1000.0168    142788.56   -49008.408    3747.7258   -52756.134   0.27667494 
   23000     271.6605   -1019.6834     142746.6   -49081.487    3730.6028    -52812.09   0.27513482 
   23100    273.25315   -998.20175     142749.6    -49026.69     3752.474   -52779.164   0.27826261 
   23200    278.27795   -980.00505    142768.82   -48970.973    3821.4775   -52792.451   0.27866907 
   23300    274.43216   -983.76992    142774.36   -48964.968    3768.6649   -52733.633   0.28129124 
   23400    273.30253   -1039.9768    142789.47   -49020.017    3753.1522   -52773.169   0.26594255 
   23500    279.22294   -943.83008     142785.5   -48901.012    3834.4547   -52735.467   0.28351517 
   23600    273.12483   -1038.6659    142839.04   -48925.774    3750.7118   -52676.486   0.29020299 
   23700    278.17186   -1005.5802    142805.55    -48916.87    3820.0207   -52736.891    0.2626433 
   23800    277.45532   -958.60153     142802.6   -48923.221    3810.1807   -52733.402   0.28233158 
   23900    275.82875   -992.27326    142773.62   -49008.881    3787.8436   -52796.725    0.2870563 
   24000    274.11053   -995.02615    142771.69   -48955.801    3764.2481   -52720.049   0.26341479 
   24100    276.69008   -990.08096    142807.44   -48892.415    3799.6719   -52692.087   0.27620542 
   24200    276.45014   -993.14761    142793.86   -49013.349    3796.3769   -52809.726   0.29180483 
   24300    273.27881   -974.85379    142748.14   -49050.453    3752.8263    -52803.28   0.26313614 
   24400    270.17099   -1019.2469    142718.79   -49078.313    3710.1479   -52788.461   0.27136196 
   24500    271.31117   -1004.3059    142724.94   -49033.776    3725.8055   -52759.582   0.29684137 
   24600    268.08746   -971.21778    142741.65   -49079.788    3681.5357   -52761.324   0.26454136 
   24700     271.3096   -963.87042    142721.22   -49078.916     3725.784     -52804.7   0.27258495 
   24800    272.16041   -986.69974     142752.7   -49020.123    3737.4678   -52757.591   0.28727825 
   24900     275.3545   -1012.7385     142758.4   -49077.845     3781.331   -52859.176   0.27463182 
   25000    271.45712   -1006.1817    142755.56    -49065.24    3727.8099   -52793.049   0.27022026 
   25100    273.86798   -983.63123    142756.48   -49111.354    3760.9172   -52872.271   0.27623659 
   25200    267.13271    -987.9147     142721.7   -49237.878    3668.4245   -52906.303   0.27919565 
   25300    271.99375   -992.28837    142713.19   -49083.165    3735.1792   -52818.344   0.26728644 
   25400    269.90129   -1014.4216    142744.07   -49128.546    3706.4443   -52834.991   0.27959004 
   25500    271.29395   -994.61017    142749.16    -49013.86    3725.5691   -52739.429   0.27667279 
   25600    275.63053   -1000.4727    142795.58   -48939.986    3785.1215   -52725.107   0.27064573 
   25700    275.39307   -1008.9764    142775.34   -49025.105    3781.8607   -52806.965   0.28029868 
   25800    277.32501   -976.66763    142807.87    -48892.48    3808.3911   -52700.871   0.27065982 
   25900    275.25067   -1067.8684    142848.15   -48918.858    3779.9051   -52698.764   0.28936688 
   26000    275.23121   -1007.9734    142807.11   -48956.031    3779.6379   -52735.669   0.26943476 
   26100    276.58118   -987.08902    142822.96    -48947.61    3798.1764   -52745.786    0.2770036 
   26200    274.56036   -1046.4195    142787.01   -49043.153    3770.4254   -52813.579   0.28328792 
   26300     272.9088   -1004.6417    142767.19   -49005.892    3747.7452   -52753.637   0.27752492 
   26400    273.47132    -985.0468    142733.11   -49058.174    3755.4701   -52813.644   0.26950208 
   26500    273.69681     -965.249     142761.5   -48972.134    3758.5665     -52730.7   0.28082058 
   26600    279.52329     -973.536    142822.44   -48930.308    3838.5792   -52768.887   0.28780125 
   26700     272.1968   -990.40217    142821.19   -48923.393    3737.9675    -52661.36   0.26066121 
   26800    273.86499   -997.64172     142822.5   -48979.741    3760.8761   -52740.617   0.27898304 
   26900    277.12346   -969.77856    142842.18   -48921.376    3805.6233   -52726.999    0.2899537 
   27000    271.59522   -1017.2855    142840.29   -48950.832    3729.7063   -52680.539   0.26707666 
   27100    279.26528   -972.82713    142853.34   -48902.328    3835.0361   -52737.364   0.26661244 
   27200    273.08828    -1038.458    142812.95   -48963.946    3750.2098   -52714.156   0.29456305 
   27300    277.45901   -972.00799    142837.58   -48805.668    3810.2313   -52615.899   0.27479995 
   27400    277.56915   -1027.5774    142860.22    -48924.41    3811.7439   -52736.154   0.26443728 
   27500    270.43673   -1003.2393    142837.12   -49030.425    3713.7973   -52744.223   0.28842912 
   27600    270.06295    -1002.037    142805.99   -49075.178    3708.6643   -52783.842    0.2730655 
   27700    275.46259   -1004.5041    142798.85    -48976.81    3782.8153   -52759.625   0.26739186 
   27800     276.8532    -965.5935    142816.97     -48952.1     3801.912   -52754.012   0.28454359 
   27900    278.08577   -999.51862    142815.14   -49013.689    3818.8383   -52832.527   0.27405376 
   28000    270.53759   -987.29862    142800.19   -49084.434    3715.1823   -52799.616   0.26242717 
   28100    272.54995    -994.0925    142776.67   -49057.393    3742.8172    -52800.21   0.27865718 
   28200    272.43989   -1025.2787    142786.13   -49032.714    3741.3058   -52774.019   0.28051308 
   28300    268.32702   -1045.8856    142777.62   -49047.074    3684.8255   -52731.899   0.27937951 
   28400    272.85712   -1019.3566    142790.47   -48984.639    3747.0355   -52731.674   0.26895663 
   28500    274.31086   -971.08394    142764.12   -49010.181     3766.999    -52777.18   0.28285995 
   28600    276.55589   -947.81558    142776.05   -49020.536    3797.8292   -52818.365   0.27543326 
   28700     275.4004   -986.89838    142771.66   -49020.467    3781.9613   -52802.428   0.27213899 
   28800    275.72187   -989.63426    142755.68   -49061.346    3786.3759   -52847.722   0.27405431 
   28900    273.68074   -982.21717    142775.81   -49034.072     3758.346   -52792.418   0.27124841 
   29000    273.80007   -1017.6522     142761.9   -48977.228    3759.9846   -52737.213   0.28844333 
   29100    278.46048   -990.69608    142792.04   -48977.756    3823.9842    -52801.74   0.26292592 
   29200    280.38765   -978.83549    142818.95   -48911.145    3850.4492   -52761.594   0.28569972 
   29300    278.90984   -974.93385    142793.43   -48908.447    3830.1551   -52738.602    0.2847946 
   29400    275.34503   -1013.1732    142793.75   -48924.757    3781.2009   -52705.958   0.26490085 
   29500     276.1703   -1032.8961    142749.96   -48963.748     3792.534   -52756.282    0.2953361 
   29600    279.60298   -995.11243    142749.34   -48936.197    3839.6736   -52775.871   0.28217755 
   29700    276.33437   -1008.8304    142744.41   -49007.344    3794.7871   -52802.131   0.27396332 
   29800    266.70722   -992.70261    142719.19   -49093.963    3662.5814   -52756.545   0.27329701 
   29900    270.10742   -1007.6305    142708.59   -49076.729    3709.2749   -52786.004   0.29041533 
   30000    270.94916   -1013.9203    142703.06   -49036.645    3720.8343    -52757.48   0.27845088 
   30100    270.73384   -1033.6603    142711.85   -49012.468    3717.8774   -52730.345   0.27172863 
   30200    271.93115   -996.90638     142720.6   -49021.709    3734.3195   -52756.028     0.294993 
   30300    277.15621   -952.95684    142765.12   -49013.963    3806.0731   -52820.036   0.26868526 
   30400    273.35947   -1008.2551    142755.75   -49049.169    3753.9341   -52803.103   0.27446366 
   30500    269.96051    -1034.393    142718.92   -49142.165    3707.2575   -52849.423   0.28152868 
   30600    271.76095   -963.32924    142743.48   -49029.293    3731.9822   -52761.276   0.28035385 
   30700    274.41212   -999.06846    142734.38   -49052.912    3768.3896   -52821.302   0.27347353 
   30800    274.19257   -974.36899    142738.07   -48986.077    3765.3747   -52751.452   0.28558189 
   30900    273.77134    -1042.168    142771.27   -48965.992    3759.5901   -52725.582   0.28915421 
   31000    271.94042   -1006.3807    142758.97   -48992.329    3734.4468   -52726.776    0.2796688 
   31100    272.95183    -1010.894    142727.52   -48995.278    3748.3361   -52743.614   0.28467672 
   31200     274.9876   -1021.3443    142727.45   -48948.827    3776.2925   -52725.119   0.28080189 
   31300    279.19605   -986.08164    142777.72   -48882.485    3834.0854    -52716.57   0.29109543 
   31400    277.26533   -1022.4196    142751.29   -48989.603    3807.5716   -52797.174   0.26942375 
   31500    275.69798   -1017.0434    142761.27   -48952.063    3786.0478   -52738.111   0.27937558 
   31600    276.64321   -1002.7216    142757.21   -48972.362    3799.0284    -52771.39   0.28323676 
   31700    272.39031   -1020.3204    142765.96   -48950.206     3740.625   -52690.831   0.27589377 
   31800    270.53015    -987.5477    142767.07   -49007.696    3715.0802   -52722.776   0.27750681 
   31900    275.73033   -1008.8944    142758.35    -49004.71    3786.4921   -52791.202   0.27835309 
   32000    271.06988   -1023.0477    142746.14   -48961.278    3722.4921   -52683.771   0.28886531 
   32100    278.75872    -977.8684    142765.68   -48988.464    3828.0798   -52816.544   0.26244522 
   32200    267.97904   -989.75629    142728.91   -49110.484    3680.0468   -52790.531   0.27270226 
   32300    271.11066   -1019.9419    142709.82   -49054.532     3723.052   -52777.584   0.29184482 
   32400    266.13221   -1004.1423    142712.92   -49146.473     3654.685   -52801.158   0.26169678 
   32500    268.34283   -984.61867    142729.68   -49010.467    3685.0426   -52695.509   0.28321991 
   32600    272.30016   -993.74521    142761.18   -48966.675     3739.387   -52706.062    0.2944812 
   32700    274.19477   -990.90933    142759.14   -49060.542    3765.4049   -52825.947   0.26241791 
   32800    276.09387   -981.34025    142759.57   -48922.387    3791.4845   -52713.872   0.26930301 
   32900     270.3648   -1043.1691    142760.68   -48990.526    3712.8095   -52703.335   0.29020432 
   33000    271.97532   -1054.3548     142770.4   -48983.684    3734.9261    -52718.61   0.28574526 
   33100    276.74976   -998.01837    142764.63   -49007.547    3800.4916   -52808.039   0.26168052 
   33200    272.31238     -992.328    142780.22   -48988.361    3739.5548   -52727.916   0.28477356 
   33300    278.72283   -978.76558    142767.05   -48986.478    3827.5869   -52814.065   0.28749244 
   33400    274.53612   -1024.0791    142752.84   -49011.388    3770.0925    -52781.48   0.25931478 
   33500    273.35064   -1002.1087    142751.94    -49033.33    3753.8127   -52787.143   0.28426555 
   33600    274.55047   -978.66431    142752.44   -49045.449    3770.2896   -52815.739     0.278745 
   33700    270.71525   -995.06934    142772.43   -48953.148    3717.6221    -52670.77   0.27254736 
   33800    280.01199   -1026.1261    142817.14   -48851.786    3845.2904   -52697.077   0.28229279 
   33900    277.63037   -1022.7519    142833.68   -48877.686    3812.5846   -52690.271   0.28488338 
   34000    269.80522   -1003.4056    142769.45   -49011.262     3705.125   -52716.387   0.27864013 
   34100    273.59359   -983.06409    142772.96   -49030.049    3757.1491   -52787.199   0.26745792 
   34200    273.99302   -1035.8212    142798.97   -49034.356    3762.6343   -52796.991   0.28201547 
   34300    272.87416   -996.65615    142783.27   -49068.443    3747.2694   -52815.712   0.27186117 
   34400    273.46861   -977.43069    142799.86   -48998.704    3755.4328   -52754.137   0.27580949 
   34500    274.88208   -997.83372    142789.79   -48922.258    3774.8435   -52697.101   0.27365681 
   34600    278.55751   -1017.7797    142855.71   -48921.543    3825.3166   -52746.859   0.27575964 
   34700    275.71786   -974.22421    142822.81   -49031.348    3786.3208   -52817.669   0.27647007 
   34800    272.74348   -991.70278    142797.86   -49028.772    3745.4749   -52774.247   0.25574901 
   34900    277.40521   -1000.2372    142775.46   -49012.283    3809.4926   -52821.776   0.28145674 
   35000    275.52479   -971.75559    142794.81   -48987.491    3783.6695   -52771.161   0.28180832 
   35100    272.76266   -997.78812    142817.04   -49004.912    3745.7383    -52750.65   0.27002854 
   35200    277.00008   -991.90713       142843   -48948.383    3803.9291   -52752.312   0.26728538 
   35300    273.93271   -1023.9093    142843.67   -49025.016    3761.8061   -52786.822   0.28798815 
   35400    271.61624   -1006.6881    142817.05   -49022.125    3729.9949    -52752.12   0.26748892 
   35500    273.21228   -992.78047    142811.79   -49010.711    3751.9127   -52762.624   0.25926095 
   35600    274.52685   -1013.1379    142822.28   -48985.088    3769.9652   -52755.054   0.30006264 
   35700    277.24266   -1001.0162    142803.72   -48994.155    3807.2603   -52801.415   0.25982046 
   35800    279.61977   -989.87045    142873.24   -48841.759    3839.9041   -52681.663   0.25814327 
   35900    275.32764   -1033.5068    142861.16   -48949.238    3780.9621     -52730.2   0.28906218 
   36000     276.0607   -1029.1973    142837.74   -49006.275     3791.029   -52797.304   0.27152443 
   36100    273.47415   -1005.4577    142783.18   -49048.643     3755.509   -52804.152   0.26971005 
   36200    269.01454   -1009.6455    142771.19   -49074.798    3694.2669   -52769.065   0.27556679 
   36300    269.16122   -998.64498    142767.26   -49011.924    3696.2812   -52708.206   0.28332236 
   36400    271.83473   -990.71233    142793.45   -49066.386    3732.9954   -52799.382   0.26634654 
   36500    271.36694   -1003.0946    142789.93   -49038.814    3726.5714   -52765.385   0.27091309 
   36600    275.35605   -996.99527    142811.81   -49043.064    3781.3523   -52824.416   0.28121369 
   36700    270.96477   -1029.5762    142823.48    -49085.76    3721.0487   -52806.809   0.26406137 
   36800    264.72413    -1012.227    142798.54    -49150.68    3635.3484   -52786.028   0.27579248 
   36900    269.04182   -1019.5513    142789.93   -49076.991    3694.6416   -52771.633   0.27595556 
   37000    273.02522   -1010.9227    142807.61    -49060.33     3749.344   -52809.674   0.27674487 
   37100    264.41619    -1031.163    142765.49   -49101.855    3631.1196   -52732.975   0.28481024 
   37200    270.16711   -1021.1448    142741.89   -49104.108    3710.0947   -52814.203   0.26495164 
   37300    270.09673   -989.63151    142729.74   -49097.038    3709.1282   -52806.166   0.28303718 
   37400    272.54566   -964.40967    142732.14    -49106.94    3742.7583   -52849.698   0.27789537 
   37500    270.89758   -988.28998    142747.55    -49081.14     3720.126   -52801.266   0.26847548 
   37600    270.08162   -995.09312    142738.69   -49124.998    3708.9207   -52833.919   0.27812929 
   37700    269.32084   -1009.0246    142711.78   -49196.067    3698.4732    -52894.54   0.29501504 
   37800    267.89952   -991.42879     142681.5   -49217.469    3678.9548   -52896.424   0.26647647 
   37900    273.91233   -1001.1723    142724.03    -49132.91    3761.5263   -52894.437   0.27277555 
   38000    272.97277   -1035.5249    142762.31   -49067.635    3748.6237   -52816.259   0.29782384 
   38100    270.28128   -1023.4852    142758.76   -49008.849    3711.6625   -52720.511   0.26633142 
   38200    271.46648   -1008.2458    142782.27   -48977.067    3727.9383   -52705.005   0.27894091 
   38300    271.40082   -1000.7219    142784.37    -49024.36    3727.0367   -52751.397   0.29558412 
   38400    274.12057    -1004.718    142794.36   -48960.795     3764.386   -52725.181   0.27733507 
   38500    276.76079     -1002.26    142746.36   -49004.441     3800.643   -52805.084   0.27151159 
   38600    275.79802   -994.57916    142779.26   -48974.921    3787.4216   -52762.343   0.29664742 
   38700    275.86374   -1015.8861    142804.43   -48947.369    3788.3242   -52735.693   0.28157345 
   38800    276.51031   -1019.4311    142787.43   -48980.881    3797.2033   -52778.084   0.26356363 
   38900    273.24413   -1016.1954    142795.48    -48925.27    3752.3501    -52677.62   0.30195575 
   39000    273.73472   -997.25989    142783.47   -48968.513    3759.0872     -52727.6    0.2798085 
   39100    271.55501   -1004.5544    142800.49    -49003.43    3729.1541   -52732.584   0.26976206 
   39200    266.56937   -1050.1501     142740.3   -49112.249    3660.6884   -52772.937   0.29185357 
   39300    266.52503   -1010.4418    142734.42   -49131.424    3660.0795   -52791.503   0.27577047 
   39400    272.22993    -1003.038    142781.58    -49011.76    3738.4226   -52750.182   0.28210595 
   39500    277.05521   -996.86521    142807.75   -49000.898    3804.6861   -52805.584   0.27380837 
   39600    277.23974   -1014.1204    142793.87    -48996.94    3807.2202   -52804.161   0.27720029 
   39700    275.88146   -1041.8399    142767.46   -48975.219    3788.5675   -52763.787   0.28718642 
   39800    272.43806   -1043.3563    142750.79   -49000.337    3741.2807   -52741.618   0.28396316 
   39900    274.36872   -1022.5102    142715.63   -48957.951    3767.7937   -52725.745   0.28369549 
   40000    275.00834   -971.47935    142733.63   -49026.674    3776.5773   -52803.252   0.28569673 
   40100    271.10066   -1033.5074    142763.54   -49044.939    3722.9147   -52767.854   0.29061716 
   40200    272.53512   -998.15545    142748.15   -49015.076    3742.6135    -52757.69   0.26758585 
   40300    274.88969   -989.46707    142762.75   -49027.494    3774.9479   -52802.442   0.28594886 
   40400    270.88751   -1017.8073    142730.29   -49107.433    3719.9876    -52827.42   0.29369213 
   40500     275.8998   -1002.9969    142757.96   -48974.715    3788.8194   -52763.534   0.26148543 
   40600    274.48725   -1021.8608    142788.77    -49053.98    3769.4214   -52823.401   0.27524453 
   40700    270.38269   -1027.1774    142745.65   -49056.764    3713.0552    -52769.82   0.30037812 
   40800    273.31701   -1010.8441    142737.86   -49030.253     3753.351   -52783.604   0.26836169 
   40900    277.46193   -980.90198    142722.41    -49014.66    3810.2715   -52824.931   0.27278359 
   41000    274.94962   -999.46699    142751.29   -49079.737     3775.771   -52855.508   0.29578919 
   41100    272.36113   -1018.1999    142730.24   -49045.771    3740.2242   -52785.995   0.27462838 
   41200    279.62315   -987.29746    142793.02   -48947.389    3839.9505   -52787.339   0.26108578 
   41300      272.942   -998.35799    142759.85   -49022.662    3748.2011   -52770.864   0.29584626 
   41400     278.5373   -992.19955    142763.18   -48968.334    3825.0391   -52793.373   0.27053889 
   41500     277.8598   -1011.1955    142763.01   -48986.268    3815.7352   -52802.003   0.27726333 
   41600     282.7103   -1002.4062    142769.88   -48991.434    3882.3452   -52873.779   0.29028557 
   41700    268.89751   -1011.6152    142707.03   -49095.664    3692.6598   -52788.324   0.28412528 
   41800    275.31243   -980.39638    142724.84   -49014.169    3780.7532   -52794.922   0.28211227 
   41900    271.56986   -996.23096     142713.9   -49087.887     3729.358   -52817.245   0.27699146 
   42000    273.38485    -1003.318       142711   -49063.867    3754.2826   -52818.149   0.28768142 
   42100    273.59455   -988.25813    142671.82   -49129.164    3757.1623   -52886.326   0.27912274 
   42200    270.25416   -992.71017    142659.87   -49091.762    3711.2901   -52803.052    0.2880118 
   42300     273.9144   -1030.6076    142662.82   -49053.162    3761.5547   -52814.717   0.28547509 
   42400    269.71671   -985.90706    142697.35   -49077.957    3703.9094   -52781.866   0.29382191 
   42500    271.61334   -982.70727    142701.15   -49040.473    3729.9552   -52770.429   0.29311549 
   42600    275.17889   -1014.1789    142710.32   -49076.856    3778.9195   -52855.776   0.26015606 
   42700    268.46493   -1006.6949    142690.85   -49138.505    3686.7194   -52825.224   0.29813899 
   42800    269.80591   -970.47388    142682.89   -49054.266    3705.1344     -52759.4   0.29181506 
   42900    273.60306   -1017.6119    142714.24   -49080.818    3757.2792   -52838.097   0.25978362 
   43000    268.49599   -1016.1492    142693.13     -49094.1    3687.1459   -52781.246   0.29286582 
   43100    274.73428    -1003.876     142720.5   -49020.827    3772.8138    -52793.64   0.28611229 
   43200    271.21674    -1013.383    142701.69   -49027.123    3724.5088   -52751.632   0.27919799 
   43300    277.43155   -969.53864    142706.19   -49023.716    3809.8543   -52833.571   0.28052053 
   43400     271.9445   -992.23708    142727.45   -48959.465    3734.5028   -52693.968   0.30230045 
   43500    275.38572    -965.5802    142768.63   -49010.539    3781.7597   -52792.299    0.2662585 
   43600    269.89342   -987.60236    142763.15   -49051.501    3706.3362   -52757.837   0.27008674 
   43700    269.75247   -1008.8148    142729.43   -49095.347    3704.4005   -52799.748   0.29856834 
   43800    266.53822    -1028.636    142723.16   -49127.967    3660.2606   -52788.228   0.26720347 
   43900    271.75959   -965.09744    142749.22   -49050.795    3731.9635   -52782.759   0.27630003 
   44000    271.27637    -939.9092     142739.3    -49133.11    3725.3276   -52858.438   0.28387615 
   44100    267.79779   -984.65479    142716.25   -49096.596    3677.5577   -52774.154   0.27750119 
   44200    271.99956   -996.48533    142752.16   -49051.723     3735.259   -52786.982   0.27495504 
   44300    276.15854   -985.45796       142765   -49049.438    3792.3725    -52841.81   0.28413952 
   44400    272.39182   -997.67324    142770.18   -49057.691    3740.6457   -52798.337   0.28254082 
   44500    275.68692   -970.98097    142761.24   -49061.916    3785.8959   -52847.812   0.27190538 
   44600    274.35111   -1000.5581    142754.44    -49075.03    3767.5519   -52842.582    0.2832699 
   44700    270.54636   -985.32876    142747.66   -49063.045    3715.3028   -52778.348   0.28031622 
   44800     274.2344   -967.51174    142740.44   -49023.842    3765.9491   -52789.791   0.28325629 
   44900    277.07811   -990.61903    142752.25     -49008.5    3805.0006   -52813.501   0.28391176 
   45000    267.60805   -1008.7404    142781.29    -49052.84    3674.9521   -52727.793   0.28176844 
   45100    275.36528   -1015.3933    142787.94   -48944.114     3781.479   -52725.593   0.29158531 
   45200     272.4597    -995.4902    142778.16   -48975.523    3741.5778   -52717.101   0.28120054 
   45300    273.51744   -995.47222    142789.44   -48992.977    3756.1033    -52749.08   0.27070866 
   45400     271.2186   -982.36123    142778.75   -49054.943    3724.5344   -52779.477   0.28815381 
   45500    274.07622   -1006.3036    142796.02   -49001.707    3763.7769   -52765.484   0.27987941 
   45600    274.04447   -1048.9155    142780.95   -48996.428    3763.3409   -52759.769   0.27004268 
   45700    278.35749   -984.02569    142764.61   -48954.648    3822.5697   -52777.218   0.28513323 
   45800    273.23257   -1029.3837    142766.07    -49016.89    3752.1914   -52769.081   0.29870047 
   45900    276.52213   -951.94646    142789.07   -48885.389    3797.3655   -52682.754   0.27112849 
   46000    274.89046   -990.00762    142812.94   -48948.653    3774.9585   -52723.612   0.28518688 
   46100    279.10618   -992.87911    142805.26   -48856.823    3832.8513   -52689.674   0.29528274 
   46200    278.81812   -1024.4352    142790.17   -48911.396    3828.8955   -52740.292   0.26635236 
   46300    276.23324   -986.91418    142826.16   -48906.228    3793.3983   -52699.627   0.28414438 
   46400    274.11803   -1037.7288    142771.57   -48948.618     3764.351    -52712.97   0.29114757 
   46500    277.45602    -1001.364    142773.53   -48919.188    3810.1903   -52729.378   0.27835508 
   46600    274.46975   -1013.3413     142779.3    -48974.99     3769.181   -52744.171   0.27855542 
   46700    278.28674   -981.57598    142768.32   -48913.325    3821.5982   -52734.924   0.28785372 
   46800    271.61725   -991.69889    142817.72   -48925.155    3730.0088   -52655.164   0.28230445 
   46900    272.82527   -972.57945    142796.35   -48979.913    3746.5981   -52726.511   0.27025548 
   47000     269.6707     -993.991    142771.12   -49007.742    3703.2777    -52711.02   0.29185149 
   47100    275.55973   -1004.7701    142779.27   -49020.912    3784.1493   -52805.062   0.27779799 
   47200    273.66569   -1007.9628    142757.12   -48993.867    3758.1392   -52752.006   0.28170924 
   47300    270.62849   -991.22169    142711.32   -49102.089    3716.4306    -52818.52   0.27584106 
   47400    273.41517   -973.64267    142730.22   -49045.904     3754.699   -52800.603   0.27451194 
   47500    270.17016    -960.7375     142706.8   -49044.006    3710.1366   -52754.142   0.29349688 
   47600      271.903   -990.16564    142730.93   -49046.698    3733.9329   -52780.631   0.27438089 
   47700    275.80178   -1003.9339    142735.81   -48971.287    3787.4733    -52758.76     0.281931 
   47800    276.74505    -986.4935    142720.68   -49028.828    3800.4268   -52829.255   0.28492885 
   47900    272.82161   -988.48151    142691.64    -49074.99    3746.5478   -52821.538   0.28508921 
   48000    274.17106   -1030.2422    142705.75   -49034.168    3765.0792   -52799.247   0.27638173 
   48100    276.02354   -991.89975    142703.55   -49081.462    3790.5186   -52871.981   0.29246773 
   48200    272.29447   -986.10764    142687.31    -49062.73    3739.3088   -52802.039   0.28665953 
   48300    271.46332   -1006.4466    142709.79   -49021.445     3727.895    -52749.34   0.26955895 
   48400    272.71362   -1020.9256    142716.81   -49056.141    3745.0649   -52801.206   0.30439962 
   48500    267.73749   -1022.4122    142673.69    -49133.36    3676.7297    -52810.09   0.28315646 
   48600    267.40543   -1026.7505    142664.24   -49131.946    3672.1696   -52804.116   0.27812693 
   48700    270.15507   -1009.9309    142705.78   -49026.922    3709.9294   -52736.851    0.2922888 
   48800    274.03609   -1003.3403    142715.34   -49018.825    3763.2258    -52782.05   0.29146083 
   48900    273.78181   -1008.7363    142720.37   -49040.421    3759.7338   -52800.155   0.27221596 
   49000    271.24943   -990.53542       142727    -49073.86    3724.9577   -52798.818   0.27819568 
   49100    277.50498   -976.98044    142745.16   -48989.202    3810.8627   -52800.065   0.29809714 
   49200     277.1072   -1001.1571    142761.12   -49025.624    3805.4001   -52831.024   0.27524976 
   49300    266.15957   -1062.3866    142724.65   -49091.499    3655.0608    -52746.56   0.29097696 
   49400    274.29023   -998.19369    142707.83   -49105.302    3766.7158   -52872.018   0.28197568 
   49500    271.60761   -1006.0309    142715.71   -49048.082    3729.8765   -52777.958   0.28900542 
   49600    275.51696   -1003.5393    142705.43   -49042.993    3783.5619   -52826.555   0.28818533 
   49700    270.21518   -1037.3538     142710.9   -49041.721    3710.7548   -52752.476   0.27774648 
   49800    274.05713   -989.99483    142713.91   -49054.381    3763.5147   -52817.895   0.29008462 
   49900     273.9936   -1004.8635    142729.48   -49039.661    3762.6424   -52802.303    0.2828341 
   50000    270.59382    -1037.251    142726.43   -49048.068    3715.9545   -52764.022   0.27555813 
   50100    276.48212   -1003.7456    142760.88   -48909.914    3796.8161    -52706.73   0.29696575 
   50200    274.90972   -976.24896    142801.29   -48982.145     3775.223   -52757.368   0.28561586 
   50300    275.80608   -1021.7094    142772.85   -49000.284    3787.5323   -52787.816   0.27882237 
   50400     272.2977   -963.11052     142749.8   -49015.816    3739.3532   -52755.169   0.27693044 
   50500    275.77289    -1023.192    142764.77   -48933.194    3787.0765   -52720.271   0.30460384 
   50600    278.70582   -1014.1734    142785.34   -48863.507    3827.3533   -52690.861   0.27800218 
   50700    273.18919   -998.84493    142741.29   -49089.563    3751.5956   -52841.158   0.27597748 
   50800    273.95003   -993.78616    142696.04    -49064.28     3762.044   -52826.324   0.30908789 
   50900    277.32031   -1014.7377    142717.15   -49095.958    3808.3266   -52904.285   0.26938634 
   51000    271.86468   -971.60682    142724.98   -49054.368    3733.4067   -52787.775   0.28279357 
   51100    267.20206   -968.34907    142727.23   -49056.916    3669.3769   -52726.293   0.29513055 
   51200    265.55733   -1023.2671    142740.16   -49117.736    3646.7904   -52764.526   0.28346308 
   51300    272.76162   -976.51018    142716.19   -49124.877     3745.724   -52870.601   0.27392042 
   51400    267.01979   -1014.3228    142732.63   -49071.555    3666.8739   -52738.428   0.28808964 
   51500    265.77452   -1005.8165    142720.82   -49126.677     3649.773    -52776.45   0.29139017 
   51600    270.88304   -1005.7662    142721.17   -49046.775    3719.9263   -52766.702   0.27204424 
   51700     271.0953   -997.01148    142739.75   -48947.492    3722.8411   -52670.333   0.29003159 
   51800     272.1596   -1024.3301    142764.55   -48994.588    3737.4567   -52732.045   0.28883644 
   51900    276.73174   -1013.5771    142788.38   -49059.264     3800.244   -52859.508   0.27484738 
   52000    273.41632   -998.20314    142752.98   -49038.106    3754.7148    -52792.82   0.27261601 
   52100    269.72834    -1034.373    142736.33   -49112.193    3704.0692   -52816.262   0.27811249 
   52200    271.81248   -1013.6767    142701.33   -49163.119    3732.6898   -52895.808   0.29474621 
   52300    268.07842   -1040.7828    142693.68   -49145.347    3681.4116   -52826.759   0.26833922 
   52400    265.05948   -1005.5645    142682.83   -49224.962    3639.9536   -52864.916   0.27943252 
   52500    271.56376   -959.01767    142682.61   -49079.709    3729.2743   -52808.983   0.29177992 
   52600    267.88099   -1011.2647    142711.99   -49049.378    3678.7003   -52728.079    0.2768812 
   52700    272.53977   -992.14017    142740.96   -48987.633    3742.6775   -52730.311   0.27885128 
   52800    270.62878   -1012.6035    142773.58   -48957.701    3716.4346   -52674.136   0.29115659 
   52900    277.25456   -988.85176    142759.31   -48974.168    3807.4237   -52781.592   0.28402919 
   53000    273.87587   -968.21927    142761.54   -48929.128    3761.0256   -52690.154   0.26688691 
   53100    271.77272   -1006.0425    142716.55    -49057.84    3732.1439   -52789.984   0.29180518 
   53200    269.04343   -1013.9973    142692.84   -49108.391    3694.6636   -52803.055   0.28051707 
   53300    273.82005   -964.23068    142680.72   -49076.488     3760.259   -52836.747   0.27189109 
   53400    271.91067   -984.00707    142701.69   -49009.073    3734.0383   -52743.111   0.28777376 
   53500    272.12194   -1014.7473    142712.51   -48998.312    3736.9396   -52735.252   0.28637542 
   53600    273.17635   -1001.1012    142700.16   -49062.336    3751.4194   -52813.755    0.2833845 
   53700    270.88734   -1017.4176    142765.16   -49036.482    3719.9854   -52756.467   0.26880126 
   53800    269.85894   -974.12904    142737.85   -49054.556    3705.8627   -52760.419   0.27999303 
   53900    271.98527   -1001.1087    142738.52   -49060.555    3735.0627   -52795.618   0.28651543 
   54000    273.28456   -990.38665    142736.54    -49073.61    3752.9054   -52826.516   0.27663916 
   54100    268.10574   -997.09073    142761.17   -49049.088    3681.7866   -52730.875    0.2824514 
   54200    272.46746   -1010.1058     142778.9   -49002.999    3741.6844   -52744.683   0.28068464 
   54300    271.49552   -1009.9105    142791.47   -48937.503    3728.3372    -52665.84   0.27864827 
   54400     277.4752   -994.62129       142825   -48859.247    3810.4537   -52669.701   0.27431425 
   54500    268.22734   -1031.5891    142787.16   -48930.561    3683.4566   -52614.017   0.29266553 
   54600    281.33409   -1017.1112     142779.5   -48944.734    3863.4462    -52808.18   0.28042609 
   54700    270.59072   -995.77955    142769.75   -49002.935     3715.912   -52718.847    0.2645727 
   54800    271.96515   -1011.1722    142782.02   -48932.691    3734.7864   -52667.477   0.29170356 
   54900     279.8403   -972.20164    142773.38   -48950.468    3842.9327   -52793.401   0.27887153 
   55000    271.32754   -1005.1177     142791.3   -48981.445    3726.0304   -52707.476   0.27754572 
   55100     272.7668   -1027.6882    142773.11   -48994.276    3745.7952   -52740.071   0.27852679 
   55200    271.89487   -990.95772    142709.69   -49100.353    3733.8212   -52834.174    0.2815676 
   55300    272.39563   -996.38765    142685.94   -49148.921     3740.698   -52889.619   0.26952071 
   55400    275.35106   -967.84405    142676.85   -49112.694    3781.2838   -52893.978   0.27003522 
   55500     271.8297    -980.2813    142671.08   -49073.498    3732.9263   -52806.424   0.29175136 
   55600    273.51983   -995.28372    142724.31   -48975.236    3756.1362   -52731.373   0.27669997 
   55700    279.09245   -984.48745    142741.53   -48936.273    3832.6627   -52768.936   0.27558828 
   55800     279.3533   -967.94776    142775.87   -48919.282    3836.2449   -52755.527   0.28364464 
   55900    276.22375   -993.48367    142766.97   -48939.707    3793.2681   -52732.975   0.28451088 
   56000    274.77998   -999.15396    142772.78   -48950.341    3773.4413   -52723.782   0.27383814 
   56100    278.48632   -1012.7532    142748.44   -48932.524     3824.339   -52756.863   0.27764027 
   56200    277.16397   -985.92023    142749.97   -48969.511    3806.1797   -52775.691   0.28172923 
   56300    274.94849   -976.26523    142706.93   -49032.017    3775.7554   -52807.773   0.26858856 
   56400    274.10051   -1013.9292    142717.73   -49080.155    3764.1104   -52844.265   0.27115121 
   56500    274.15872   -1025.7218    142688.91   -49132.755    3764.9098   -52897.664   0.27847296 
   56600    272.52567   -986.57222     142668.3   -49183.525    3742.4838   -52926.009   0.28028459 
   56700    272.64886   -1019.8316    142685.71   -49164.318    3744.1755   -52908.493   0.27067806 
   56800    268.63602   -974.94316    142732.69   -49055.185    3689.0688   -52744.254   0.27462138 
   56900    267.80923   -1005.4255    142738.71   -49150.795    3677.7148    -52828.51   0.28342021 
   57000    273.50624   -1008.0863    142713.89   -49137.858    3755.9495   -52893.808   0.26319523 
   57100    275.29136   -997.49112    142739.27   -49058.565    3780.4638   -52839.029   0.27301187 
   57200     278.5495    -974.4092    142733.38   -49012.882    3825.2066   -52838.089   0.28258518 
   57300    271.39085    -994.9054    142717.82   -49144.251    3726.8998    -52871.15     0.270794 
   57400    278.88992   -979.13818    142748.07   -49025.093    3829.8814   -52854.975   0.27816667 
   57500    273.27418   -983.36387    142772.62   -48989.043    3752.7628   -52741.806   0.28086849 
   57600     271.2279   -999.59501    142713.73   -49095.884    3724.6621   -52820.546   0.28213056 
   57700    273.25548   -986.73403     142742.6   -49015.826     3752.506   -52768.332   0.26909112 
   57800    273.82114   -1003.2916    142771.81   -48969.485    3760.2739   -52729.759   0.28147344 
   57900    272.68226    -983.8849    142790.87   -49007.047    3744.6342   -52751.681   0.27715733 
   58000    279.06624   -989.12777    142782.61   -48972.219    3832.3027   -52804.522    0.2633632 
   58100    271.34306   -1005.8291    142775.18    -49018.41    3726.2435   -52744.653   0.28374785 
   58200    277.05282    -994.5789    142833.25   -48923.646    3804.6533   -52728.299   0.27885649 
   58300    272.46758   -999.57568    142810.29   -48983.698    3741.6861   -52725.384   0.27944566 
   58400    273.81773    -996.8161    142749.93   -49015.857    3760.2272   -52776.084   0.27901859 
   58500     270.7862   -1008.5716    142738.82   -49021.098    3718.5964   -52739.694   0.27485978 
   58600    268.88974   -992.35072     142711.6   -49056.945    3692.5531   -52749.498   0.28061473 
   58700    273.06652   -970.00083    142708.54   -49015.687     3749.911   -52765.598   0.27427278 
   58800    272.75169   -1023.6805    142716.67   -49053.677    3745.5877   -52799.265   0.28257751 
   58900    274.95607   -993.01091    142729.69   -48974.845    3775.8595   -52750.704   0.28351224 
   59000    271.90479   -1000.0987    142775.52   -48938.229    3733.9576   -52672.187   0.28672743 
   59100    278.14127   -965.52114    142781.96   -48906.694    3819.6006   -52726.294   0.27727839 
   59200    273.50964   -1000.2331    142756.67   -49021.207    3755.9963   -52777.203   0.28184379 
   59300    274.29474   -1007.7154    142750.58   -49005.375    3766.7778   -52772.152   0.28898232 
   59400    274.08012   -1010.0799    142725.19   -48987.238    3763.8304   -52751.068    0.2671071 
   59500    272.85065   -994.55185    142735.04   -49092.553    3746.9467     -52839.5   0.27927753 
   59600     270.9293   -995.90655    142737.56   -49062.361    3720.5615   -52782.923   0.28451263 
   59700    270.00992   -1030.5645    142757.35   -48998.361     3707.936   -52706.297   0.26942641 
   59800    268.86286   -999.14021    142752.62   -49106.227     3692.184   -52798.411   0.27194674 
   59900    268.50499   -1029.3532     142738.5   -49102.167    3687.2695   -52789.437   0.28531203 
   60000    271.97662   -1004.8272    142740.59    -49071.73     3734.944   -52806.674   0.27272726 
   60100    274.40096   -983.37419     142753.5   -49039.978    3768.2364   -52808.215    0.2596096 
   60200    276.46525   -987.57018    142758.78   -49006.518    3796.5845   -52803.102    0.2852276 
   60300    273.18444    -967.7466    142761.39   -48967.273    3751.5304   -52718.803    0.2698471 
   60400    276.80669   -978.60179    142788.93   -48921.497    3801.2734   -52722.771   0.27191504 
   60500    278.24763   -1032.5067    142804.36   -48948.711    3821.0611   -52769.772   0.27618585 
   60600     275.9925   -991.35559    142777.61   -49004.821    3790.0923   -52794.914   0.27016227 
   60700    279.55786   -1005.9536    142799.18   -48839.867     3839.054   -52678.921   0.27823336 
   60800    279.94685   -1001.0577    142832.83   -48862.095    3844.3958   -52706.491   0.27342828 
   60900    271.56311   -1042.6212    142814.93   -48949.014    3729.2654   -52678.279   0.28588626 
   61000    273.89361   -988.54735    142793.02   -48990.482    3761.2691   -52751.751   0.26349206 
   61100    274.97173   -968.81565    142812.94   -48978.985    3776.0746   -52755.059   0.26907978 
   61200    278.14251   -990.04392     142831.1   -48925.091    3819.6176   -52744.709   0.27581928 
   61300    276.32099   -1006.3652    142824.95   -49010.711    3794.6033   -52805.314   0.26668135 
   61400    271.90835   -1013.5462    142797.36   -49061.334    3734.0065   -52795.341   0.26976129 
   61500    276.14133   -986.89205    142789.35   -49002.102    3792.1361   -52794.238   0.26384424 
   61600    278.87624   -985.31119    142791.51   -49046.322    3829.6936   -52876.016   0.27531151 
   61700    271.45261   -991.08145    142787.78   -49102.397    3727.7479   -52830.144   0.26872463 
   61800    269.17828   -1015.0676    142788.64   -49089.213    3696.5154   -52785.728   0.26132535 
   61900    274.87771   -1008.0226    142791.68    -48986.05    3774.7835   -52760.834   0.27981383 
   62000     275.2731   -1037.9452    142817.83    -49009.18    3780.2131   -52789.393    0.2745637 
   62100    271.78861   -997.52684    142813.25   -49078.719    3732.3621   -52811.081   0.25973655 
   62200    277.63733   -1000.3016    142829.18   -48974.294    3812.6801   -52786.974   0.26920967 
   62300    275.15819   -1025.1244    142819.03   -49017.924    3778.6352   -52796.559   0.27246494 
   62400    271.82274   -1025.7413    142821.03   -49059.935    3732.8308   -52792.766   0.25497777 
   62500    269.40922   -999.09487    142797.24   -49049.101    3699.6869   -52748.788   0.26739499 
   62600    269.38553   -1000.2344    142795.58    -49083.14    3699.3616   -52782.502   0.28077781 
   62700    267.39491   -1013.3076    142767.21   -49113.851    3672.0252   -52785.876   0.26222804 
   62800    267.42798   -1007.5269    142735.83   -49086.131    3672.4793    -52758.61   0.26901059 
   62900    276.58204   -974.70165    142798.59   -48999.454    3798.1883   -52797.642   0.28468683 
   63000    276.34872   -962.53853    142809.85   -49024.207    3794.9841   -52819.191    0.2649654 
   63100    269.72153   -990.95948    142791.37   -49092.814    3703.9757    -52796.79   0.26070853 
   63200    272.12953   -1021.7455    142828.34   -48983.552    3737.0438   -52720.596   0.28452512 
   63300    274.23125   -959.59993    142791.87   -49073.655    3765.9059   -52839.561   0.26986095 
   63400    267.64018   -972.89618    142761.67   -49159.127    3675.3933    -52834.52   0.25521842 
   63500    271.35066   -982.12019     142758.3   -49135.372    3726.3478    -52861.72   0.27247477 
   63600     266.5549    -1045.964    142736.35    -49181.05    3660.4896   -52841.539   0.27852272 
   63700    269.39395   -990.13873    142759.67   -49153.827    3699.4772   -52853.304   0.26467466 
   63800    262.28996    -1017.489    142742.15    -49214.23     3601.921   -52816.151   0.27648512 
   63900    273.26078   -983.57991    142787.88   -49115.432    3752.5787    -52868.01   0.26981367 
   64000    268.71172   -1022.4202    142791.64   -49028.849    3690.1084   -52718.957   0.27580156 
   64100    276.88084   -984.48144    142822.57   -48991.045    3802.2916   -52793.336   0.26357469 
   64200     274.5907   -1006.1122    142855.04   -48981.269    3770.8421   -52752.111   0.27172249 
   64300    275.27504    -1009.736    142855.23   -49013.728    3780.2398   -52793.967   0.27067415 
   64400    276.02175   -1018.3277    142819.52   -49070.658     3790.494   -52861.152    0.2631956 
   64500    268.86183   -1015.4461    142790.28   -49054.375    3692.1698   -52746.544   0.27028271 
   64600    271.97491   -1011.6858    142813.96   -49098.121    3734.9204   -52833.041   0.27201972 
   64700    267.89885    -974.5672    142764.15   -49096.476    3678.9456   -52775.422   0.27337503 
   64800    273.74749   -963.04827    142784.33   -49045.906    3759.2625   -52805.169   0.25376773 
   64900    273.22966   -962.24012    142783.48   -48960.026    3752.1515   -52712.177   0.28366527 
   65000    273.99343   -1006.0146    142832.79   -48954.295      3762.64   -52716.935   0.28335196 
   65100    272.37383   -1023.8408    142837.37   -49018.182    3740.3986    -52758.58    0.2544977 
   65200    274.64934   -1002.3033    142810.31   -49035.956    3771.6473   -52807.603   0.27413363 
   65300    277.98667   -996.04668    142804.16   -48968.322    3817.4774   -52785.799   0.28027051 
   65400    276.08525   -1001.0311    142780.35   -49010.937     3791.366   -52802.303   0.26545493 
   65500    274.23695   -1041.6681    142787.45    -48945.02    3765.9842   -52711.004   0.26207328 
   65600    273.23978   -981.59414    142813.69   -48960.949    3752.2904    -52713.24   0.28058264 
   65700    276.37466   -1002.5598    142822.35   -48919.647    3795.3404   -52714.988   0.26994745 
   65800    274.08504   -1029.9188    142803.02   -48989.078     3763.898   -52752.976   0.26316821 
   65900    272.81882   -1043.8189    142798.73   -49003.952    3746.5095   -52750.461   0.28634727 
   66000    273.87981    -1014.209    142781.93   -49006.576    3761.0796   -52767.656   0.27447398 
   66100    278.51348   -973.27418    142777.33   -48976.748     3824.712   -52801.459   0.26632931 
   66200    273.72233    -1016.139    142763.62    -49108.53    3758.9171   -52867.447   0.26695169 
   66300    272.50325   -997.50266    142759.17    -49037.27    3742.1759   -52779.446   0.28777114 
   66400    271.65532   -972.42643    142766.27   -49042.461    3730.5316   -52772.993   0.26883607 
   66500    270.83773   -1010.1196    142765.49   -49071.398    3719.3041   -52790.702   0.26252634 
   66600    272.08384   -1016.5448    142735.56   -49076.958    3736.4164   -52813.374   0.28824315 
   66700    272.90465   -1009.4125    142692.63   -49056.778    3747.6882   -52804.466   0.27737653 
   66800    269.74384   -967.47829    142714.28    -49084.79    3704.2821   -52789.072   0.26703931 
   66900    270.39545   -970.87205    142701.29   -49097.425    3713.2303   -52810.655   0.27615304 
   67000    266.63587   -1034.8241    142662.89   -49194.872    3661.6016   -52856.473   0.28551043 
   67100    271.15424   -979.23212    142678.18   -49035.726    3723.6505   -52759.376   0.26834562 
   67200     267.7272   -999.62731     142683.5   -49132.917    3676.5883   -52809.505   0.26976574 
   67300    271.63423   -976.88638    142695.85   -49057.199     3730.242   -52787.441   0.29276099 
   67400    274.33107   -972.04023    142720.54   -49038.438    3767.2766   -52805.715   0.26848636 
   67500    271.59228   -1017.1899    142712.57   -49027.097     3729.666   -52756.763   0.27239835 
   67600    282.01292   -956.29349    142751.52   -48889.487    3872.7683   -52762.255   0.28283823 
   67700    276.00507   -1007.2018    142765.29   -48958.892     3790.265   -52749.157   0.28498497 
   67800     273.7444   -1030.0052    142758.43   -49001.883    3759.2202   -52761.103   0.26646716 
   67900     275.5927   -1017.3633    142754.99   -49033.631    3784.6021   -52818.233   0.27508401 
   68000    272.82153   -1002.1101    142742.65   -49061.286    3746.5467   -52807.833   0.28673297 
   68100    271.51647    -992.2064    142758.22   -49069.242    3728.6248   -52797.867    0.2645059 
   68200    276.88498   -1002.3724    142751.49   -49041.002    3802.3484   -52843.351   0.26616914 
   68300    273.72678   -975.78197    142769.49   -48986.583    3758.9782   -52745.562   0.28665485 
   68400    274.09715   -965.76886    142805.29   -48955.133    3764.0643   -52719.198   0.27714839 
   68500    270.38691    -1020.827    142827.56   -48951.544    3713.1131   -52664.657   0.26631693 
   68600    270.25573   -1033.1978    142832.29   -49046.135    3711.3117   -52757.446     0.272694 
   68700    274.51885   -997.67747    142817.21   -49023.327    3769.8553   -52793.183   0.28024843 
   68800    276.27639   -1031.2252    142812.56   -49020.241    3793.9909   -52814.232   0.25505438 
   68900    275.25397   -1002.2759    142778.83   -49017.038    3779.9505   -52796.989   0.26878582 
   69000    275.25536   -1018.5156    142804.39   -49014.332    3779.9695   -52794.302   0.28947543 
   69100    269.78583   -1018.2811    142784.57    -49083.99    3704.8587   -52788.849   0.26702379 
   69200    267.22487   -1033.1726    142793.78   -49090.648      3669.69   -52760.338    0.2601018 
   69300    267.76936   -1005.8633    142778.72    -49119.26    3677.1674   -52796.428   0.27949937 
   69400    265.89997   -1034.6249    142728.16   -49164.161    3651.4958   -52815.657   0.27762685 
   69500    269.24248   -954.18575    142743.36   -49037.293    3697.3971    -52734.69   0.26159255 
   69600    278.11647   -983.58865    142812.87   -48938.071      3819.26   -52757.331   0.27637708 
   69700    276.79373   -1017.7973    142803.45   -49028.064    3801.0954    -52829.16   0.27548453 
   69800    272.91301   -997.56495    142809.75    -49030.02     3747.803   -52777.823   0.25495855 
   69900    270.62808   -1031.9354    142780.21   -49116.572     3716.425   -52832.997    0.2684679 
   70000    272.10763   -992.88511    142816.96    -49055.09    3736.7431   -52791.833   0.28113201 
   70100    268.21961   -1034.7266    142775.55   -49167.997    3683.3504   -52851.347   0.27098597 
   70200    275.83331   -974.21348     142791.6   -49013.554    3787.9063    -52801.46   0.25843576 
   70300     276.3248   -1008.9146    142810.43   -49024.422    3794.6557   -52819.078   0.28015334 
   70400    274.44474   -1014.5661     142809.4   -48911.508    3768.8376   -52680.345   0.28585833 
   70500    276.14484   -983.11496    142804.66   -48983.908    3792.1844   -52776.092   0.25799428 
   70600    273.36638   -995.03239    142769.17   -49035.219    3754.0289   -52789.248   0.27516776 
   70700     276.5604   -995.82345    142761.47   -49004.548    3797.8911   -52802.439   0.28414691 
   70800    271.90484   -1041.7554    142789.81   -49040.422    3733.9582    -52774.38   0.26654282 
   70900    270.53987   -978.94249     142783.7   -49031.227    3715.2136   -52746.441   0.26351509 
   71000    274.75398   -1004.5024    142801.13   -49053.154    3773.0842   -52826.238   0.28140902 
   71100    274.60571   -982.23762     142768.6   -49038.945    3771.0482   -52809.993   0.27328301 
   71200    268.91985   -1019.5058    142782.11   -49076.212    3692.9665   -52769.179   0.25816147 
   71300      272.703   -1013.5968    142791.35   -49131.617    3744.9191   -52876.536   0.27242697 
   71400    270.97944   -1003.4224    142813.73   -49078.296    3721.2501   -52799.546   0.27365019 
   71500    273.50085   -1009.4403    142801.35   -49023.557    3755.8756   -52779.432   0.25954485 
   71600    275.07018   -991.24667    142803.69   -49042.891    3777.4266   -52820.317   0.25740186 
   71700    275.79167   -985.57505    142817.01   -49035.824    3787.3345   -52823.158   0.27474027 
   71800    264.48756   -1045.5531    142774.51   -49200.942    3632.0997   -52833.042   0.26760671 
   71900    268.77202   -979.25156    142769.29   -49144.543    3690.9364    -52835.48    0.2520436 
   72000    272.63735   -969.38275    142797.51   -49116.352    3744.0174    -52860.37   0.28027433 
   72100    273.01686   -985.93905     142825.8   -48989.958    3749.2291   -52739.187   0.27406713 
   72200     281.0691   -973.02164    142862.31   -48885.428    3859.8073   -52745.235   0.25735002 
   72300     280.7642   -1023.5691    142898.52   -48867.854    3855.6202   -52723.474   0.27305938 
   72400     281.0654   -982.97809     142838.8   -48975.352    3859.7564   -52835.109   0.27683693 
   72500      273.795   -991.52093    142812.11   -48967.723     3759.915   -52727.638   0.26640093 
   72600    276.56422   -981.98725    142820.98   -48911.578    3797.9435   -52709.521   0.26011554 
   72700    272.05663   -1017.2966    142807.66   -49069.167    3736.0427   -52805.209   0.28686638 
   72800    275.30379   -945.84561    142803.61   -48998.482    3780.6346   -52779.116   0.26308739 
   72900    273.74029   -1031.4164    142787.46   -49003.493    3759.1637   -52762.657   0.26131146 
   73000    273.12015   -959.69578    142786.82   -49018.256    3750.6476   -52768.904   0.28094595 
   73100    275.45791   -992.69299     142787.5   -48966.858    3782.7511   -52749.609    0.2750653 
   73200    278.51759   -1013.6646    142828.76   -48958.284    3824.7684   -52783.052   0.26295718 
   73300      275.389   -1013.1933    142829.03    -48931.82    3781.8047   -52713.625    0.2695155 
   73400     277.3324   -991.79992     142818.6   -48919.221    3808.4927   -52727.713   0.28401643 
   73500    279.76413   -1027.9495    142845.87   -48925.849    3841.8866   -52767.736   0.26479526 
   73600     273.7898   -996.22626    142826.69   -48963.514    3759.8437   -52723.357   0.26116372 
   73700    273.08292     -979.901    142807.78   -49017.571    3750.1363   -52767.708   0.28553711 
   73800    271.68606   -1007.3809    142783.35   -49105.994    3730.9538   -52836.948   0.26820615 
   73900    271.94522    -1029.443    142787.91   -49089.436    3734.5127   -52823.948   0.25867992 
   74000    279.15767   -964.14606    142771.84   -49017.352    3833.5583    -52850.91   0.27644608 
   74100    282.89681   -970.83259    142833.06   -48856.571    3884.9065   -52741.478   0.27715436 
   74200    274.28287   -1053.1068    142804.53   -49014.135    3766.6148   -52780.749   0.26583635 
   74300    275.71469   -1029.8873    142782.24   -49015.299    3786.2773   -52801.577   0.27105111 
   74400    271.91458   -983.11282    142780.21   -49045.522     3734.092   -52779.614   0.28155363 
   74500    270.66913   -982.00843    142764.93   -49064.747    3716.9887   -52781.736   0.26656618 
   74600    270.44829   -998.02581    142775.68   -49071.824     3713.956    -52785.78   0.26923052 
   74700    277.46251   -993.07162    142773.31   -48983.894    3810.2794   -52794.173   0.28429425 
   74800    272.41035   -1001.0018    142735.36   -49032.501    3740.9002   -52773.401   0.27942131 
   74900    276.57772   -1031.6121     142758.5   -49036.868    3798.1289   -52834.997   0.25881165 
   75000    274.28613   -970.44338    142731.48   -49016.945    3766.6594   -52783.604   0.28337402 
   75100    275.85527   -969.11534     142771.9   -48954.495    3788.2079   -52742.702   0.28703748 
   75200    276.39578    -992.2561    142779.98   -48997.348    3795.6304   -52792.978   0.26111363 
   75300    275.37848   -996.26598    142768.21   -49047.504    3781.6603   -52829.165   0.27166743 
   75400    274.46609   -984.86619    142780.58   -49059.566    3769.1308   -52828.697    0.2793853 
   75500    273.73322   -1012.8784     142746.7   -49058.347    3759.0666   -52817.414   0.27552396 
   75600    276.65692   -976.92085    142759.41   -48988.374    3799.2165    -52787.59   0.26138699 
   75700    274.75434   -1015.6294    142785.87   -48947.612    3773.0892   -52720.701   0.28646685 
   75800    272.60669   -1027.2006    142808.87   -48972.581    3743.5964   -52716.178   0.28416913 
   75900    272.32998   -1013.5935    142758.13   -48981.491    3739.7965   -52721.288   0.26755519 
   76000    272.27075   -1024.8018    142757.05   -48984.912    3738.9831   -52723.895   0.28620591 
   76100    267.98237   -1015.5897    142736.53   -49064.857    3680.0926    -52744.95   0.29281304 
   76200    271.10515    -997.8648    142691.68   -49113.108    3722.9764   -52836.085   0.26529842 
   76300    273.25014   -985.88507    142721.37   -49055.318    3752.4327   -52807.751   0.27001576 
   76400     273.5371   -1007.5194    142717.88   -49050.781    3756.3734   -52807.154   0.29434973 
   76500    267.96862   -1042.6878    142709.16   -49041.738    3679.9038   -52721.642   0.28448367 
   76600    272.99741    -988.4202    142720.11   -49081.031    3748.9621   -52829.993   0.26567766 
[...]
   81900     270.8123   -995.82249    142726.35   -49085.069    3718.9548   -52804.024   0.27397329 
   82000    273.99418   -981.42866    142760.63   -48997.684    3762.6502   -52760.334   0.26752684 
   82100      273.977   -991.83428    142783.88   -48948.511    3762.4143   -52710.926   0.28940551 
   82200    279.10739   -989.94731     142808.2   -48962.693    3832.8679   -52795.561   0.27354828 
   82300    276.96024   -1002.0022    142788.61   -49026.863    3803.3819   -52830.245   0.26725353 
   82400    282.15362   -1012.7495    142819.05   -48915.738    3874.7005   -52790.438   0.27068319 
   82500    277.33733   -989.77357    142840.32    -48821.97    3808.5603    -52630.53   0.29020731 
   82600     275.8759   -968.65879    142859.93   -48922.733    3788.4912   -52711.224   0.26458796 
   82700    274.05917   -1048.1466    142804.78   -48998.298    3763.5427   -52761.841   0.27344934 
   82800    274.05573   -1029.6428    142809.99   -49012.977    3763.4954   -52776.472   0.27770554 
   82900    274.34986   -1027.5218    142790.09   -48969.628    3767.5347   -52737.163   0.27924182 
   83000    275.82686   -986.43528     142808.5   -48909.961    3787.8177   -52697.779   0.27369662 
   83100     277.6992   -1002.5101    142832.36   -48945.363    3813.5298   -52758.893   0.26445895 
   83200    275.09007     -1012.35     142829.6    -48970.62    3777.6997    -52748.32   0.28725435 
   83300    277.47691   -993.53669    142798.29   -48960.193    3810.4771    -52770.67   0.26948863 
   83400    277.46551   -1009.0078    142787.25   -49037.827    3810.3206   -52848.148   0.26247746 
   83500    271.43266   -1022.9152    142732.34    -49137.84     3727.474   -52865.314   0.28192838 
   83600    272.09672     -1002.52    142758.85   -49085.846    3736.5932   -52822.439   0.27491124 
   83700     268.9406   -1036.4086    142735.83   -49112.975    3693.2515   -52806.227   0.27033323 
   83800    271.44857   -988.64289     142746.7   -49075.956    3727.6924   -52803.649    0.2717596 
   83900    272.15331   -994.93437    142747.64   -49076.567    3737.3704   -52813.938   0.29071051 
   84000    270.03081   -959.03421    142721.55   -49096.244    3708.2229   -52804.466   0.26379539 
   84100    267.91854    -1000.842    142716.62   -49024.368    3679.2159   -52703.584   0.28172512 
   84200    275.82026   -967.99304    142729.03   -48979.792    3787.7271   -52767.519   0.29623125 
   84300    274.92406   -989.14233    142725.31   -49034.883    3775.4199   -52810.302   0.26631977 
   84400    271.46616   -1007.8603    142731.04   -49029.949     3727.934   -52757.883   0.27650981 
   84500    270.16926    -985.3293       142709   -49076.118    3710.1242   -52786.242   0.28796779 
   84600    273.92277   -1015.8185    142766.28   -48995.125    3761.6696   -52756.794   0.28357458 
   84700    270.65885   -985.27961    142784.17   -49002.591    3716.8475   -52719.438   0.26387113 
   84800    274.23386   -1022.0468    142787.26   -48997.485    3765.9416   -52763.426   0.28052494 
   84900     279.8968    -995.8259    142811.67   -48919.184    3843.7086   -52762.892   0.28264109 
   85000    281.40316   -996.93427    142810.96   -48992.612    3864.3947   -52857.007    0.2646094 
   85100    274.58243   -1022.2253    142792.45   -49013.337    3770.7284   -52784.065   0.27957019 
   85200    271.50868   -993.84991    142769.24   -49048.067    3728.5179   -52776.585   0.27460587 
   85300    272.44162   -993.05748    142748.09   -49060.058    3741.3296   -52801.387   0.27045363 
   85400     275.9842   -982.12488    142747.41   -49092.491    3789.9784    -52882.47   0.26819942 
   85500     271.6531   -1020.4436    142760.17   -49039.631    3730.5011   -52770.132   0.27926412 
   85600    273.44317   -997.36403    142744.33   -49067.664    3755.0835   -52822.748   0.27885764 
   85700    276.07059   -988.94605    142713.27   -49008.633    3791.1648   -52799.798     0.273477 
   85800    274.92157   -1017.8514    142724.36   -49005.001    3775.3857   -52780.387   0.28187872 
   85900    274.70832   -987.89735    142741.25   -48973.631    3772.4573   -52746.088   0.28800363 
   86000    272.79157   -996.67991    142718.97   -49021.589    3746.1353   -52767.725   0.27300647 
   86100    272.46223   -1001.9916    142741.13   -48987.504    3741.6126   -52729.117   0.27545693 
   86200    275.27907   -1003.3183    142750.99   -48959.214    3780.2951   -52739.509   0.29199051 
   86300    274.08249   -978.91271    142733.53   -49007.412     3763.863   -52771.275   0.27672527 
   86400    272.68921   -1014.0635     142702.1   -49063.957    3744.7297   -52808.687   0.27235452 
   86500    268.71087   -998.85317    142716.95   -49092.344    3690.0967   -52782.441   0.28061791 
   86600    271.94919   -991.00605    142741.59   -48936.006    3734.5673   -52670.574   0.29027447 
   86700    276.06395   -980.50828    142783.03   -48945.115    3791.0736   -52736.189   0.26808802 
   86800    272.63858   -970.78561    142734.73   -49053.878    3744.0344   -52797.913    0.2717946 
   86900    273.09584   -1008.6587    142734.64   -49040.137    3750.3137   -52790.451   0.28460004 
   87000    271.14139    -1025.535    142763.49   -49018.262    3723.4741   -52741.736    0.2712106 
   87100    275.71617   -975.73798    142775.81   -48994.721    3786.2977   -52781.019   0.26503628 
   87200    274.28885   -1023.1584    142787.88     -48934.5    3766.6969   -52701.197   0.28735201 
   87300    274.18756   -995.79044    142812.78   -48942.146    3765.3058   -52707.452   0.27727995 
   87400    275.66401   -991.24331    142812.23   -48997.027    3785.5813   -52782.609   0.25727914 
   87500    274.51967     -991.259    142787.04   -48971.451    3769.8666   -52741.317   0.27953255 
   87600    275.70573   -963.46162    142789.54   -48996.113    3786.1542   -52782.267   0.27857057 
   87700    279.10686   -1005.7665    142771.67   -48969.358    3832.8607   -52802.218   0.26177487 
   87800    274.51331   -1040.7785    142761.87   -49057.526    3769.7792   -52827.305   0.27385772 
   87900    267.99266   -1009.8631    142751.57    -49071.73    3680.2338   -52751.964   0.28702345 
   88000    274.25883   -1015.8523    142771.31   -49041.648    3766.2845   -52807.932   0.26831576 
   88100    275.42982   -994.90777    142801.86   -49014.264    3782.3654   -52796.629   0.26504541 
   88200    273.07793   -1013.4857    142769.07   -49107.333    3750.0678   -52857.401   0.28074403 
   88300    270.97594   -1010.4406    142754.14   -49056.286     3721.202   -52777.488   0.27769423 
   88400    273.67492   -1019.3718    142778.68   -48990.136     3758.266   -52748.402   0.26839489 
   88500    267.28695   -1010.7274    142752.43   -49055.273    3670.5426   -52725.816   0.27757061 
   88600    270.77236   -982.54158    142757.82    -49042.86    3718.4063   -52761.267   0.27911689 
   88700    271.17779    -1021.946    142796.63   -49016.692     3723.974   -52740.666   0.27062298 
   88800     272.5556   -1028.4193    142773.96   -49076.921    3742.8948   -52819.816   0.26670398 
   88900    278.98388   -985.07696    142767.24   -49022.694    3831.1717   -52853.866   0.28154104 
   89000    272.04411   -970.13043    142806.45   -48989.024    3735.8708   -52724.895   0.26828803 
   89100    272.82733   -1001.7467    142802.48   -49038.187    3746.6264   -52784.813   0.26256912 
   89200    278.83372   -985.99159    142822.81   -48992.741    3829.1097   -52821.851   0.27373018 
   89300    269.02741   -1041.1668     142781.3   -49108.667    3694.4436   -52803.111   0.27828744 
   89400    271.85918   -1025.1036    142829.19   -49020.214    3733.3312   -52753.545   0.26736021 
   89500    268.67619   -1020.7717    142795.67   -49108.031    3689.6204   -52797.651   0.27188822 
   89600    268.77157    -1014.518    142734.82   -49124.864    3690.9302   -52815.794   0.28812061 
   89700    266.86683   -1002.3235    142746.43   -49053.602    3664.7733   -52718.375   0.27187322 
   89800    276.46999   -980.45725    142766.38   -48990.155    3796.6496   -52786.805   0.27192348 
   89900    275.46469   -1003.3112    142809.16   -48977.178    3782.8441   -52760.022   0.28363467 
   90000    275.51983   -997.07872    142825.35   -49001.477    3783.6014   -52785.079   0.26837572 
   90100    272.52582   -965.87221    142811.68   -48981.271    3742.4858   -52723.757   0.26014349 
   90200    272.63287   -995.82688    142790.74   -49050.375    3743.9559   -52794.331   0.27793871 
   90300    276.56616    -974.5483    142795.72   -49026.492    3797.9702   -52824.462   0.28682837 
   90400    275.96647    -1001.505     142825.4   -49010.525    3789.7349   -52800.259   0.25810347 
   90500    273.57686   -1012.2774    142819.59   -49025.903    3756.9194   -52782.823   0.28245661 
   90600    273.67344   -1010.4986    142802.71   -49050.029    3758.2456   -52808.274   0.28071591 
   90700    271.19756   -1049.3499    142772.36   -49080.432    3724.2454   -52804.677   0.26969286 
   90800    271.02213   -1007.7865    142735.11   -49094.779    3721.8363   -52816.615   0.27701506 
   90900    271.37116   -1014.8883    142757.67   -49069.615    3726.6293   -52796.245   0.28237624 
   91000    274.32639   -976.36426    142743.75   -49085.324    3767.2124   -52852.536   0.27834173 
   91100    271.29812   -988.14326    142707.72   -49179.372    3725.6264   -52904.999   0.26258496 
   91200    272.78068   -974.07688    142719.87    -49131.86    3745.9858   -52877.846   0.28337462 
   91300    272.85695   -998.46803    142752.29   -49065.313    3747.0332   -52812.346   0.27900044 
   91400    272.26299   -1029.7491     142769.9   -49039.519    3738.8765   -52778.396   0.26788765 
   91500    281.54792   -992.15415    142811.65   -48887.403    3866.3827   -52753.785   0.27977045 
   91600    277.94538   -1004.6997     142821.2   -48949.357    3816.9104   -52766.268    0.2812603 
   91700    272.40518   -992.06458    142788.12   -49017.085    3740.8291   -52757.914   0.27608664 
   91800    274.26591   -1023.3509    142791.95   -48988.651    3766.3818   -52755.032   0.27496652 
   91900    276.09693   -995.63852    142819.28   -48985.078    3791.5264   -52776.605   0.27814631 
   92000    273.74884   -1021.3209    142813.97   -49031.583    3759.2811   -52790.864   0.27941409 
   92100    274.24141   -995.24294     142787.3   -49015.773    3766.0453   -52781.818   0.26752728 
   92200    277.48792   -975.62028    142770.63   -49045.244    3810.6284   -52855.873   0.26768678 
   92300     278.8422   -971.31616    142787.33   -48920.417    3829.2261   -52749.643   0.27936263 
   92400    273.08606   -996.59821    142813.24   -48966.143    3750.1794   -52716.322   0.27098517 
   92500    275.44841   -1001.5852    142784.38   -48960.215    3782.6206   -52742.836   0.27137989 
   92600    276.57342    -997.8649    142770.62   -48873.218    3798.0698   -52671.288   0.28852351 
   92700    271.08319   -1044.1575    142774.98   -48994.136    3722.6749    -52716.81   0.28296844 
   92800    269.86596   -999.49781    142739.98   -49001.388    3705.9591   -52707.347   0.27455666 
   92900    276.20262   -1011.5945    142739.47   -49041.204    3792.9778   -52834.182    0.2818487 
   93000    275.05678   -1012.2016    142726.57   -49047.784    3777.2426   -52825.027   0.29500765 
   93100     272.6899   -971.34221    142758.54   -48963.009    3744.7391   -52707.748   0.26816046 
   93200    268.40553   -1001.4814    142791.99    -49020.73    3685.9036   -52706.633   0.28531347 
   93300    271.41846   -1016.6327    142772.68   -49076.961    3727.2789    -52804.24   0.28695956 
   93400    267.24768   -989.25071    142730.13   -49123.913    3670.0034   -52793.917   0.27178727 
   93500    272.20719   -994.38978    142740.74   -49126.818    3738.1102   -52864.928   0.27544216 
   93600    276.79573   -1004.6141    142757.58   -49080.917    3801.1228    -52882.04    0.2829515 
   93700    267.00301   -1013.4865    142752.11     -49060.4    3666.6434   -52727.044   0.28237529 
   93800    272.20762   -1005.6927    142746.23   -49057.456    3738.1162   -52795.573   0.26821146 
   93900    268.85602   -1006.1963     142692.7   -49130.441      3692.09   -52822.531   0.28682068 
   94000    274.44935   -986.37015    142700.73   -49106.508     3768.901   -52875.409   0.27702017 
   94100    270.55388      -1028.5    142709.07   -48989.275     3715.406   -52704.681   0.28376676 
   94200    276.03101   -977.14377    142763.19   -48980.633    3790.6212   -52771.254   0.27655635 
   94300    271.81621   -1005.3549    142775.91   -48989.776    3732.7411   -52722.517   0.28536987 
   94400    277.86878   -975.08448    142803.92   -48982.189    3815.8586   -52798.047   0.27391475 
   94500    280.05238    -974.8117    142838.85   -48992.039     3845.845   -52837.884   0.25879356 
   94600    277.73843   -1013.6306    142818.63   -49003.837    3814.0685   -52817.905   0.28086053 
   94700    272.74417   -978.13835    142805.93   -49038.136    3745.4843   -52783.621   0.27246915 
   94800    267.11068   -1008.3955    142762.62   -49073.016     3668.122   -52741.138    0.2741423 
   94900    268.92933   -1014.5243    142758.61   -49101.913    3693.0967   -52795.009   0.27756566 
   95000    275.20868   -994.33182     142747.8   -49068.096    3779.3285   -52847.424    0.2850517 
   95100    270.26701   -1000.6622    142762.64   -49024.907    3711.4665   -52736.374   0.27388858 
   95200    272.13514   -1019.8441    142774.21   -49054.974    3737.1208   -52792.094   0.26681155 
   95300    275.05685   -988.17151    142774.55   -49007.796    3777.2435    -52785.04   0.28921707 
   95400    273.05478   -979.52061    142798.96   -48979.003    3749.7499   -52728.753   0.26825784 
   95500      273.153   -1001.9925    142785.54   -48994.805    3751.0986   -52745.904   0.27410247 
   95600    273.52673   -987.77294    142807.24   -48984.173     3756.231   -52740.404   0.27857803 
   95700    272.12866   -995.73205    142774.41   -49018.589    3737.0318   -52755.621   0.28213412 
   95800    278.47639   -977.98143    142781.53   -48963.885    3824.2026   -52788.088   0.26675964 
   95900    276.31254   -993.65931    142779.63    -48978.57    3794.4873   -52773.057   0.27063719 
   96000    273.88946   -968.23458    142796.73   -48947.808    3761.2122    -52709.02    0.2843818 
   96100    278.52984   -986.86398    142850.61   -48900.894    3824.9366   -52725.831   0.26507872 
   96200    273.24695   -1001.7732    142832.47   -48923.322    3752.3889   -52675.711    0.2765326 
   96300    276.47103   -985.86641    142824.82   -48941.976    3796.6639    -52738.64   0.28046374 
   96400    274.50331   -1011.4807    142797.76   -48987.055    3769.6419   -52756.697   0.27311828 
   96500    279.15217   -1004.4908    142807.92   -48987.397    3833.4828    -52820.88   0.26725402 
   96600    275.27292   -977.60008    142807.99   -49036.686    3780.2107   -52816.897   0.27222475 
   96700    274.94734   -1005.5761    142824.83    -49013.32    3775.7396    -52789.06   0.27941685 
   96800    273.77585   -1006.4001    142794.67   -49029.256     3759.652   -52788.908   0.26012508 
   96900    274.84183   -962.08012    142760.24   -49031.458    3774.2907   -52805.749   0.27837519 
   97000    270.74219   -1009.9834    142742.95   -49100.559    3717.9921   -52818.551   0.28545436 
   97100    269.52083   -1031.6843    142743.19   -49072.331    3701.2195   -52773.551    0.2787366 
   97200     273.9552   -985.98878    142754.33   -49019.869     3762.115   -52781.984   0.26788582 
   97300    276.65261   -952.59042    142794.67   -48912.366    3799.1574   -52711.524   0.28326578 
   97400    274.13677   -1017.3895    142798.21    -49004.89    3764.6084   -52769.498   0.27811318 
   97500    278.63857   -972.85219    142780.77   -48974.809    3826.4298   -52801.239   0.26115157 
   97600     274.7508   -991.02575    142805.77   -48918.463    3773.0406   -52691.503   0.28310943 
   97700    280.96503   -958.36735    142821.68   -48876.936     3858.378   -52735.314   0.27847671 
   97800     271.5403   -1007.4668    142798.88   -48979.314    3728.9521   -52708.266   0.27553789 
   97900     277.0075   -998.67594    142808.07   -48943.655    3804.0309   -52747.686   0.27460922 
   98000     270.6381   -1018.1901    142793.89   -49031.167    3716.5626    -52747.73   0.28488085 
   98100    278.37607    -976.8443    142797.01   -49014.235     3822.825    -52837.06   0.27661566 
   98200    273.11653   -997.67399     142790.9   -49008.974    3750.5978   -52759.572    0.2666894 
   98300    275.26886   -1001.9503    142809.21   -48955.043    3780.1549   -52735.198   0.28222999 
   98400    276.01406   -1005.5863    142803.27   -48993.429    3790.3884   -52783.818   0.28871562 
   98500    271.95091   -1030.2849    142775.03   -48968.237    3734.5909   -52702.828    0.2722359 
   98600    272.45747   -942.82476    142804.87   -48975.517    3741.5473   -52717.064   0.27210747 
   98700    274.59442   -1010.4039    142812.99   -48951.118    3770.8931   -52722.011   0.29473189 
   98800    279.58642   -1001.4239    142810.93   -48959.264    3839.4462    -52798.71   0.26943637 
   98900    275.60577   -1007.9837    142761.31   -49006.338    3784.7815   -52791.119   0.26771641 
   99000    274.17202   -1002.7128    142784.52   -49009.979    3765.0924   -52775.071   0.28776271 
   99100    273.43687   -1006.2194    142771.91   -49062.768     3754.997   -52817.765   0.28388384 
   99200    268.59124   -1042.0771    142803.24    -49069.75    3688.4539   -52758.204   0.25898875 
   99300    276.36857   -969.41385    142803.79   -48999.002    3795.2568   -52794.259   0.27784853 
   99400    274.40138   -995.69134    142780.44   -49035.286    3768.2422   -52803.528   0.28281189 
   99500     276.8637   -960.42846    142783.48   -48997.172    3802.0562   -52799.228   0.26062292 
   99600    275.00976   -988.88856    142785.17   -48988.783    3776.5968    -52765.38   0.28156366 
   99700    267.11664   -976.68093    142794.69   -49037.172    3668.2039   -52705.376   0.28667306 
   99800    270.58635   -985.45254    142783.83   -49049.083     3715.852   -52764.935   0.27423693 
   99900    271.29148   -963.74482    142760.06   -49100.422    3725.5352   -52825.958   0.26468995 
  100000    273.32985   -994.03561    142778.44   -49020.249    3753.5272   -52773.776   0.28796153 
Loop time of 111.674 on 6 procs for 100000 steps with 4608 atoms

Performance: 386.841 ns/day, 0.062 hours/ns, 895.465 timesteps/s
99.0% CPU use with 6 MPI tasks x no OpenMP threads

MPI task timing breakdown:
Section |  min time  |  avg time  |  max time  |%varavg| %total
---------------------------------------------------------------
Pair    | 93.723     | 94.395     | 94.834     |   4.7 | 84.53
Neigh   | 6.3765     | 6.5395     | 6.788      |   6.8 |  5.86
Comm    | 7.5736     | 8.0408     | 8.8891     |  16.2 |  7.20
Output  | 0.16874    | 0.16949    | 0.17286    |   0.4 |  0.15
Modify  | 1.844      | 1.9048     | 1.9389     |   2.5 |  1.71
Other   |            | 0.6241     |            |       |  0.56

Nlocal:        768.000 ave         779 max         757 min
Histogram: 1 1 0 1 0 0 1 0 1 1
Nghost:        1647.33 ave        1656 max        1636 min
Histogram: 1 0 0 1 0 1 1 0 1 1
Neighs:        0.00000 ave           0 max           0 min
Histogram: 6 0 0 0 0 0 0 0 0 0
FullNghs:      24065.0 ave       24457 max       23656 min
Histogram: 1 1 0 1 0 0 0 1 1 1

Total # of neighbors = 144390
Ave neighs/atom = 31.334635
Neighbor list builds = 6618
Dangerous builds = 0

undump              1
unfix               2
unfix               3
unfix               4




################################################
#######         Run Simulation         #########
################################################

reset_timestep      0
log                 log.run_${NAME}
log                 log.run_ice_274K_-1000atm_mW
