
# Set production fixes - Nose/Hoover
#
fix                 2 all nph iso ${PRES} ${PRES} ${PCOUPL}
fix                 2 all nph iso -1000 ${PRES} ${PCOUPL}
fix                 2 all nph iso -1000 -1000 ${PCOUPL}
fix                 2 all nph iso -1000 -1000 10000.0
fix                 3 all temp/csvr ${TEMP} ${TEMP} ${TCOUPL} 837492
fix                 3 all temp/csvr 274 ${TEMP} ${TCOUPL} 837492
fix                 3 all temp/csvr 274 274 ${TCOUPL} 837492
fix                 3 all temp/csvr 274 274 5000.0 837492

# Define Order parameter
#
compute             2 all orientorder/atom nnn NULL cutoff 3.5
thermo              200
thermo_style        custom step temp press vol etotal ke pe c_1[4]

# Run 1ns simulation
dump		    1 all custom 400 prod.${NAME}.dump id type x y z vx vy vz c_2[*]
dump		    1 all custom 400 prod.ice_274K_-1000atm_mW.dump id type x y z vx vy vz c_2[*]
run                 200000
Neighbor list info ...
  update every 1 steps, delay 0 steps, check yes
  max neighbors/atom: 2000, page size: 100000
  master list distance cutoff = 6.3065
  ghost atom cutoff = 6.3065
  binsize = 3.15325, bins = 18 16 16
  2 neighbor lists, perpetual/occasional/extra = 1 1 0
  (1) pair sw, perpetual
      attributes: full, newton on
      pair build: full/bin/atomonly
      stencil: full/bin/3d
      bin: standard
  (2) compute orientorder/atom, occasional, copy from (1)
      attributes: full, newton on
      pair build: copy
      stencil: none
      bin: none
Per MPI rank memory allocation (min/avg/max) = 5.839 | 5.839 | 5.839 Mbytes
Step Temp Press Volume TotEng KinEng PotEng c_1[4] 
       0    273.32985   -994.14983    142778.44   -49020.242    3753.5272   -52773.769   0.28796153 
     200    269.95831   -1045.8502    142788.75   -49011.007    3707.2274   -52718.234   0.27649223 
     400    274.03989   -987.85504    142777.38   -49005.058    3763.2779   -52768.336   0.27810775 
     600    276.44492   -957.99168    142747.87   -49041.275    3796.3052    -52837.58   0.26340225 
     800     270.0705   -1004.8138    142745.64   -49055.833    3708.7679   -52764.601    0.2865782 
    1000    273.07782   -1036.0912    142777.36   -49067.198    3750.0662   -52817.265   0.27952794 
    1200    272.39294   -1018.9654    142757.64   -49090.978     3740.661   -52831.639    0.2737888 
    1400    266.49571   -984.44078    142702.85   -49082.148    3659.6768   -52741.825   0.30463881 
    1600    271.67155   -964.21015    142694.26    -49085.43    3730.7545   -52816.184   0.26296894 
    1800    269.66789   -1018.0321     142768.8   -49090.647     3703.239   -52793.886   0.27236937 
    2000    272.76331   -1020.7203    142797.53   -49046.402    3745.7473   -52792.149   0.29420287 
    2200    276.44307   -978.96698    142745.99   -49017.618    3796.2799   -52813.898   0.26477013 
    2400    274.54121   -960.71222     142727.6   -49035.852    3770.1624   -52806.014   0.28425891 
    2600    270.79801   -1073.4387    142775.76   -49076.955    3718.7586   -52795.714   0.28878319 
    2800    273.63699    -1001.626    142761.82   -49092.627    3757.7451   -52850.372   0.27477261 
    3000    268.95509   -970.60734    142697.04   -49104.257    3693.4505   -52797.708   0.27794706 
    3200    268.97592   -991.09221    142732.12   -49053.037    3693.7365   -52746.774   0.28142643 
    3400    269.73281   -1053.8965     142907.7   -49088.169    3704.1306     -52792.3   0.27285295 
    3600    261.86177   -1110.4438    142893.14   -49115.516    3596.0409   -52711.557   0.25856303 
    3800    275.80585   -915.16453     142628.8   -49050.809    3787.5291   -52838.338   0.30058048 
    4000    273.44293   -876.16199    142604.74   -49045.814    3755.0801   -52800.894   0.28425517 
    4200    271.80051   -1105.0175     142908.6   -49057.168    3732.5254   -52789.693    0.2547767 
    4400     271.3437   -1131.6287    142978.86   -49042.528    3726.2523    -52768.78   0.28831918 
    4600    271.51687     -939.983    142683.35   -49028.266    3728.6304   -52756.897   0.26355062 
    4800    276.43172   -864.98587    142530.93   -49021.132     3796.124   -52817.256   0.27513368 
    5000    272.93432   -1018.2976    142801.25   -48998.678    3748.0957   -52746.774   0.29057331 
    5200    275.36837   -1167.4271    143091.72   -48996.129    3781.5214   -52777.651   0.25693473 
    5400    274.54069   -1071.3137    142967.86   -48960.466    3770.1553   -52730.622   0.26483514 
    5600    274.96218   -913.20303    142652.86   -48949.848    3775.9434   -52725.792   0.28635071 
    5800    276.95259   -862.08293    142631.93     -48940.5    3803.2769   -52743.777    0.2827784 
    6000    276.29885   -1041.4469    142941.65   -48923.096    3794.2993   -52717.395   0.25162082 
    6200    278.13797   -1133.1645    143080.08   -48914.106    3819.5553   -52733.661   0.27133714 
    6400    281.33152   -943.81467     142815.4   -48886.505    3863.4109   -52749.916   0.27482568 
    6600    277.37906   -873.72404    142591.76    -48928.06    3809.1335   -52737.193   0.26207929 
    6800    276.40739   -968.98626    142754.07   -48963.824    3795.7899   -52759.614   0.29356792 
    7000      276.165    -1127.966    143036.13   -48963.218    3792.4612    -52755.68   0.25367287 
    7200    280.92573   -1029.2574    142984.81    -48914.58    3857.8385   -52772.419    0.2500134 
    7400    273.40456   -967.27353    142705.09   -48903.308    3754.5532   -52657.862   0.29814804 
    7600    279.80596   -921.19404    142612.93   -48937.128     3842.461   -52779.589   0.28037736 
    7800    277.35261   -1002.9493    142844.98   -48960.567    3808.7703   -52769.337   0.27779434 
    8000    278.27687   -1125.6127     143049.8   -48925.116    3821.4627   -52746.579   0.26433998 
    8200    267.83331   -1053.3939    142881.53   -48960.846    3678.0455   -52638.892   0.27858577 
    8400    276.04598   -893.48315    142564.73   -48989.953    3790.8268    -52780.78   0.27499179 
    8600    272.83945   -898.82119    142597.61   -48950.581    3746.7928   -52697.374   0.28783472 
    8800    277.34408   -1054.4322    142975.25   -48879.303    3808.6531   -52687.956   0.27733213 
    9000    278.66916   -1161.6685    143145.05   -48855.477    3826.8499   -52682.327   0.24412572 
    9200    279.52838   -987.24342    142810.97   -48845.762    3838.6492   -52684.411   0.28630244 
    9400    274.48201   -817.94873    142496.17   -48896.853    3769.3494   -52666.202   0.29048105 
    9600    276.74024   -911.29445    142730.67   -48884.787    3800.3608   -52685.148   0.26477281 
    9800    278.98759   -1169.4081    143200.69    -48894.11    3831.2227   -52725.333   0.27088067 
   10000      278.518   -1149.8753    143158.51   -48889.272    3824.7741   -52714.046   0.25265116 
   10200     277.7584   -851.91582    142626.09   -48889.615    3814.3428   -52703.958   0.27748736 
   10400    280.45859   -806.16425    142468.74   -48880.001    3851.4234   -52731.425   0.29016363 
   10600    280.13485   -1053.6638    142966.71   -48857.307    3846.9775   -52704.285   0.26311475 
   10800    278.71115   -1205.3761    143319.57   -48880.755    3827.4265   -52708.181   0.24724185 
   11000    272.32554   -1076.2034    142944.34   -48926.142    3739.7355   -52665.877   0.26790082 
   11200    277.03889   -787.94996    142380.24   -48950.784    3804.4621   -52755.246   0.30014047 
   11400     275.4235   -875.18877    142499.97   -48976.774    3782.2786   -52759.053   0.27482718 
   11600    274.78889   -1146.2376    143126.99   -48939.638    3773.5637   -52713.201   0.27421062 
   11800    274.15447   -1245.8738    143223.72   -49006.017    3764.8515   -52770.869   0.26038511 
   12000    275.13364   -896.26969    142564.11   -49016.243     3778.298   -52794.541   0.26339808 
   12200    275.49625   -684.88024    142231.62   -49000.757    3783.2776   -52784.035   0.31328349 
   12400    277.89833   -992.16476    142794.51   -48965.168    3816.2643   -52781.432   0.26810585 
   12600    275.21061   -1317.4419    143398.27   -48964.739     3779.355   -52744.094   0.24130569 
   12800    271.55719   -1159.4871     143080.3   -48979.462     3729.184   -52708.646   0.27580157 
   13000    275.12709   -742.17344    142351.86   -48972.123    3778.2081   -52750.331    0.2800211 
   13200     273.9192   -791.60058    142411.18   -48945.999    3761.6206    -52707.62   0.29105884 
   13400    274.01758   -1150.8091    143122.37   -48955.251    3762.9716   -52718.222   0.26430806 
   13600     270.0743   -1281.9909    143331.16   -48941.152    3708.8202   -52649.972   0.25586272 
   13800    278.16431   -941.10556    142766.53   -48945.033     3819.917    -52764.95   0.26215339 
   14000    273.49946   -773.10207    142336.54   -48969.455    3755.8565   -52725.311   0.30062772 
   14200    272.85712   -933.81362    142629.61   -48992.041    3747.0354   -52739.077     0.293641 
   14400     277.1301   -1172.2686     143087.9   -49008.065    3805.7146    -52813.78   0.24720942 
   14600     270.3001   -1128.9779     142957.1   -49003.722     3711.921   -52715.643   0.28698609 
   14800    269.70417   -861.91555    142522.11   -48992.668    3703.7373   -52696.405   0.28457037 
   15000    271.74827   -858.43889     142494.9   -49043.205    3731.8081   -52775.013   0.27481349 
   15200    267.71826   -1044.6727    142839.98   -49089.138    3676.4656   -52765.603   0.28684786 
   15400    271.25331   -1138.7874       142982   -49102.575     3725.011   -52827.586   0.25275012 
   15600    269.55501   -1030.1773    142719.53   -49141.509     3701.689   -52843.198   0.27415935 
   15800    270.12495   -868.26421    142472.21   -49098.855    3709.5157    -52808.37   0.29127078 
   16000    274.04848   -921.47531    142648.26   -49085.424     3763.396    -52848.82   0.26250415 
   16200    273.34188   -1127.1874     142994.2   -49031.523    3753.6925   -52785.215   0.25797362 
   16400    276.28892   -1107.8691    143008.32   -49027.272     3794.163   -52821.435   0.25987288 
   16600    271.90662   -985.46969    142714.35   -49048.093    3733.9826   -52782.076   0.28621972 
   16800    273.07861   -875.20264    142528.48   -49007.703    3750.0771    -52757.78   0.28051879 
   17000    271.54537   -1015.6014    142722.56   -49027.183    3729.0217   -52756.204   0.28977934 
   17200    272.82899    -1121.001    142960.05   -49006.968    3746.6491   -52753.617   0.27231192 
   17400    268.45912   -1109.0711    142894.69     -49050.8    3686.6395    -52737.44   0.25541889 
   17600    270.39944   -957.15806    142600.45   -49090.376    3713.2852   -52803.661   0.29844938 
   17800    274.95902   -898.64527    142492.77   -49109.779       3775.9   -52885.679   0.28040516 
   18000    267.49296   -1003.5514       142690   -49137.843    3673.3716   -52811.215    0.2706366 
   18200    267.72466   -1113.7647    142858.81   -49159.081    3676.5535   -52835.634   0.28222734 
   18400    264.73457   -1003.0723    142710.53   -49179.758    3635.4918    -52815.25   0.26201239 
   18600    272.61765   -873.26371    142499.01     -49142.6    3743.7469   -52886.347   0.27949857 
   18800    269.55669   -982.17673    142606.77   -49079.778     3701.712    -52781.49   0.28725797 
   19000    269.21103   -1145.6683    142865.95   -49102.234    3696.9653     -52799.2   0.27371758 
   19200    274.30222   -1065.4011    142873.02   -49077.389    3766.8804   -52844.269   0.26502999 
   19400    272.53717   -917.24369    142640.83    -49071.48    3742.6417   -52814.122   0.28183006 
   19600    268.56042   -929.06661    142585.44   -49099.395    3688.0306   -52787.426    0.2923774 
   19800    273.91736   -977.59429    142795.85   -49094.299    3761.5953   -52855.894   0.25385844 
   20000    271.11282   -1094.1719    142930.28   -49082.098    3723.0817    -52805.18   0.27976054 
   20200    265.10093   -1060.7451    142756.75   -49108.945    3640.5229   -52749.468   0.27798336 
   20400    268.20833   -886.32543    142533.23   -49092.451    3683.1955   -52775.646   0.26617992 
   20600    269.48079   -934.29472    142617.77   -49088.362    3700.6697   -52789.032   0.29649562 
   20800    269.79117   -1100.1644    142874.01   -49086.179    3704.9321   -52791.111   0.27388677 
   21000    268.48613   -1064.8802    142883.54    -49081.18    3687.0105   -52768.191   0.26450452 
   21200    270.61804   -946.99796    142615.04   -49075.508    3716.2871   -52791.795   0.28295013 
   21400    274.34626   -891.97258    142523.56   -49072.947    3767.4852   -52840.432   0.27689616 
   21600    266.29598   -999.37635    142828.47   -49026.211     3656.934   -52683.145   0.26829047 
   21800    273.65703   -1152.7001    143076.75   -48976.676    3758.0203   -52734.697   0.26162084 
   22000    275.58408     -1009.25    142853.69   -48985.372    3784.4838   -52769.856   0.27733615 
   22200     277.9695   -843.66497    142512.01   -48953.134    3817.2417   -52770.376   0.27608157 
   22400     273.7011   -878.31147    142628.18    -48930.31    3758.6255   -52688.935   0.28821751 
   22600    272.11109   -1169.5497     143080.6   -48929.767    3736.7905   -52666.558   0.27083776 
   22800    272.76477    -1211.065     143126.7    -48962.61    3745.7672   -52708.377   0.24569168 
   23000    271.06315   -896.03221    142600.78   -48985.817    3722.3996   -52708.216    0.2974917 
   23200    276.50594   -783.33371    142313.99   -48984.885    3797.1432   -52782.028   0.29918127 
   23400    274.63985   -1001.4708    142785.23   -48986.943    3771.5169    -52758.46   0.26627184 
   23600    276.40213   -1265.6038    143272.09    -48994.25    3795.7177   -52789.968   0.26285102 
   23800     274.0882   -1030.4834    142956.39   -48940.667    3763.9414   -52704.608    0.2642347 
   24000    272.29892   -737.42711    142362.74   -48984.026    3739.3699   -52723.396   0.28366442 
   24200     271.2956   -839.82506    142477.92   -48968.231    3725.5918   -52693.823   0.29369546 
   24400    275.16007   -1170.8341    143153.23   -48964.308    3778.6609   -52742.969   0.27147598 
   24600    272.92831   -1233.2164    143288.86   -48959.806     3748.013   -52707.819   0.25745405 
   24800    281.64895   -844.18259    142606.06   -48898.595    3867.7701   -52766.365   0.28770044 
   25000    277.36348   -658.31787    142249.76   -48900.828    3808.9195   -52709.747   0.30515501 
   25200     277.4053      -1000.5    142839.46   -48918.227    3809.4937    -52727.72   0.25540636 
   25400    273.96322   -1331.2943    143422.41   -48966.747    3762.2251   -52728.972   0.25926555 
   25600    274.68187   -1102.4401     143039.3   -48994.799    3772.0941   -52766.893   0.27298562 
   25800    277.19337   -751.93319    142292.78   -48984.637    3806.5834   -52791.221    0.2787122 
   26000    275.23447   -769.02952    142384.44   -48963.638    3779.6827   -52743.321   0.30731763 
   26200    276.72428   -1193.3691    143106.07   -48997.864    3800.1417   -52798.006   0.26381288 
   26400    273.52657   -1236.9724    143282.12   -49014.886    3756.2288   -52771.115   0.24648854 
   26600    271.99292   -963.32135    142709.33   -49032.776    3735.1677   -52767.943   0.28000446 
   26800    273.93096   -734.16011    142326.25   -49042.531    3761.7821   -52804.313   0.29846049 
   27000    270.81456   -949.51748    142665.41   -49039.172    3718.9858   -52758.158   0.27456885 
   27200    273.61902    -1184.928     143110.6   -49026.462    3757.4983    -52783.96   0.26183258 
   27400      273.247   -1095.1449    142954.89   -48995.072    3752.3896   -52747.462   0.28126656 
   27600    273.36843   -901.59021    142533.75    -49005.43    3754.0571   -52759.487   0.27681437 
   27800    276.04814   -853.14995    142518.46   -49002.747    3790.8565   -52793.603   0.28424755 
   28000    275.39237   -1067.0368    142914.41   -48985.823     3781.851   -52767.674   0.28399447 
   28200    274.68173   -1130.1777    143067.58   -49001.175     3772.092   -52773.267   0.24468959 
   28400    272.58436   -994.50481    142800.33   -49000.856    3743.2898   -52744.146    0.2856962 
   28600    272.72413   -871.27565    142571.62   -49024.545    3745.2091   -52769.754   0.29376077 
   28800    278.41063   -909.03977    142719.58   -49033.939    3823.2996   -52857.239   0.26435792 
   29000    271.35985   -1117.0774    142987.62   -49065.023    3726.4741   -52791.497   0.27359836 
   29200     271.0662   -1063.4422     142918.4   -49099.026    3722.4415   -52821.467   0.26251219 
   29400    271.57035   -950.45358    142641.86   -49104.538    3729.3648   -52833.902   0.27389363 
   29600    272.73449   -930.04021    142591.25   -49069.131    3745.3515   -52814.482   0.28479891 
   29800    274.71161   -1022.4301    142845.02    -48992.62    3772.5024   -52765.123   0.28231916 
   30000    274.99301   -1130.1437    143033.13   -48980.396    3776.3668   -52756.763   0.26262807 
   30200    274.46293   -1035.9928    142878.46   -48991.746    3769.0874   -52760.833   0.27399495 
   30400    274.97925   -906.29859    142644.88   -49044.576    3776.1778   -52820.754   0.29161937 
   30600    275.02906   -908.59357    142657.26   -48994.372    3776.8619   -52771.234   0.25909828 
   30800    278.64193   -1015.7131    142910.69   -48959.226    3826.4759   -52785.702   0.28011737 
   31000    273.95916   -1120.5417    143031.12   -48944.306    3762.1694   -52706.475   0.28260652 
   31200    273.33757   -996.37189    142795.49   -48950.272    3753.6334   -52703.906   0.26117057 
   31400      272.678   -886.49488    142607.25    -48951.04    3744.5757   -52695.615   0.29943233 
   31600    272.19838   -982.52618    142747.59   -49007.276    3737.9892   -52745.266   0.27593579 
   31800    274.02235   -1090.9012    142949.86   -48977.044    3763.0371   -52740.081   0.26921876 
   32000    274.06964   -1042.3712     142920.6   -48948.789    3763.6865   -52712.475   0.28237255 
   32200    272.33499   -1011.3621    142702.73   -48984.503    3739.8653   -52724.368   0.30192978 
   32400    271.47709   -898.03994    142559.59   -48980.055    3728.0841   -52708.139    0.2806605 
   32600    274.47313   -1014.8716    142739.16   -48964.564    3769.2275   -52733.792   0.28667918 
   32800    274.25989   -1100.6892    142964.67   -48956.892    3766.2992   -52723.191   0.28733414 
   33000    279.20633   -1031.7657    142870.94   -48947.406    3834.2265   -52781.633   0.26022272 
   33200    274.26798   -960.61463    142580.29   -48945.821    3766.4102   -52712.232   0.30176969 
   33400    277.23938   -884.19905    142550.91   -48908.312    3807.2152   -52715.527   0.30122155 
   33600    283.77445   -1052.1246    142894.02   -48841.491    3896.9587    -52738.45   0.26825197 
   33800    281.91926   -1140.7931    143070.09   -48870.033    3871.4821   -52741.515   0.27579883 
   34000    280.68934   -993.48958    142769.09   -48894.758    3854.5922   -52749.351   0.27976904 
   34200    279.74157   -842.78845    142464.25   -48928.911    3841.5768   -52770.488   0.29085024 
   34400    273.42468   -918.68471    142638.98   -48989.012    3754.8296   -52743.842   0.28697153 
   34600    276.25872    -1155.784    143051.99    -48957.55    3793.7482   -52751.298   0.27014059 
   34800    269.25699   -1152.3695    143020.09   -48995.474    3697.5964   -52693.071   0.26960912 
   35000    267.76392   -897.97824    142538.91   -49026.085    3677.0927   -52703.178    0.2979481 
   35200    274.59679    -816.3768    142361.19   -49017.919    3770.9257   -52788.845   0.30263708 
   35400    275.70555   -972.88482     142775.9   -48976.355    3786.1518   -52762.507   0.27336692 
   35600    268.29423    -1212.992    143167.94   -48964.167    3684.3752   -52648.542   0.27145904 
   35800    271.97431   -1049.0859    142915.12   -48968.593    3734.9121   -52703.505   0.28150135 
   36000    274.14064   -829.68293    142430.76   -48976.287    3764.6616   -52740.948   0.28119882 
   36200    278.12179   -791.76516    142469.97   -48990.904     3819.333   -52810.237   0.28734133 
   36400    272.16253   -1107.0861    142958.03   -49009.828    3737.4969   -52747.325   0.27791687 
   36600    276.00241   -1186.9676    143125.08    -48982.35    3790.2285   -52772.578   0.26545804 
   36800    276.77001   -992.99702    142711.43   -49031.099    3800.7696   -52831.869   0.28331944 
   37000     276.7121   -821.88983    142357.52   -49026.241    3799.9744   -52826.215   0.29756993 
   37200    274.67495   -919.14836    142633.17    -48986.41    3771.9989   -52758.409   0.27423523 
   37400    273.03607    -1217.789       143121   -48971.014    3749.4929   -52720.507   0.27148703 
   37600    270.33788   -1203.1896    143032.25   -48997.077    3712.4398   -52709.517   0.28274892 
   37800    275.51457   -802.90871    142509.61   -48972.055    3783.5292   -52755.585   0.27688867 
   38000    269.29863   -797.87011    142414.71     -49025.4    3698.1682   -52723.568   0.28728265 
   38200    275.06866   -1065.7876     142890.2   -49013.893    3777.4057   -52791.299   0.27267442 
   38400    277.53543   -1201.5056    143161.56   -48976.365    3811.2808   -52787.646   0.25777752 
   38600    276.96851   -1008.6345    142834.18   -48978.305    3803.4955   -52781.801   0.27374424 
   38800    273.18835   -792.02647    142460.32   -49031.408    3751.5842   -52782.993   0.29883738 
   39000    273.34814   -922.87789    142638.83   -49056.447    3753.7785   -52810.225   0.27201719 
   39200    271.61963   -1165.4599    143056.92   -49069.259    3730.0415     -52799.3   0.26070535 
   39400    271.35715   -1143.7096    143013.89   -49060.385     3726.437   -52786.822   0.26542635 
   39600    269.50743   -955.33859    142556.02   -49134.316    3701.0355   -52835.351   0.27576067 
   39800    266.87516   -844.42369    142385.83   -49126.901    3664.8876   -52791.788   0.29026826 
   40000    274.99061   -1010.9329     142787.3   -49134.481    3776.3339   -52910.815   0.27240709 
   40200    270.87273   -1180.9265    143107.65   -49105.273    3719.7846   -52825.058   0.25843264 
   40400    269.18099   -1018.1962    142815.32   -49104.208    3696.5527    -52800.76   0.27755334 
   40600    266.45327   -864.12228       142399   -49137.733     3659.094   -52796.827   0.29470103 
   40800    265.61782   -908.23054    142533.12   -49153.989    3647.6211    -52801.61   0.27987316 
   41000     266.5868   -1173.9046    142989.82   -49105.534    3660.9278   -52766.462   0.26884481 
   41200    272.40889   -1157.8009    143040.01    -49135.49    3740.8801    -52876.37   0.27043122 
   41400    268.46341    -925.0397    142598.92   -49108.331    3686.6985   -52795.029   0.28390983 
   41600    274.42198   -764.31655    142355.59   -49106.973    3768.5251   -52875.498   0.28829173 
   41800    269.49954   -984.88962    142697.76   -49102.061    3700.9272   -52802.988   0.28033221 
   42000    274.37232    -1183.851    143099.17   -49069.637    3767.8431    -52837.48   0.25179903 
   42200    269.35822   -1128.1662    142919.99   -49096.384    3698.9866    -52795.37    0.2778273 
   42400    271.62043   -896.62893    142414.43   -49151.653    3730.0525   -52881.706   0.30015478 
   42600    266.56895   -818.16792    142320.17   -49177.114    3660.6826   -52837.797   0.28424534 
   42800    270.91674   -1058.8552    142779.95   -49171.975     3720.389   -52892.364   0.27936883 
   43000    268.94144    -1171.416    143076.59   -49123.637    3693.2631     -52816.9   0.26223855 
   43200    269.92712   -1029.5908    142784.17     -49131.1     3706.799   -52837.899   0.27505056 
   43400    270.68973   -796.46012    142392.21   -49129.074    3717.2716   -52846.345   0.29284099 
   43600    269.65669   -932.53999    142540.34   -49123.377    3703.0853   -52826.463   0.28653756 
   43800    270.80543   -1089.3087    142994.79   -49091.263    3718.8605   -52810.124   0.27005146 
   44000    274.11573   -1182.9404    143051.82   -49107.161    3764.3195    -52871.48   0.25772656 
   44200    270.15841   -921.77669    142593.65   -49154.797    3709.9752   -52864.772   0.28894776 
   44400    271.96008    -818.4998    142345.78   -49135.207    3734.7168   -52869.924   0.29397252 
   44600    273.11042   -1036.6728    142728.23   -49070.638     3750.514   -52821.152   0.27103692 
   44800    268.89433   -1203.2426    143180.05    -49029.96     3692.616   -52722.576   0.26595201 
   45000    272.98064    -1112.346    143024.47   -49066.825    3748.7317   -52815.557   0.25929791 
   45200    272.67742   -882.62489    142505.58   -49094.717    3744.5678   -52839.284   0.28541882 
   45400     272.3946   -817.36766    142437.98   -49142.833    3740.6838   -52883.517   0.28758568 
   45600    271.58142    -1054.324    142914.75   -49125.757    3729.5168   -52855.274   0.26521534 
   45800    262.92637   -1193.3474    143141.88   -49096.308    3610.6606   -52706.968   0.26652561 
   46000    272.93253   -1057.3777    142738.16   -49100.583    3748.0711   -52848.654    0.2786694 
   46200    270.67537   -786.49268    142352.46   -49136.725    3717.0743     -52853.8   0.29603972 
   46400    271.04018   -929.20297    142597.76   -49118.984    3722.0842   -52841.069   0.27652543 
   46600    273.29458   -1206.4104    143064.48   -49108.878     3753.043   -52861.921   0.26569569 
   46800    273.61984    -1146.989    142989.89   -49075.522    3757.5096   -52833.031   0.27323347 
   47000    271.74424   -871.93907    142500.24   -49062.594    3731.7527   -52794.347   0.28653255 
   47200    274.38329    -831.4257    142415.96   -49036.738    3767.9937   -52804.731   0.30044901 
   47400    275.50326   -1041.3881    142852.72   -48964.913    3783.3738   -52748.287   0.26089364 
   47600    274.45469   -1167.5894    143126.09   -48934.273    3768.9743   -52703.247   0.25776959 
   47800    276.73167   -1034.3151    142840.48   -48908.982     3800.243   -52709.225   0.28698695 
   48000    274.58059   -852.57975    142516.96   -48915.343    3770.7032   -52686.046   0.29243019 
   48200    280.41455   -920.32613    142677.08   -48914.734    3850.8185   -52765.552   0.27647179 
   48400    276.84026   -1148.1147    143046.34   -48889.921    3801.7344   -52691.656   0.26754817 
   48600    271.21754   -1141.6072    143013.06   -48950.499    3724.5198   -52675.019    0.2671708 
   48800    278.73555   -938.24043    142610.07   -48900.747    3827.7615   -52728.508   0.28292145 
   49000    275.03004   -835.22629    142479.71   -48880.872    3776.8753   -52657.748   0.31057298 
   49200    274.49608   -1031.9812    142835.25   -48908.628    3769.5426   -52678.171   0.28566801 
   49400     276.8683   -1167.5617    143099.36   -48913.757    3802.1193   -52715.876   0.25330228 
   49600    273.48318   -1081.6297    142871.29   -48932.217    3755.6329    -52687.85   0.28682508 
   49800    274.48318   -890.67456    142514.35   -48917.404    3769.3655   -52686.769   0.28992271 
   50000    276.88817   -936.63396    142565.95   -48918.793    3802.3923   -52721.185   0.28383569 
   50200    275.06398   -1062.5454    142930.84   -48947.835    3777.3414   -52725.177   0.28523424 
   50400    276.36698   -1116.2252    143027.61   -48949.273    3795.2349   -52744.508      0.26728 
   50600    276.95123   -951.22799    142694.52   -48974.289    3803.2582   -52777.548    0.2879947 
   50800    277.05831    -840.4382    142450.07   -48988.455    3804.7287   -52793.184   0.29494953 
   51000    273.32394   -986.26774    142654.96   -48925.148    3753.4462   -52678.595   0.28870272 
   51200    274.08866   -1111.6165    142990.15   -48948.248    3763.9477   -52712.195   0.26868475 
   51400    276.79595   -1034.6122    142943.93   -48913.331    3801.1258   -52714.456   0.27053258 
   51600    276.94971   -894.75006     142671.7   -48919.442    3803.2374    -52722.68   0.29047331 
   51800    276.78315   -905.12267    142629.84   -48917.441    3800.9501   -52718.391   0.27878569 
   52000    275.43052   -1033.3787    142860.99   -48877.522    3782.3749   -52659.897   0.28375086 
   52200    278.23652   -1110.5451    142997.58   -48848.699    3820.9085   -52669.608   0.28040728 
   52400     276.3567   -1025.9077    142824.12   -48832.257    3795.0938    -52627.35   0.28454393 
   52600    276.84754   -886.69863     142613.1    -48870.75    3801.8343   -52672.585   0.30661269 
   52800    273.90318   -1016.5174    142727.73   -48887.401    3761.4006   -52648.801   0.28244645 
   53000    279.00427   -1111.2604    142995.37   -48889.605    3831.4518   -52721.056    0.2757609 
   53200     276.3881    -1085.571    143010.37   -48896.889     3795.525   -52692.414   0.26569102 
   53400    274.63345   -933.41404    142746.26   -48929.205    3771.4291   -52700.634    0.2760129 
   53600    279.63637   -886.29268    142602.95   -48958.148    3840.1322    -52798.28   0.29018291 
   53800    276.15421   -1001.4844    142830.26   -48933.043     3792.313   -52725.356   0.27280355 
   54000    274.95085   -1135.7018     143082.2   -48920.258    3775.7877   -52696.045   0.27499892 
   54200    275.95993   -1049.8482    142964.08   -48929.622    3789.6451   -52719.267   0.26393326 
   54400    277.83499   -922.52355    142640.43   -48961.098    3815.3945   -52776.493   0.28265249 
   54600    273.05969   -866.09923    142616.56   -48957.623    3749.8173   -52707.441   0.29712661 
   54800    280.36852   -1094.9637    143032.81   -48899.896    3850.1865   -52750.082   0.25769159 
   55000    274.99406   -1238.4861    143201.67   -48898.409    3776.3811    -52674.79    0.2723008 
   55200    275.09049   -946.24567    142751.42   -48932.697    3777.7054   -52710.402   0.27697102 
   55400    275.72175   -790.40613    142359.15   -48961.114    3786.3743   -52747.488   0.29878113 
   55600    270.17032    -967.2303    142690.77   -48992.032    3710.1388    -52702.17    0.3024713 
   55800    274.44446   -1198.1151    143216.19   -48957.325    3768.8337   -52726.159   0.25972611 
   56000     279.6599   -1119.6967    143109.91   -48944.925    3840.4553    -52785.38   0.27510609 
   56200    277.48211   -841.60002    142545.27   -48985.137    3810.5486   -52795.686   0.28115842 
   56400    275.18191     -757.407    142425.77   -48989.447    3778.9608   -52768.408   0.29534199 
   56600    274.84444     -1055.88    142953.76   -48987.329    3774.3265   -52761.655   0.27041328 
   56800    278.57015   -1228.1151    143282.54   -48934.071    3825.4902   -52759.562   0.24682564 
   57000    274.38104   -1047.3936     142866.8   -48947.522    3767.9629   -52715.485   0.28510074 
   57200    272.31381   -795.74275     142368.5   -48982.883    3739.5745   -52722.458   0.29580561 
   57400    273.87912   -867.76424    142586.73   -48999.129    3761.0702     -52760.2   0.28712929 
   57600    275.86839   -1194.6356    143191.39    -48980.07     3788.388   -52768.458   0.25938629 
   57800    274.08679   -1228.0798    143221.93   -48990.539    3763.9221   -52754.461   0.25236368 
   58000    276.47294   -885.26965    142616.66   -49012.437      3796.69   -52809.127   0.28903414 
   58200     270.2016   -806.39963    142327.06   -49054.292    3710.5683    -52764.86   0.29191881 
   58400    272.06293   -1002.1211     142754.8   -49041.968    3736.1292   -52778.097   0.28741973 
   58600    271.08621   -1246.1317    143229.83   -49014.094    3722.7163    -52736.81   0.25943623 
   58800    272.35166   -1142.0299    143015.68   -49046.847    3740.0942   -52786.941   0.26941162 
   59000    272.70226   -839.25475    142425.85    -49077.54    3744.9089   -52822.449   0.30050883 
   59200    273.11341   -814.76153     142365.1   -49079.379    3750.5551   -52829.934   0.28397968 
   59400    272.07313   -1069.5517    142934.08   -49018.029    3736.2692   -52754.299    0.2810348 
   59600    272.07239   -1238.0882    143283.12   -49008.165    3736.2591   -52744.424   0.25065794 
   59800    277.64134   -1046.6542    142878.98   -49001.377    3812.7352   -52814.113   0.26548897 
   60000    278.32637   -756.56013    142376.41   -48996.171    3822.1425   -52818.314   0.29928171 
   60200    277.79331    -887.0237    142599.32   -48969.477    3814.8221   -52784.299   0.27812409 
   60400    277.33427   -1150.1622    143177.38   -48930.903    3808.5183   -52739.422   0.26496772 
   60600    277.86312     -1193.02    143208.84   -48968.037    3815.7808   -52783.818   0.26027448 
   60800    279.69621    -902.5995       142703   -48918.354    3840.9539   -52759.308   0.27948974 
   61000    279.63022   -830.80913     142504.3   -48959.894    3840.0477   -52799.941   0.28461978 
   61200    273.37736   -994.03622     142837.6   -48959.826    3754.1797   -52714.006    0.2823871 
   61400    272.92588   -1136.6962    143122.95   -48953.132    3747.9797   -52701.111   0.26596546 
   61600    276.21485   -1051.6071    142973.66   -48946.714    3793.1458    -52739.86   0.26048455 
   61800    275.98979   -918.93525    142684.09   -48951.094    3790.0552   -52741.149   0.28636282 
   62000    270.03903   -933.87284    142669.09   -48974.962    3708.3358   -52683.297    0.2833497 
   62200    272.95212    -990.9789    142878.98   -48982.098      3748.34   -52730.438   0.26775572 
   62400    271.99162   -1105.0052    142976.48   -48941.806    3735.1499   -52676.956   0.28549688 
   62600    275.13051   -990.25289    142808.47   -48962.413     3778.255   -52740.668   0.27479795 
   62800    277.84554   -940.56609    142634.73   -48940.926    3815.5395   -52756.465   0.28199047 
   63000    272.12058   -931.62382    142758.54   -48907.608    3736.9208   -52644.529   0.29269287 
   63200    275.67689   -1114.2603    143006.21   -48907.661    3785.7582    -52693.42   0.26714756 
   63400    280.40199   -1107.9868    142960.31   -48867.512    3850.6461   -52718.158   0.27388512 
   63600    276.07692   -947.66931    142723.26   -48852.205    3791.2517   -52643.456   0.28486215 
   63800    278.89609   -932.01553    142679.27   -48879.689    3829.9662   -52709.655   0.28616195 
   64000    279.02246   -1042.1402    142852.55   -48870.899    3831.7015   -52702.601   0.28046193 
   64200    275.66819     -1092.14    142947.64    -48870.02    3785.6387   -52655.658   0.28336816 
   64400    277.43185   -1022.3326    142785.66   -48859.853    3809.8584   -52669.712   0.28947273 
   64600     277.0366   -939.55656    142627.34    -48914.77    3804.4305   -52719.201   0.27889113 
   64800    272.51052   -965.35089     142733.1    -48923.09    3742.2758   -52665.366   0.29409074 
   65000    275.42485   -1090.3764    142949.67   -48910.048    3782.2971   -52692.345   0.26945131 
   65200    277.92516   -1079.4893    142947.71   -48936.674    3816.6328   -52753.306   0.25803355 
   65400    276.91296   -961.21712     142748.9   -48964.011    3802.7327   -52766.744    0.2902076 
   65600    277.50819   -868.04457    142617.27    -48989.76    3810.9067   -52800.667   0.27958566 
   65800    272.87506   -1005.1431    142762.38   -48964.007    3747.2819   -52711.289   0.28006309 
   66000    276.04029    -1125.842    142983.14   -48960.598    3790.7486   -52751.347    0.2741318 
   66200    274.29233   -1074.2986    142940.71   -48984.666    3766.7446   -52751.411   0.26439762 
   66400    280.26858   -907.02089    142678.11   -48984.588    3848.8141   -52833.402   0.27470498 
   66600    274.69623   -911.77738    142650.02   -48998.478    3772.2912   -52770.769    0.2846691 
   66800    274.76509   -1028.4532    142949.27   -48977.897    3773.2368   -52751.134   0.27368262 
   67000    274.89275   -1126.9396    143106.21   -49003.167    3774.9899   -52778.157   0.25525461 
   67200    275.17142   -993.99808    142840.39   -49027.826    3778.8169   -52806.643   0.26917318 
   67400    273.30072   -863.00128    142527.45   -49064.235    3753.1272   -52817.363   0.29029884 
   67600    274.61257   -919.68136    142622.05   -49022.151    3771.1424   -52793.294   0.27522482 
   67800    276.76164   -1122.6207    143021.73   -48966.526    3800.6547   -52767.181   0.27552523 
   68000     274.3914   -1142.4078    143080.62   -48960.045    3768.1051    -52728.15    0.2662931 
   68200    273.13011   -955.79174    142649.25   -49034.785    3750.7844    -52785.57   0.27099716 
   68400    274.34586   -776.36598     142370.1   -48985.732    3767.4798   -52753.212   0.29330118 
   68600    273.94691   -988.77794    142761.02   -48966.875    3762.0011   -52728.876   0.27763736 
   68800     275.7867   -1234.3743    143255.26   -48927.831    3787.2662   -52715.097   0.25227327 
   69000    272.67652   -1155.5455       143081   -48972.607    3744.5553   -52717.162   0.26176734 
   69200    278.28509   -784.47561    142448.44   -48987.186    3821.5755   -52808.762   0.28765411 
   69400    276.44731    -788.3748    142376.62   -49025.433     3796.338   -52821.771    0.2835892 
   69600    272.78459   -1115.8343     143009.9   -49029.454    3746.0394   -52775.493   0.26047232 
   69800    274.31441   -1296.6501    143340.85   -48991.112    3767.0478    -52758.16   0.25856953 
   70000    279.06764   -986.12793    142790.47   -48961.596     3832.322   -52793.918   0.26554126 
   70200    275.61569   -706.52405    142236.38     -48953.5    3784.9178   -52738.418   0.29340618 
   70400    277.76468   -874.36333    142630.47    -48963.43     3814.429   -52777.859   0.28332536 
   70600    276.19136   -1330.6971    143365.61   -48925.524    3792.8232   -52718.347    0.2531893 
   70800    274.09648   -1204.5767    143245.34   -48949.542    3764.0551   -52713.598    0.2531807 
   71000    270.40862   -826.21287     142459.3   -49003.096    3713.4113   -52716.507   0.28817698 
   71200    270.31156   -727.59478    142216.54   -49015.136    3712.0784   -52727.215   0.29446322 
   71400    275.43799   -1043.8713    142866.38    -48976.24    3782.4775   -52758.718    0.2705138 
   71600    273.76226   -1265.7889    143356.84   -48945.914    3759.4653    -52705.38   0.25820379 
   71800    274.61992   -1081.6456    142944.86   -48971.214    3771.2433   -52742.457   0.26648049 
   72000    276.88514   -778.44867    142364.89   -49003.302    3802.3507   -52805.653   0.28364865 
   72200    277.65427   -890.62262    142485.71   -49036.246    3812.9128   -52849.159   0.29738611 
   72400      271.749   -1069.7383    142934.54   -49011.118    3731.8181   -52742.936   0.25885885 
   72600    275.98014   -1108.7279     143016.3   -48977.022    3789.9227   -52766.945   0.25620773 
   72800    272.30948   -961.38272     142738.9   -49053.294    3739.5149   -52792.809   0.28048243 
   73000    268.83902   -920.15169    142553.49   -49053.861    3691.8566   -52745.718   0.27991512 
   73200    271.10689    -980.5275    142675.65   -49065.675    3723.0003   -52788.676   0.28589955 
   73400    271.99861   -1052.8988    142890.98   -49057.986     3735.246   -52793.232   0.27611273 
   73600    268.07593   -1049.8659     142888.4   -49041.959    3681.3773   -52723.337   0.26447396 
   73800      279.753   -949.97534    142720.93   -49040.022    3841.7338   -52881.756   0.27027221 
   74000    269.32059   -921.75638       142668    -49085.95    3698.4697    -52784.42   0.27874728 
   74200    272.90647    -1006.035    142810.55   -49081.091    3747.7132   -52828.804   0.27041296 
   74400    268.73406   -1088.6771    142887.45   -49044.018    3690.4152   -52734.433   0.26539124 
   74600    273.14435   -989.24211    142782.21   -49068.186    3750.9799   -52819.166   0.27467902 
   74800    270.99456   -984.63217     142703.3   -49078.435    3721.4577   -52799.893   0.27708176 
   75000    272.80373   -977.07205    142765.58   -49043.997    3746.3023   -52790.299   0.26188109 
   75200    274.17612    -1067.553    142876.48   -49029.096    3765.1488   -52794.245   0.28630177 
   75400    274.26297   -1019.5935    142858.72    -49018.08    3766.3414   -52784.421   0.26782534 
   75600    275.10075   -956.45386    142752.26   -48999.609    3777.8463   -52777.455   0.26933826 
   75800    279.21398   -922.01129    142748.94   -48978.777    3834.3316   -52813.108   0.28517013 
   76000    275.65733   -1024.3891    142864.27   -48963.842    3785.4896   -52749.332    0.2693073 
   76200     276.0535   -1051.4396    142897.28   -48987.804      3790.93   -52778.734   0.27485248 
   76400    280.33284   -1005.6329    142756.78    -48960.65    3849.6965   -52810.347   0.27773705 
   76600    275.72492   -918.85149    142660.78   -48949.188    3786.4178   -52735.605    0.2830279 
   76800    279.23482   -963.55863    142782.21    -48946.67    3834.6178   -52781.287   0.27627532 
   77000    274.88667   -1071.8369    142937.36   -48945.975    3774.9064   -52720.881   0.27278345 
   77200    272.63838   -1031.8235     142862.7   -48990.211    3744.0315   -52734.242   0.28354101 
   77400    273.91178   -936.73988    142667.59   -48984.056    3761.5187   -52745.575    0.2739666 
   77600    271.50156   -935.78092    142679.59   -48998.523    3728.4202   -52726.943   0.28929754 
   77800    277.67241   -1075.2752    142877.53   -49007.999    3813.1619   -52821.161   0.27144531 
   78000    272.83947   -1109.5206    142923.51   -49006.143     3746.793   -52752.936   0.26353393 
   78200    273.90556    -1005.979    142709.65   -49003.779    3761.4333   -52765.212   0.28953433 
   78400    269.19109   -875.47015    142581.27   -49025.229    3696.6914    -52721.92   0.27709463 
   78600    273.61683    -1034.633    142788.95   -49040.815    3757.4682   -52798.284   0.27890335 
   78800    270.56494   -1132.9717    143012.63   -49022.887    3715.5579   -52738.445   0.26704339 
   79000    276.27809   -1009.1226    142860.06   -49008.049    3794.0142   -52802.063   0.26024267 
   79200    273.21106   -871.27032     142540.4   -49023.404     3751.896     -52775.3   0.29215781 
   79400    272.06208   -889.51817    142628.91   -48978.853    3736.1175    -52714.97   0.26731111 
   79600    277.71603   -1135.0379    143098.34   -48963.154    3813.7609   -52776.915   0.26076098 
   79800     276.0918   -1163.7888     143183.7    -48985.76     3791.456   -52777.216   0.25676607 
   80000    272.66098    -944.8967    142658.45   -48966.609     3744.342   -52710.951   0.27544676 
   80200    274.18625   -765.89899    142303.81   -48937.887    3765.2878   -52703.175   0.29987196 
   80400     276.7806   -956.71389     142768.7   -48904.687     3800.915   -52705.602   0.26641973 
   80600    274.08805   -1309.4133    143371.62   -48913.311    3763.9393   -52677.251   0.25859699 
   80800    276.25234   -1182.3307    143143.56   -48863.176    3793.6606   -52656.836   0.26143361 
   81000    283.02646   -797.13475    142433.43   -48923.645    3886.6869   -52810.332   0.29009068 
   81200    272.24276   -775.37763    142397.47   -48905.505    3738.5987   -52644.104   0.30275819 
   81400    278.00402   -1155.2585    143087.42   -48872.815    3817.7158   -52690.531   0.25112801 
   81600    279.71354   -1301.5894    143365.05   -48886.272    3841.1919   -52727.464   0.25197264 
   81800    278.03186   -966.06083    142811.04   -48897.522    3818.0981    -52715.62   0.26915833 
   82000    283.40585   -750.47882    142321.76   -48873.757    3891.8969   -52765.654   0.29565964 
   82200    278.13979   -885.16332    142636.74   -48912.511    3819.5802   -52732.091   0.28759945 
   82400    277.67976   -1212.2803    143219.17   -48904.968    3813.2628   -52718.231   0.25247983 
   82600    273.12225   -1215.0174    143162.06   -48945.951    3750.6764   -52696.628   0.27334927 
   82800    268.78412   -889.77018    142568.49   -48992.262    3691.1026   -52683.364   0.28558656 
   83000    273.68058   -781.24106    142369.27   -48980.351    3758.3437   -52738.695   0.28900948 
   83200    275.30277   -1019.2173    142869.69   -48993.776    3780.6205   -52774.397   0.27257165 
   83400    273.74039    -1264.662    143253.79   -49006.033    3759.1651   -52765.198   0.25066955 
   83600    269.34549   -1060.2303    142888.96   -49025.882    3698.8117   -52724.694   0.27886098 
   83800    275.67313   -777.51487    142380.42   -48986.516    3785.7066   -52772.223   0.28368088 
   84000    276.80628   -899.82965    142530.92   -49015.085    3801.2677   -52816.353   0.29555877 
   84200    273.12435   -1141.0969    143078.95   -48995.289    3750.7052   -52745.995   0.25836113 
   84400    272.78754   -1198.6061    143162.29   -48996.087      3746.08   -52742.167   0.25173419 
   84600    275.60584   -916.22621    142663.09   -49001.235    3784.7826   -52786.017   0.29294128 
   84800    273.95064   -786.42941    142421.17   -49015.071    3762.0523   -52777.123   0.27497569 
   85000    277.05411   -1002.1237     142811.5   -48976.378     3804.671   -52781.049    0.2658886 
   85200    274.63807   -1188.4049    143190.89   -48941.401    3771.4925   -52712.894   0.26203562 
   85400     276.9964   -1062.3869    142992.91   -48932.186    3803.8785   -52736.065   0.25691991 
   85600    278.88236    -915.0732    142584.11   -48936.242    3829.7776   -52766.019   0.28790466 
   85800    275.50706   -891.80121    142563.66   -48949.788    3783.4261   -52733.214    0.2847929 
   86000    279.27519   -1021.3215    142904.42   -48900.445    3835.1722   -52735.618   0.27442911 
   86200    281.39409    -1113.152    143032.42   -48907.126    3864.2702   -52771.397   0.26183933 
   86400    278.97967   -962.01794     142766.9   -48904.184     3831.114   -52735.298   0.27824241 
   86600    277.99392   -879.76419    142576.05   -48905.373    3817.5771    -52722.95     0.287048 
   86800    277.69047   -964.50138    142748.93   -48931.924    3813.4098   -52745.334   0.25911064 
   87000    275.99265   -1104.7392       143011   -48949.163    3790.0945   -52739.258   0.27412222 
   87200    275.18724    -1092.514    142943.16   -48920.698    3779.0341   -52699.732   0.26793545 
   87400    279.71439   -909.28423    142638.84   -48889.841    3841.2035   -52731.044   0.27577459 
   87600     272.9675   -912.53994    142604.76   -48953.783    3748.5513   -52702.334   0.29336014 
   87800    276.41147   -996.81288    142879.51   -48956.762     3795.846   -52752.608   0.25806407 
   88000    274.14854   -1166.4796    143026.93   -48908.249      3764.77   -52673.019   0.27794292 
   88200    276.01315    -994.6465    142816.37   -48921.694    3790.3759    -52712.07   0.26791923 
   88400    278.89593   -907.92247     142607.3   -48912.018     3829.964   -52741.982   0.28593702 
   88600    277.48348   -956.91392    142702.77   -48924.364    3810.5674   -52734.931   0.28085408 
   88800    278.39579   -1048.1767    142896.59    -48911.02    3823.0958   -52734.115   0.26606521 
   89000    278.14546   -1051.2677    142900.92   -48931.401    3819.6581   -52751.059    0.2799465 
   89200    269.25044   -1012.0581    142766.69   -48907.177    3697.5065   -52604.683   0.27489915 
   89400    282.65982   -906.98508    142744.57   -48883.236     3881.652   -52764.888    0.2763522 
   89600    281.12592    -1037.496     142857.1   -48903.235    3860.5876   -52763.822   0.27177364 
   89800    278.11961   -1053.5632    142883.53   -48935.965    3819.3031   -52755.268   0.26505199 
   90000     278.7397   -993.28063    142804.75   -48953.587    3827.8186   -52781.406   0.28470856 
   90200    274.63943   -990.47486    142778.38   -48997.355    3771.5112   -52768.866   0.26173378 
   90400     270.0977   -1017.8437    142813.92   -49015.181    3709.1415   -52724.322   0.27681634 
   90600    274.90256   -1017.4781    142815.72   -49008.031    3775.1246   -52783.156   0.27569244 
   90800    271.70745   -971.56855    142805.27   -49030.746    3731.2476   -52761.993   0.26231347 
   91000    277.27577   -998.01766    142820.51   -49031.735     3807.715    -52839.45   0.27203953 
   91200    271.94775    -1001.795    142822.55   -49044.863    3734.5475   -52779.411   0.27077178 
   91400    271.69626    -985.8102    142819.99   -49036.134    3731.0938   -52767.228   0.27397031 
   91600    273.40668   -984.97118     142812.4   -49041.492    3754.5824   -52796.074   0.26026351 
   91800    273.19127   -1016.6956    142799.74   -49019.648    3751.6243   -52771.272   0.27029949 
   92000    279.32883   -999.31593     142773.7   -49034.505    3835.9088   -52870.414   0.27028478 
   92200    272.17673   -970.27075    142738.31   -49055.918    3737.6919    -52793.61   0.26943059 
   92400    274.20103   -962.57271    142732.84   -49036.957    3765.4909   -52802.448   0.28520648 
   92600    274.47551   -979.41954    142769.97   -49089.406    3769.2602   -52858.666   0.26231441 
   92800    272.21792   -1024.5055    142785.25    -49059.96    3738.2577   -52798.218   0.26955343 
   93000    276.47166   -953.16039     142743.9    -48991.47    3796.6724   -52788.142   0.27466291 
   93200    275.77442   -987.70992    142736.33   -48990.524    3787.0975   -52777.622   0.26750189 
   93400    276.78076   -989.44396    142798.62   -48992.382    3800.9172   -52793.299   0.28306234 
   93600    273.09652   -1069.6248       142853    -48976.07    3750.3231   -52726.394   0.27099456 
   93800    276.21568   -1020.9538    142829.46   -48967.492    3793.1572   -52760.649   0.27211019 
   94000     278.4802   -1007.9225    142794.49   -48969.321    3824.2549   -52793.576   0.28008938 
   94200    271.97306   -993.56091    142744.47   -49047.325     3734.895    -52782.22    0.2704079 
   94400    270.14594   -1004.9053    142726.74   -49032.681    3709.8039   -52742.485    0.2776581 
   94600    274.36954   -969.29168     142783.2   -49029.183    3767.8049   -52796.988   0.27171004 
   94800    273.70999   -1069.1849     142858.8   -49077.211    3758.7476   -52835.959   0.28051905 
   95000    268.51044   -1048.6227    142811.95   -49082.689    3687.3443   -52770.033   0.26694134 
   95200    270.89395   -933.97393    142657.72   -49089.916    3720.0761   -52809.992    0.2776932 
   95400     270.9865   -972.61056    142624.79   -49102.068     3721.347   -52823.415   0.29108359 
   95600     274.2862   -1006.4043    142765.79   -49064.511    3766.6605   -52831.172   0.26321095 
   95800    271.82119   -1013.6184    142863.45   -49027.719    3732.8095   -52760.528   0.27244648 
   96000    272.53812    -987.8378    142750.05   -49021.757    3742.6548   -52764.412   0.27646622 
   96200    274.14888   -954.07811    142603.62   -49065.098    3764.7747   -52829.873   0.26518496 
   96400    273.97294   -1006.9773    142684.68   -49058.035    3762.3585   -52820.394   0.28306362 
   96600    273.87785   -1097.9619    142888.96   -49066.117    3761.0528    -52827.17   0.27215271 
   96800     268.9506   -1046.9037     142885.8   -49115.269    3693.3889   -52808.658   0.26447367 
   97000    270.30261   -965.85521    142629.17   -49103.695    3711.9554   -52815.651   0.28216439 
   97200    272.35775   -863.90296    142523.63    -49094.12    3740.1778   -52834.297   0.28743513 
   97400    269.33278   -1052.4888    142814.58   -49047.717    3698.6371   -52746.354   0.27220904 
   97600    273.52471   -1152.9632     143064.2   -49016.933    3756.2032   -52773.136   0.26199927 
   97800    270.45893   -1031.4061    142882.78   -49013.645    3714.1021   -52727.747   0.27972451 
   98000    273.59265   -845.01743    142557.31   -48991.489    3757.1362   -52748.625   0.28097759 
   98200    279.34999      -899.95     142587.4   -49003.194    3836.1994   -52839.394   0.28240804 
   98400    276.89448   -1063.2558    142950.57   -48930.741    3802.4789    -52733.22   0.27702648 
   98600    274.57656   -1140.5596     143071.2   -48972.278    3770.6478   -52742.926   0.25945354 
   98800    277.15413   -928.48962    142741.57   -48941.358    3806.0445   -52747.402   0.28257397 
   99000    276.62173   -835.78618    142478.71   -48948.547    3798.7333    -52747.28   0.29340261 
   99200    274.91263   -948.39933     142690.3   -49006.272    3775.2629   -52781.534   0.27556475 
   99400    270.74609   -1166.1947     143016.8    -49088.98    3718.0456   -52807.025   0.26528986 
   99600    265.26372   -1119.8648    142914.18   -49112.402    3642.7584    -52755.16   0.27035749 
   99800     273.0618   -866.44676    142532.62   -49091.715    3749.8462   -52841.561   0.27406592 
  100000    267.45711   -818.39621    142488.97   -49091.701    3672.8794    -52764.58   0.28297168 
  100200    278.00466   -1066.1156    142880.22   -49048.455    3817.7245   -52866.179   0.27792919 
  100400    274.87772   -1187.2492    143146.67   -49040.609    3774.7835   -52815.392   0.25447229 
  100600    274.54808   -1010.6564    142860.35   -48996.876    3770.2567   -52767.133   0.26905308 
  100800    277.58631   -817.10698     142470.6   -49030.889    3811.9795   -52842.868   0.29122867 
  101000    273.89983   -884.12594    142583.66    -49013.62    3761.3546   -52774.975   0.27146245 
  101200    274.40439    -1133.225    143045.63   -48986.852    3768.2835   -52755.135   0.26341647 
  101400    277.16719   -1173.3029    143124.56   -48991.411    3806.2239   -52797.635   0.26707266 
  101600    277.34801   -917.33046    142653.51   -49014.212    3808.7071   -52822.919   0.27459763 
  101800    278.41391   -755.26646    142386.27   -48986.424    3823.3446   -52809.769   0.29024218 
  102000    275.22412   -975.56345    142784.28   -48983.491    3779.5405   -52763.032   0.28506091 
  102200    277.26269   -1202.1419    143215.95   -48967.759    3807.5354   -52775.294   0.25859207 
  102400    276.98171   -1089.0379    143002.43    -48916.24    3803.6767   -52719.917   0.26133377 
  102600    279.13626    -813.2407    142478.29   -48935.564    3833.2644   -52768.829   0.29697208 
  102800    279.01612   -837.32692    142500.66   -48948.421    3831.6146   -52780.036   0.28691958 
  103000    277.02556   -1135.8347    143079.45   -48934.902     3804.279   -52739.181   0.26188943 
  103200    272.33298   -1270.1638    143302.74   -48911.505    3739.8377   -52651.342   0.27304715 
  103400    276.99822   -965.19153    142754.36   -48946.515    3803.9035   -52750.419   0.27934764 
  103600    274.82075   -720.35857    142233.45   -48956.379    3774.0011    -52730.38   0.29965979 
  103800    272.07567   -877.64255    142589.84   -48957.312    3736.3041   -52693.616   0.29059529 
  104000    277.56724   -1274.5383    143299.31   -48954.088    3811.7176   -52765.806   0.25633596 
  104200    275.55763   -1178.4259    143215.83    -48966.66    3784.1205    -52750.78   0.26071959 
  104400    277.39769   -797.43193    142394.77   -48995.175    3809.3893   -52804.565   0.29198013 
  104600    273.81647   -668.28151    142157.64   -48994.738    3760.2098   -52754.947   0.31035717 
  104800    273.46664   -1052.8652    142899.97    -48976.85    3755.4058   -52732.256   0.26894048 
  105000    272.87737   -1347.1032    143435.28   -48993.235    3747.3136   -52740.548    0.2493997 
  105200    273.96658   -1030.9621    142910.21   -49001.497    3762.2712   -52763.769   0.27268165 
  105400    274.04057   -712.90403    142217.02   -49002.884    3763.2873   -52766.171   0.29941907 
  105600    272.18159   -857.76169    142438.41   -48999.015    3737.7587   -52736.773   0.30027803 
  105800    272.44373   -1187.3818    143122.31   -49003.619    3741.3586   -52744.977   0.26604982 
  106000    275.29358   -1210.5472    143190.25   -48982.971    3780.4943   -52763.466   0.25948064 
  106200    277.59381   -894.65506    142614.32   -48969.012    3812.0826   -52781.095   0.28429216 
  106400    272.33831   -781.60124    142351.85   -48983.351    3739.9109   -52723.262   0.30259021 
  106600    276.54829     -968.016    142749.14   -48981.102    3797.7248   -52778.827   0.28205462 
  106800    276.08231   -1191.6377    143115.71   -48968.828    3791.3257   -52760.153   0.26489809 
  107000    279.99811   -1068.3507    142929.24   -48930.232    3845.0998   -52775.332   0.27069022 
  107200    276.00819   -900.79433    142594.59    -48924.37    3790.3078   -52714.678   0.29029894 
  107400    276.86732   -903.12797    142638.08   -48931.341    3802.1059   -52733.447   0.28722523 
  107600    275.95054   -1089.5154    142928.76   -48905.437    3789.5161   -52694.953   0.28349924 
  107800    278.60515   -1080.6121    142992.26   -48924.234    3825.9709   -52750.204   0.26273592 
  108000     279.2986   -984.60945    142761.72   -48905.217    3835.4937   -52740.711   0.28588061 
  108200    274.46112   -928.02748    142618.56   -48939.692    3769.0625   -52708.754   0.29026155 
  108400    275.42593   -978.65389    142773.07   -48935.042    3782.3119   -52717.354   0.26553821 
  108600    275.01449   -1068.1987    142976.51   -48904.574    3776.6617   -52681.235   0.27856421 
  108800    271.24799   -1076.6153    142936.68   -48925.876     3724.938   -52650.814   0.27402555 
  109000    277.21015   -960.73516    142727.26   -48965.641    3806.8139   -52772.455   0.26853261 
  109200    276.32183   -933.69291    142634.25   -48968.777     3794.615   -52763.392   0.28670444 
  109400    276.93121   -964.69044    142767.41   -48952.829    3802.9833   -52755.813   0.28321419 
  109600    277.55572    -1086.019    142932.22   -48913.823    3811.5594   -52725.383   0.26445647 
  109800    274.20354   -1036.5862    142861.94   -48962.571    3765.5253   -52728.096   0.27000057 
  110000    274.81634   -947.48928     142668.2   -48907.094    3773.9407   -52681.035   0.29269243 
  110200    277.46506   -932.04605    142667.61   -48895.963    3810.3145   -52706.278   0.27447621 
  110400    277.04839   -1011.2678       142887   -48940.875    3804.5925   -52745.468   0.26699819 
  110600    270.75117   -1125.1453    142993.89   -49008.267    3718.1153   -52726.383   0.28229135 
  110800    278.09213   -1007.8658    142820.35   -49008.571    3818.9257   -52827.496   0.26925978 
  111000    271.51274   -906.22438    142612.85   -49012.633    3728.5736   -52741.206    0.2886995 
  111200    274.62368   -946.46172    142655.87   -49002.091    3771.2949   -52773.386   0.27897346 
  111400    273.08106   -1053.1954    142883.06   -49049.591    3750.1108   -52799.702   0.26484217 
  111600    274.55162   -1081.6745    142918.88   -49098.805    3770.3054    -52869.11   0.26959046 
  111800    273.46212    -985.5213    142662.92   -49133.236    3755.3437    -52888.58   0.27393872 
  112000    267.60834   -903.08828    142511.63   -49127.762    3674.9561   -52802.718   0.29313949 
  112200    272.43523   -971.81112    142674.48    -49086.41    3741.2418   -52827.651   0.27545556 
  112400    271.50506   -1113.7964    142909.86   -49052.779    3728.4682   -52781.247    0.2698618 
  112600     274.4847   -1076.6798    142851.86   -49029.581    3769.3864   -52798.968   0.27345243 
  112800     271.9546   -934.59001    142592.22   -49048.326    3734.6415   -52782.968     0.284643 
  113000    271.27039   -914.62718    142566.14   -49027.876    3725.2455   -52753.121   0.29134197 
  113200    270.90678   -1044.5486    142866.92   -49057.042    3720.2523   -52777.294   0.26834278 
  113400    268.94895   -1165.7107    143053.53   -49035.019    3693.3662   -52728.386    0.2733777 
  113600    272.80307   -1010.4513    142737.68   -49044.054    3746.2933   -52790.347   0.27914336 
  113800     277.3982   -788.18056    142333.93   -49033.188    3809.3962   -52842.585   0.28316515 
  114000    272.30801   -899.33822    142548.97   -49017.147    3739.4947   -52756.642   0.29818877 
  114200    273.72579   -1202.0798    143154.62   -49018.898    3758.9645   -52777.862   0.25783935 
  114400    274.61882   -1236.3814    143171.87   -48962.065    3771.2282   -52733.293   0.25782291 
  114600    277.32479   -869.30722    142504.26   -48946.576    3808.3881   -52754.965    0.2969039 
  114800    275.57272   -701.14502    142227.04   -48937.587    3784.3278   -52721.914   0.30128159 
  115000     276.8317   -1030.9429    142849.29   -48957.251    3801.6168   -52758.868   0.26691005 
  115200    273.83419   -1300.5262    143378.88   -48960.648    3760.4532   -52721.101    0.2527306 
  115400    272.50744   -1096.2305     142912.9   -48979.023    3742.2334   -52721.256   0.27538078 
  115600     275.5409   -691.60133    142168.77   -48972.956    3783.8907   -52756.847   0.30328303 
  115800    278.61166   -782.91285    142372.36   -48987.301    3826.0602   -52813.361   0.28999227 
  116000    273.64202    -1183.307    143219.93   -48960.677    3757.8142   -52718.492   0.26199605 
  116200    272.21129   -1282.9424    143344.61   -48974.068    3738.1666   -52712.234   0.24349772 
  116400    272.36159   -936.02839    142571.22   -49024.668    3740.2305   -52764.899   0.28791033 
  116600    277.78296    -665.7765       142128   -49043.287      3814.68   -52857.967   0.29655748 
  116800    273.86965   -927.81193    142693.71   -48996.429    3760.9402   -52757.369   0.27394722 
  117000    272.37816   -1277.2088    143359.34   -48991.813    3740.4581   -52732.271   0.25992914 
  117200    273.59916   -1164.3364    143096.98   -48985.414    3757.2257    -52742.64   0.26304553 
  117400    274.28229   -871.21952    142401.69   -49020.897    3766.6068   -52787.504   0.30045626 
  117600    272.37098   -810.34311    142340.16   -49003.018    3740.3595   -52743.377   0.30200053 
  117800    274.36459   -1089.5638    142931.68   -48958.143    3767.7369   -52725.879    0.2693416 
  118000    273.54006   -1209.2315    143220.23   -48944.145     3756.414   -52700.559   0.26879472 
  118200    275.34377   -1005.2945     142814.4    -48982.75    3781.1837   -52763.934   0.27523245 
  118400    281.44417   -793.33617    142399.94   -49036.632    3864.9579    -52901.59   0.29179792 
  118600    273.81703    -922.1372    142580.13    -49060.15    3760.2175   -52820.367   0.27432962 
  118800    267.24029   -1148.5538    142973.08   -49101.021    3669.9018   -52770.922   0.26702567 
  119000    272.35073   -1094.5575    142943.71   -49100.612    3740.0814   -52840.693   0.26617098 
  119200    273.82328   -934.27025    142551.91   -49107.781    3760.3033   -52868.084   0.26600296 
  119400    269.52695    -859.9833       142428   -49133.699    3701.3036   -52835.002   0.30136004 
  119600    274.14635   -965.62995    142740.65   -49073.252      3764.74   -52837.992   0.26914428 
  119800     273.6941   -1138.0509    143013.87     -49065.1    3758.5294    -52823.63   0.25476692 
  120000    273.82127   -1023.9174    142827.21   -49084.531    3760.2757   -52844.807   0.27612163 
  120200    270.33678    -832.5253    142492.82   -49064.161    3712.4246   -52776.586   0.28327375 
  120400    271.62558    -912.4859    142572.08    -49108.17    3730.1233   -52838.293   0.27920486 
  120600    270.39032     -1099.85     142950.1   -49096.364    3713.1599   -52809.524   0.26222817 
  120800    272.47396   -1127.9131    143021.92   -49087.543    3741.7737   -52829.317   0.27582516 
  121000    268.81854   -951.42115    142691.12   -49077.991    3691.5753   -52769.567   0.26866853 
  121200    273.34554   -835.91619    142502.32   -49079.615    3753.7427   -52833.358   0.28128655 
  121400    269.29462   -993.11639    142753.89   -49076.449    3698.1131   -52774.562   0.29111898 
  121600    273.14883   -1134.5282    143056.43   -49063.242    3751.0414   -52814.283   0.24438926 
  121800    272.89937   -1088.7797    142938.77   -49062.642    3747.6156   -52810.257   0.26371859 
  122000    276.75691   -889.90815    142571.78   -49047.317    3800.5898   -52847.907   0.28280308 
  122200    274.36354   -868.15445    142516.44   -49017.498    3767.7225    -52785.22   0.28369833 
  122400    271.67418   -1042.0724    142874.29   -48969.426    3730.7906   -52700.217   0.29566364 
  122600    277.54451   -1131.5346    143090.83   -48890.461    3811.4055   -52701.866   0.26292028 
  122800    279.06996    -1015.157    142845.95   -48893.064    3832.3538   -52725.418   0.26785156 
  123000    277.36922   -872.61072    142535.47   -48942.398    3808.9982   -52751.397   0.29129898 
  123200    275.56209    -911.7926     142655.5    -48963.39    3784.1817   -52747.571    0.2775134 
  123400    271.12621   -1138.8343    143036.77   -49036.715    3723.2656   -52759.981   0.27437445 
  123600    270.60261   -1116.3787    143017.05   -48986.253    3716.0752   -52702.328   0.26783741 
  123800    272.62364   -875.25264    142580.98   -49013.339    3743.8292   -52757.168   0.29109985 
  124000    275.68795    -809.4889    142394.66   -49000.241    3785.9101   -52786.151   0.28323834 
  124200    272.86453   -987.13128    142805.71   -48979.599    3747.1373   -52726.736     0.273942 
  124400    275.75729    -1227.059    143227.87   -48985.114    3786.8624   -52771.976   0.25947053 
  124600    271.28549   -1154.1398    142923.85   -49007.354    3725.4529   -52732.807   0.26860772 
  124800    274.86761   -706.83953    142204.82   -49020.995    3774.6447    -52795.64   0.31368808 
  125000    275.22755   -751.21897    142236.61   -49030.445    3779.5877   -52810.032   0.29491524 
  125200    276.50928   -1220.8872    143157.48   -49007.817    3797.1891   -52805.006   0.25666247 
  125400    271.85765   -1430.9998    143534.25   -49062.764    3733.3101   -52796.074   0.24983333 
  125600    270.49771   -951.67898       142588   -49072.143    3714.6347   -52786.778   0.28321229 
  125800    272.21994   -517.81542    141775.34   -49073.547    3738.2853   -52811.832   0.32548363 
  126000    273.97335   -836.46522    142452.03   -49037.772    3762.3642   -52800.136   0.28416816 
  126200     272.4557   -1430.7681    143577.62   -49000.154    3741.5229   -52741.677   0.25949518 
  126400    267.88614    -1304.294    143366.51   -49028.863     3678.771   -52707.634   0.24957039 
  126600    274.77422   -707.66174    142269.81   -49070.406    3773.3622   -52843.769   0.28726512 
  126800    271.42656   -665.65836    142112.02   -49047.207    3727.3901   -52774.597   0.31864584 
  127000    272.25901   -1120.6307    142966.83   -49053.651    3738.8219   -52792.473   0.25321758 
  127200    269.80849   -1324.4865     143389.8   -49076.857    3705.1699   -52782.027   0.25260578 
  127400    273.19431   -1038.2794    142842.16   -49085.046     3751.666   -52836.712   0.27941022 
  127600    272.58517   -750.45579    142253.69   -49088.319     3743.301    -52831.62   0.29462111 
  127800     272.6551   -827.51665    142495.85   -49076.239    3744.2612     -52820.5   0.28826916 
  128000    267.99803   -1203.3698    143108.59   -49063.805    3680.3075   -52744.113   0.25902807 
  128200    271.88464   -1153.6462    143134.06   -49030.488    3733.6809   -52764.169   0.26245814 
  128400    274.79399    -899.6397    142636.66   -49063.771    3773.6337   -52837.404   0.27261948 
  128600    272.15123   -823.41299    142398.84   -49097.491    3737.3417   -52834.832   0.29077187 
  128800    269.14227   -1003.0189     142742.6   -49127.964    3696.0209   -52823.985   0.27803982 
  129000    273.84152    -1171.845    143071.59   -49154.497    3760.5538   -52915.051   0.25364125 
  129200    276.25702   -1046.5536     142876.1   -49117.117    3793.7248   -52910.842   0.27182194 
  129400    269.66285   -868.67983    142517.81   -49121.491    3703.1699   -52824.661   0.28276779 
  129600    270.40541   -896.49212    142554.42   -49121.848    3713.3672   -52835.215   0.28526354 
  129800     274.0604   -1089.2188    142865.13   -49128.924    3763.5596   -52892.483   0.27097023 
  130000    272.32462   -1098.1059    142924.04   -49135.577    3739.7228     -52875.3    0.2613601 
  130200    271.15953   -964.24775    142602.69   -49157.077    3723.7231     -52880.8   0.29790581 
  130400    267.08623   -882.76361    142394.76   -49145.838    3667.7862   -52813.624   0.28893427 
  130600    271.95466   -969.92076    142673.33    -49101.44    3734.6423   -52836.083   0.28336418 
  130800    269.24257   -1149.7355    143013.84   -49115.356    3697.3983   -52812.754   0.26468904 
  131000    268.08725   -1068.1976    142843.68   -49135.522    3681.5327   -52817.054   0.27105337 
  131200    272.08537   -843.43366     142437.6   -49115.411    3736.4373   -52851.848   0.29107578 
  131400    270.60308   -884.63973    142496.83   -49116.324    3716.0816   -52832.406   0.28010853 
  131600    270.84712   -1078.3223    142918.82   -49104.666    3719.4329   -52824.099   0.27402389 
  131800    272.44359   -1167.8989    143049.95   -49075.554    3741.3567    -52816.91   0.26807357 
  132000    270.87506   -960.45814    142683.45   -49028.246    3719.8167   -52748.063   0.28273371 
  132200    273.14668   -845.29532    142429.14   -49039.979    3751.0119   -52790.991   0.29748168 
  132400    279.02434   -937.56917     142731.6   -49040.421    3831.7274   -52872.148   0.26852303 
  132600    272.30434   -1184.1835    143141.67   -49011.025    3739.4444    -52750.47    0.2655543 
  132800    278.42226   -1125.1412    142992.86    -48983.76    3823.4592    -52807.22   0.26303595 
  133000     275.1054   -829.99745    142538.22     -48985.3    3777.9102   -52763.211   0.29302903 
  133200    273.58761   -861.59313    142531.92   -48936.901     3757.067   -52693.968     0.294237 
  133400    276.35813   -1079.3076    142996.03   -48917.147    3795.1134   -52712.261   0.25613629 
  133600    276.92036   -1195.3961    143214.71   -48925.321    3802.8342   -52728.155   0.26947807 
  133800     275.0744    -1023.457    142810.97   -48949.885    3777.4845   -52727.369   0.27199697 
  134000    276.20017   -783.64467    142390.75    -48908.23    3792.9443   -52701.174   0.29423783 
  134200    276.26724   -939.48933    142639.43   -48918.865    3793.8653    -52712.73   0.29887793 
  134400    275.97502   -1238.2741    143166.16   -48909.043    3789.8523   -52698.895   0.26217758 
  134600    277.65187   -1138.9857    143102.83   -48923.612    3812.8798   -52736.492   0.26355409 
  134800    278.08862   -858.49182    142547.54   -48971.249    3818.8775   -52790.126   0.28657349 
  135000    273.98389   -798.14612    142380.19   -49026.041    3762.5089    -52788.55   0.29495598 
  135200    270.46992   -1023.1287    142847.16   -49030.384     3714.253   -52744.637    0.2687832 
  135400    270.10823   -1241.5516    143229.08   -49043.517     3709.286   -52752.803   0.25826314 
  135600    275.11633   -1055.0798    142886.47   -49014.602    3778.0602   -52792.662   0.27889908 
  135800    272.25847   -777.60303    142366.14   -49090.401    3738.8145   -52829.215   0.28184878 
  136000    269.67841   -877.34522    142483.53   -49120.082    3703.3836   -52823.466   0.29633111 
  136200    266.07506    -1117.016    143048.48    -49122.73    3653.9002    -52776.63   0.26441074 
  136400    269.05392   -1243.1326    143179.54   -49075.991    3694.8076   -52770.799   0.25595536 
  136600    275.22812   -916.65765    142674.66   -49030.245    3779.5955   -52809.841   0.29082098 
  136800    273.76677   -782.79526    142347.44   -49044.735    3759.5273   -52804.262   0.28795993 
  137000    277.60334   -968.63909    142699.85   -49045.674    3812.2134   -52857.888   0.28099641 
  137200    272.72427   -1202.1444    143151.83   -49067.502    3745.2111   -52812.713   0.26409581 
  137400    268.31974   -1105.8251    142975.18   -49029.161    3684.7255   -52713.887    0.2687457 
  137600    275.93722   -825.17849    142441.61   -49028.898    3789.3333   -52818.231   0.29468289 
  137800    269.25576   -850.85314    142421.92   -49004.745    3697.5795   -52702.324   0.29606385 
  138000    273.40303   -1106.8588    142944.31   -48995.064    3754.5323   -52749.596    0.2736749 
  138200    272.02256   -1233.1367     143163.9   -49037.377    3735.5748   -52772.952   0.26161979 
  138400    268.89494   -987.64164    142712.97   -49029.914    3692.6244   -52722.539   0.28467586 
  138600    272.49684   -783.11565    142303.96   -49049.055    3742.0879   -52791.143   0.29031799 
  138800    271.02126   -908.34451    142598.44   -48998.381    3721.8244   -52720.206    0.2788943 
  139000    271.33474   -1191.7744     143164.4   -48977.002    3726.1292   -52703.131   0.26967033 
  139200    275.97918   -1160.4504    143113.69   -48978.922    3789.9095   -52768.831   0.25878834 
  139400     273.9769   -887.85745    142538.28   -49012.303    3762.4129   -52774.716   0.29357443 
  139600    274.57316   -787.26708    142347.89   -48998.733    3770.6011   -52769.334   0.30917026 
  139800    277.30419   -1045.7411    142843.84   -48955.216    3808.1053   -52763.321   0.26736794 
  140000    278.32332   -1223.5361    143238.81   -48915.869    3822.1005   -52737.969   0.26386992 
  140200    277.83838   -1077.4358     142912.8   -48960.225    3815.4411   -52775.666   0.26834189 
  140400     275.1592   -770.95263    142370.76   -48991.243     3778.649   -52769.892   0.30202103 
  140600     274.5507   -831.30607    142451.28    -48990.94    3770.2927   -52761.233   0.29557154 
  140800    275.89341    -1107.023    143044.64   -48976.235    3788.7316   -52764.967    0.2654574 
  141000    272.03492   -1266.0965    143209.78   -49007.324    3735.7445   -52743.068   0.26986069 
  141200    279.18075   -918.66412    142651.73   -48969.962    3833.8753   -52803.837   0.26923377 
  141400     269.9898   -739.64599     142303.3   -48978.877    3707.6598   -52686.537   0.30970964 
  141600    274.12524   -1014.2104    142721.27   -48958.905    3764.4501   -52723.355    0.2846046 
  141800    274.33599   -1239.8578    143201.19   -49001.048    3767.3441   -52768.392   0.25395669 
  142000    268.57753   -1161.9653    142974.24   -49018.053    3688.2656   -52706.319   0.28381395 
  142200     273.8773   -827.23325    142451.94   -49023.325    3761.0453    -52784.37   0.28347524 
  142400    277.15546   -836.45083    142471.79   -49027.748    3806.0628   -52833.811   0.28364381 
  142600     268.7947    -1105.966    142938.18   -49012.385     3691.248   -52703.633   0.27348796 
  142800     274.7906   -1167.0004    143078.26   -49013.539    3773.5872   -52787.126   0.26057787 
  143000    272.64381   -1021.9347    142699.44   -49077.559    3744.1062   -52821.665   0.29288703 
  143200    271.25209    -820.9225    142406.99   -49051.582    3724.9943   -52776.576   0.28885963 
  143400    269.97268   -929.32068    142655.78   -49015.695    3707.4246   -52723.119   0.29143615 
  143600    271.47833   -1166.1451    143056.24   -49000.041    3728.1012   -52728.143   0.26094722 
  143800    277.02369   -1103.1506    143001.64   -49012.896    3804.2533   -52817.149   0.26202418 
  144000    274.91073   -901.47081    142622.54   -49007.435    3775.2369   -52782.671   0.29320467 
  144200    275.04248     -914.625    142530.49   -48984.618    3777.0461   -52761.664   0.28431166 
  144400    271.76963   -1033.2493     142810.5   -48981.481    3732.1014   -52713.582   0.29401775 
  144600    278.83844   -1097.2762    142970.44   -48954.739    3829.1745   -52783.913   0.26742653 
  144800    275.55248   -1001.5824    142812.46   -48928.466    3784.0497   -52712.516   0.27580842 
  145000    277.73159   -910.85692    142629.34   -48973.081    3813.9746   -52787.055   0.29034191 
  145200    275.66544   -986.40109    142683.86   -49000.532     3785.601   -52786.133   0.28042881 
  145400    269.33768   -1048.7587     142828.8   -49002.216    3698.7044    -52700.92    0.2909472 
  145600    270.63202   -1065.3722    142812.74   -49017.999    3716.4791   -52734.478   0.28216956 
  145800    272.71486   -946.49456    142625.19   -49035.837    3745.0819   -52780.919   0.29889888 
  146000    275.73722   -876.64951    142546.62   -49025.297    3786.5867   -52811.884   0.29170311 
  146200    274.08938    -966.9909    142727.34   -49052.169    3763.9576   -52816.127   0.28061725 
  146400    277.25807    -1063.757     142887.1   -49003.962    3807.4719   -52811.433   0.29414307 
  146600    275.25433    -1040.772    142813.59   -48969.981    3779.9553   -52749.936   0.26680465 
  146800    274.73289   -920.03365     142645.5    -48931.39    3772.7947   -52704.184   0.30359637 
  147000    277.17023   -955.40196    142717.14   -48944.275    3806.2657    -52750.54   0.29184586 
  147200    276.21643   -1042.2644    142950.39    -48910.25    3793.1675   -52703.417   0.26497325 
  147400    268.97072   -1128.2667     142993.2   -48971.774    3693.6651   -52665.439   0.28798549 
  147600    279.64597   -917.87836    142760.75    -48987.75    3840.2639   -52828.014   0.27727792 
  147800    278.14496   -893.98607    142582.92   -49030.701    3819.6512   -52850.352    0.2816383 
  148000    271.16889   -998.70031    142716.99   -48995.467    3723.8517   -52719.319   0.27768785 
  148200    272.66757   -1051.7446    142945.18   -49032.093    3744.4325   -52776.525   0.27652509 
  148400    276.63628   -1085.8954    142887.31   -49080.428    3798.9332   -52879.361   0.27840531 
  148600    273.96621   -930.19963    142583.14    -49056.65    3762.2662   -52818.917   0.28069785 
  148800    271.17043     -908.057    142526.31   -49060.278    3723.8729   -52784.151   0.30342764 
  149000    271.20607   -1067.0203     142818.9   -49062.631    3724.3623   -52786.993   0.26211992 
  149200    273.53672    -1140.787    142988.77   -49064.506    3756.3681   -52820.874   0.25901515 
  149400    270.01797   -1012.9582    142750.43   -49089.181    3708.0465   -52797.227    0.2941228 
  149600    270.25764   -882.94781    142484.95   -49093.374    3711.3379   -52804.712   0.27900407 
  149800    270.98717   -955.54546    142629.68   -49079.219    3721.3562   -52800.575   0.29649333 
  150000     274.0529    -1147.133    143010.51   -49034.729    3763.4566   -52798.186   0.26694982 
  150200    275.56458   -1133.9857    143040.08   -48983.075     3784.216   -52767.291   0.25649011 
  150400    279.51926   -937.84287    142639.44   -48961.468    3838.5239   -52799.992   0.28533204 
  150600    271.33474   -816.14401    142389.51   -49012.673    3726.1292   -52738.802   0.29669249 
  150800    272.64313   -982.09162    142710.27   -48973.694    3744.0968   -52717.791   0.29587021 
  151000    269.36369    -1258.479    143181.96   -49002.344    3699.0616   -52701.406   0.26062355 
  151200    271.46394   -1180.1239     142981.1   -48993.285    3727.9035   -52721.189   0.28109508 
  151400    272.94011    -786.4721    142338.24   -48920.083    3748.1752   -52668.258   0.29976309 
  151600    274.71015   -765.17435    142317.18   -48908.672    3772.4824   -52681.155    0.2958256 
  151800    277.96448   -1135.4584     143064.7    -48909.61    3817.1728   -52726.783   0.28887809 
  152000    278.53781   -1331.5305    143411.44   -48903.419    3825.0461   -52728.465   0.24566366 
  152200     272.6055   -979.33072    142744.87   -48931.171    3743.5801   -52674.751    0.2988811 
  152400     272.3044   -679.59068    142093.63   -48983.919    3739.4452   -52723.364   0.32426366 
  152600    280.03901   -820.62383    142503.36   -48950.967    3845.6614   -52796.628   0.27361719 
  152800    279.61477   -1264.0134     143381.7   -48874.306    3839.8355   -52714.142   0.26323682 
  153000    280.57301   -1290.5361    143372.48   -48938.498    3852.9946   -52791.493   0.25234124 
  153200    275.74786   -793.05338    142502.25   -48895.649    3786.7329   -52682.382   0.29816324 
  153400    278.27113    -662.5848    142176.12   -48951.928    3821.3839   -52773.312   0.30315107 
  153600    272.18537   -1039.4505    142819.78   -48970.375    3737.8106   -52708.185   0.27894549 
  153800    276.29776   -1276.7361    143341.15   -48988.987    3794.2844   -52783.272   0.25416187 
  154000     276.3463   -1087.5524     142961.6   -49008.345    3794.9509   -52803.296   0.26465866 
  154200    276.64595   -786.50785    142342.91   -48966.458    3799.0659   -52765.524   0.31462336 
  154400    274.35501   -846.48433     142430.5   -48960.645    3767.6054    -52728.25   0.28084877 
  154600    274.87336   -1128.7499    142985.97   -48972.549    3774.7237   -52747.272   0.27449052 
  154800    272.99951   -1185.0416    143122.07   -48983.985    3748.9908   -52732.976   0.26840909 
  155000    273.98846   -988.21732    142739.23   -48977.672    3762.5716   -52740.244   0.26868949 
[...]
  163200    274.52438   -1209.5539    143178.21   -49039.642    3769.9312   -52809.573   0.26171357 
  163400    270.64611   -990.07511    142808.45   -49077.319    3716.6725   -52793.991    0.2563179 
  163600    271.82138   -792.38382    142413.58   -49035.699     3732.812   -52768.512   0.30151261 
  163800    278.02991   -929.09945    142608.71    -49091.61    3818.0713   -52909.681   0.27979608 
  164000     266.1097    -1180.252    143043.47   -49100.442    3654.3759   -52754.818   0.25651895 
  164200    266.28383   -1131.2508    143024.92   -49097.182    3656.7671   -52753.949   0.26496233 
  164400    274.72305   -853.28572    142604.96   -49050.405    3772.6595   -52823.065   0.27704133 
  164600    266.91939   -839.09973    142502.02    -49031.34    3665.4951   -52696.836   0.28561841 
  164800     270.8122   -1077.0477    142905.85   -49061.719    3718.9535   -52780.672   0.26617888 
  165000    275.41308   -1190.5266    143102.67    -49035.11    3782.1354   -52817.245    0.2680249 
  165200     272.4829   -1005.5295    142741.57   -49036.516    3741.8965   -52778.412   0.27202417 
  165400    275.47383   -833.74853    142405.08   -49068.794    3782.9697   -52851.764   0.29127181 
  165600    275.10064   -926.61288    142638.29    -49008.74    3777.8448   -52786.585   0.29160294 
  165800    276.10259    -1190.148    143120.52   -49024.963    3791.6042   -52816.567   0.24465277 
  166000    276.82791   -1161.8842    143060.64   -48985.822    3801.5648   -52787.387   0.27221877 
  166200    276.98916   -851.98334    142539.22   -49022.761    3803.7791    -52826.54   0.28725999 
  166400    274.35995    -770.2711     142405.6    -49021.07    3767.6733   -52788.743   0.27648998 
  166600    275.84321   -1094.5608    142900.31   -49010.685    3788.0422   -52798.727   0.27805617 
  166800    272.13799   -1205.7548    143210.21   -49061.433      3737.16   -52798.593   0.25713268 
  167000    270.04032     -1037.31    142794.14   -49067.973    3708.3535   -52776.327   0.26691573 
  167200     275.6491   -754.46348    142301.34   -49026.791    3785.3766   -52812.168   0.30245922 
  167400    272.86902    -878.6847    142538.08   -49068.129    3747.1988   -52815.328    0.2839237 
  167600    274.34798   -1211.0919    143129.66   -49041.462    3767.5089   -52808.971   0.25947765 
  167800    269.87129   -1231.8927    143113.54   -49104.854    3706.0323   -52810.887   0.25891237 
  168000    270.87145   -861.18961    142469.18   -49103.041    3719.7671   -52822.808   0.29382896 
  168200    274.37791   -762.72296    142262.56   -49104.724    3767.9198   -52872.644   0.29519072 
  168400    272.59885   -1027.1238    142780.14   -49056.855    3743.4887   -52800.344    0.2689718 
  168600    274.83395   -1256.1637    143226.34   -49059.947    3774.1824    -52834.13   0.26416083 
  168800    271.40587   -1116.4777    142935.49   -49101.934     3727.106    -52829.04   0.24785322 
  169000    274.04846    -804.1634     142354.1   -49096.097    3763.3956   -52859.493   0.29225195 
  169200    271.01766    -770.9124    142385.87   -49068.031     3721.775   -52789.806   0.29969248 
  169400    275.83411   -1151.3277    142984.32   -49085.732    3787.9172   -52873.649   0.25390173 
  169600    266.84757   -1239.8118    143151.92   -49090.165    3664.5088   -52754.673   0.27982667 
  169800    269.33471   -960.86578    142664.87   -49103.198    3698.6637   -52801.862   0.27801206 
  170000    274.53141   -785.22413    142330.26   -49144.628    3770.0278   -52914.656   0.28276868 
  170200    268.49242   -929.87119    142612.76   -49149.872    3687.0969   -52836.969   0.27743387 
  170400    267.34413   -1138.7577     143022.6   -49114.821    3671.3278   -52786.149   0.26312954 
  170600    270.84068   -1087.5977    142944.75   -49097.959    3719.3445   -52817.303   0.26902797 
  170800    270.92515    -885.9223    142606.08   -49125.791    3720.5046   -52846.295   0.27890277 
  171000    269.09988   -904.41041    142559.25   -49126.597    3695.4388   -52822.036   0.28606405 
  171200      266.796   -1087.6988    142821.08   -49148.132    3663.8006   -52811.933   0.25866723 
  171400    269.08009    -1148.554    142939.24   -49141.945     3695.167   -52837.112   0.26886474 
  171600    271.51297   -985.46706    142753.92   -49111.135    3728.5768   -52839.711   0.27859991 
  171800    272.21709   -942.55408    142598.93   -49093.356    3738.2462   -52831.602   0.26602573 
  172000    270.79622   -978.06262    142686.18   -49098.039     3718.734   -52816.773   0.28956657 
  172200    273.66864   -1071.0136    142838.66    -49101.11    3758.1797    -52859.29   0.26776212 
  172400    274.41605   -1026.4596    142833.65   -49071.977    3768.4436    -52840.42   0.26584489 
  172600    272.15147   -954.80415    142714.72   -49058.483     3737.345   -52795.828   0.28261681 
  172800     274.5505    -936.9715    142691.46   -49066.285      3770.29   -52836.575   0.27783491 
  173000    273.31247   -1013.0982    142794.22   -49082.594    3753.2887   -52835.882   0.27633913 
  173200    270.99093   -1039.0796    142823.42   -49116.638    3721.4079   -52838.046   0.25989019 
  173400    266.92612   -995.93025    142690.05   -49105.337    3665.5874   -52770.924   0.28500122 
  173600    272.99832   -925.94625    142604.06   -49060.925    3748.9745     -52809.9   0.27688264 
  173800    269.42956   -1005.9816    142749.99   -49059.256    3699.9663   -52759.222   0.27387116 
  174000    273.81983   -1088.3981    142901.64   -49022.615     3760.256   -52782.871   0.27771155 
  174200    275.25598   -1036.8659    142829.98   -49017.894     3779.978   -52797.872   0.25870843 
  174400    275.13776   -941.35558    142670.12   -49004.159    3778.3545   -52782.514   0.28083616 
  174600    272.51004   -968.14381    142684.05   -49014.196    3742.2691   -52756.465   0.28807653 
  174800    274.95559   -1041.0706    142845.52   -48977.836     3775.853   -52753.689   0.25812334 
  175000    270.26793   -1070.9801    142914.23   -49021.252    3711.4792   -52732.731    0.2746667 
  175200    272.72567   -998.40544    142762.66    -49020.31    3745.2303    -52765.54   0.27787764 
  175400    274.90332   -927.62152    142614.42   -49031.447    3775.1351   -52806.582   0.27953229 
  175600    274.24506   -959.60682    142697.74   -49041.374    3766.0954    -52807.47   0.27300886 
  175800    273.07111   -1104.0648    142914.62   -49023.272    3749.9741   -52773.246   0.27256794 
  176000    271.66315   -1089.9017    142921.03   -49009.992    3730.6391   -52740.631     0.274902 
  176200    277.13374   -954.07904    142664.93   -48965.821    3805.7645   -52771.585   0.27330367 
  176400    271.96712   -867.93031    142560.09   -49004.216    3734.8135   -52739.029   0.29498887 
  176600    277.90406   -987.11093    142876.93   -48982.466     3816.343   -52798.809   0.25978843 
  176800    275.66189   -1190.0354    143258.87   -48983.632    3785.5522   -52769.184   0.24746613 
  177000    275.51122   -1136.3311    143014.14   -49001.662    3783.4831   -52785.145   0.27459976 
  177200     272.6436   -753.05603    142304.16   -49024.762    3744.1033   -52768.865   0.28655874 
  177400    272.71345   -800.87273    142283.57   -49111.594    3745.0625   -52856.656   0.30277807 
  177600    273.04047   -1168.6041    143067.12   -49067.444    3749.5534   -52816.997    0.2561499 
  177800     272.4198    -1359.104    143422.12   -49039.221      3741.03   -52780.251   0.24173306 
  178000    272.27882   -954.29711    142728.98    -49010.26     3739.094   -52749.354   0.28090701 
  178200    271.85166    -661.1802    142101.29   -49052.977     3733.228   -52786.205   0.30545429 
  178400    274.45749   -876.90534    142582.65   -49026.513    3769.0127   -52795.526   0.29305321 
  178600    272.72043   -1337.0009    143395.55   -49027.358    3745.1584   -52772.517   0.24148065 
  178800    271.12769   -1218.9458    143209.94   -48999.809    3723.2859   -52723.095   0.26583511 
  179000    277.18167   -787.68797    142381.49    -48987.97    3806.4227   -52794.393    0.2866112 
  179200     274.8293   -708.72794    142223.85   -49013.082    3774.1186   -52787.201   0.29153541 
  179400    274.99488   -1099.5794    142918.56   -48979.607    3776.3925   -52755.999   0.28399749 
  179600    276.35687   -1254.7593    143310.62   -48978.204    3795.0961     -52773.3   0.24219062 
  179800    274.95452   -1035.5041    142873.58   -49011.016    3775.8382   -52786.854   0.27951934 
  180000      275.406   -799.23047    142344.32     -48987.4    3782.0382   -52769.438   0.29787225 
  180200    272.23755   -843.82805     142521.1   -48949.444    3738.5272   -52687.971   0.27721515 
  180400    280.17744   -1110.6514    143104.12   -48898.657    3847.5625    -52746.22   0.25650832 
  180600    271.37042   -1185.7584    143174.26   -48979.624    3726.6193   -52706.243   0.25235946 
  180800    281.78024   -961.48571    142710.29   -48954.689    3869.5731   -52824.262    0.2825568 
  181000    276.83981    -850.0751    142473.83   -48996.582    3801.7282   -52798.311   0.28477808 
  181200    274.92479   -992.42859    142751.96   -48977.561      3775.43   -52752.991   0.27677671 
  181400    275.00655    -1134.418    143048.98   -49010.043    3776.5527   -52786.596   0.26513165 
  181600    272.14151   -1083.0749    142916.61   -49030.673    3737.2083   -52767.881   0.26120071 
  181800    272.28978   -894.41325    142590.14   -49008.937    3739.2444   -52748.182    0.3001932 
  182000    268.85433   -937.87242    142611.06   -49016.558    3692.0667   -52708.624   0.27584039 
  182200    271.41956   -1073.3372    142890.26   -49027.785    3727.2941   -52755.079   0.26922781 
  182400     272.7397   -1130.9641    142989.66    -49027.28     3745.423   -52772.703   0.26482247 
  182600    272.92434   -1002.4824    142739.48   -48996.295    3747.9586   -52744.254   0.26204037 
  182800    275.30204   -848.06521    142550.36   -48966.217    3780.6106   -52746.828   0.30057155 
  183000    273.93597    -980.6148    142755.58   -48964.872    3761.8509   -52726.723   0.27468346 
  183200    272.96765   -1125.8792     143037.7    -48943.53    3748.5533   -52692.084   0.26436549 
  183400    272.86194   -1060.6301    142949.23   -48951.781    3747.1017   -52698.883   0.26891898 
  183600    274.74967   -953.75428    142640.05   -48984.243    3773.0251   -52757.268   0.27754191 
  183800    274.37789   -870.80397    142551.98   -49016.224    3767.9196   -52784.144   0.29198781 
  184000    273.18409   -1003.8254    142801.57   -49024.762    3751.5256   -52776.288   0.27120707 
  184200    276.16809   -1114.4274    142993.06   -49061.089    3792.5037   -52853.593   0.26967198 
  184400    272.93984    -1002.264    142792.56   -49072.611    3748.1715   -52820.783   0.26515835 
  184600    272.00228   -876.83099    142527.66   -49083.877    3735.2964   -52819.173   0.28532355 
  184800    268.02716   -901.91721    142615.62    -49072.15    3680.7076   -52752.858   0.29746284 
  185000    271.44841    -1046.556    142949.61   -49059.106    3727.6902   -52786.796   0.25190226 
  185200    267.31139   -1198.1434     143021.8   -49111.461    3670.8782   -52782.339   0.27860643 
  185400    278.51389   -930.13141    142670.13   -49096.818    3824.7176   -52921.536     0.271625 
  185600    270.20329   -841.66142    142453.02   -49103.502    3710.5915   -52814.094   0.27860531 
  185800    276.41524   -971.98587    142753.64   -49047.461    3795.8977   -52843.359   0.27565382 
  186000    273.69992   -1162.3197       143123   -49028.393    3758.6092   -52787.002   0.25584296 
  186200     269.7352   -1095.3677    142971.08   -49019.619    3704.1634   -52723.782   0.26868744 
  186400    277.38004   -804.99677    142499.38   -48979.488    3809.1468   -52788.635   0.28443802 
  186600    276.28708   -846.62027     142507.8   -49012.543    3794.1377   -52806.681    0.2840294 
  186800      271.697   -1162.2178    143036.67   -49029.578     3731.104   -52760.682   0.26044031 
  187000     275.5796   -1241.5123    143231.82   -48998.569    3784.4222   -52782.991    0.2509824 
  187200    271.33737   -1014.7423    142671.29   -49025.078    3726.1654   -52751.244   0.29289861 
  187400    273.94987   -643.08876    142167.71   -49018.838    3762.0418    -52780.88    0.2845839 
  187600    274.21225   -985.02101    142654.56   -49052.468     3765.645   -52818.113   0.28411203 
  187800    271.74949   -1323.0467    143378.89   -49028.028    3731.8248   -52759.852   0.25244228 
  188000     276.9901   -1164.5571    143120.83   -49006.479     3803.792   -52810.271   0.24579842 
  188200    277.61194   -718.61628    142278.42   -49010.557    3812.3315   -52822.888   0.30363691 
  188400     276.5099   -695.58657    142262.54   -49000.979    3797.1976   -52798.177   0.29735863 
  188600    275.75789   -1190.7473    143148.88   -48994.931    3786.8706   -52781.801   0.25581097 
  188800    276.49278   -1367.2389    143483.01   -48998.766    3796.9625   -52795.729   0.24602029 
  189000    274.01103   -982.38303    142694.37   -49004.012    3762.8817   -52766.893   0.27645858 
  189200    275.89829   -597.41149    142057.94   -49016.211    3788.7986   -52805.009   0.30064795 
  189400      272.692   -889.35799    142587.17    -48975.81     3744.768   -52720.578   0.28645408 
  189600    272.89386   -1322.0658    143386.12   -48976.446    3747.5401   -52723.986   0.26213432 
  189800    274.07849   -1217.9732    143212.74   -49014.655    3763.8081   -52778.463   0.24726873 
  190000      272.722   -843.41578    142419.65   -49055.724    3745.1799   -52800.904   0.29016953 
  190200    271.49234   -711.54731    142252.52   -49035.384    3728.2935   -52763.678   0.30438344 
  190400    277.06433   -1038.3403    142907.05   -49026.815    3804.8114   -52831.627   0.25036735 
  190600    274.53668   -1246.4131    143306.37   -48966.237    3770.1001   -52736.337   0.25906721 
  190800    276.23769   -1062.0139    142949.82   -49003.384    3793.4594   -52796.843   0.26981204 
  191000    275.93154   -815.01168    142478.63   -49022.763    3789.2552   -52812.018    0.2752144 
  191200    275.00535   -892.56985    142576.44   -49016.725    3776.5362   -52793.261   0.28663337 
  191400    270.72704   -1106.9134    142992.42   -49033.016     3717.784     -52750.8   0.26265048 
  191600     276.3089   -1134.5661    143036.31   -48989.879    3794.4374   -52784.316   0.25430547 
  191800    271.22194   -964.70385    142688.11   -49026.803    3724.5802   -52751.383   0.28074406 
  192000    273.59498   -872.17261    142510.51   -49029.492    3757.1682   -52786.661   0.29450017 
  192200    274.14642   -999.49226    142761.12   -48998.088    3764.7409   -52762.829   0.26822594 
  192400     273.2518   -1143.2763    143022.65   -49000.536    3752.4555   -52752.992   0.25652228 
  192600     270.8039   -1043.6073    142832.07   -49029.957    3718.8394   -52748.797   0.27926901 
  192800    273.21572    -870.6754    142498.49   -49012.903    3751.9599   -52764.863   0.27270179 
  193000    277.58668   -894.09554    142558.79   -49003.112    3811.9846   -52815.096   0.28585376 
  193200    277.99529   -1086.7565    142930.82   -48953.623    3817.5959   -52771.219   0.27492579 
  193400    276.04861   -1169.1057    143036.84   -48953.687    3790.8629    -52744.55   0.25082513 
  193600    272.82284   -993.96433    142705.96   -48968.651    3746.5648   -52715.216    0.2879675 
  193800    275.45834   -847.04021    142470.58   -49018.208    3782.7569   -52800.965   0.29084998 
  194000    274.94306   -993.00511    142735.18   -49038.599    3775.6808   -52814.279   0.27036079 
  194200    276.65181   -1128.8697    143055.74   -49019.311    3799.1465   -52818.458   0.25907267 
  194400    273.54878   -1076.3216    142957.35   -49002.884    3756.5337   -52759.417   0.26566308 
  194600    267.76347   -932.99755     142631.8   -49031.335    3677.0864   -52708.422    0.2730739 
  194800    269.47364    -892.7889    142576.37   -49019.462    3700.5715   -52720.034   0.27993134 
  195000    278.01277   -1030.8421    142893.65   -49000.383    3817.8359   -52818.219   0.27570467 
  195200     275.2343    -1136.229    143101.19   -48983.265    3779.6804   -52762.945   0.25149389 
  195400    275.29126   -1007.0823    142865.91   -48988.673    3780.4625   -52769.135   0.26818608 
  195600    276.90883   -881.69136    142565.48   -48997.947     3802.676   -52800.623   0.29108977 
  195800    271.71755   -917.78213    142666.51   -49039.616    3731.3862   -52771.002   0.25886951 
  196000    269.69981   -1114.0792    143037.89   -49006.034    3703.6775   -52709.712   0.26878721 
  196200    272.74484   -1156.2824     143062.8   -48993.525    3745.4935   -52739.018   0.27113554 
  196400    272.87912   -932.55798    142668.86   -48997.839    3747.3376   -52745.177   0.27203337 
  196600    268.61545   -828.21296    142451.19   -49062.682    3688.7863   -52751.468   0.29063124 
  196800    271.92365   -1004.8926    142751.43   -49050.331    3734.2165   -52784.548   0.28204995 
  197000    273.37645   -1172.2962    143098.32   -49053.838    3754.1672   -52808.006   0.24954182 
  197200    273.18742   -1087.3645    142903.42   -49108.975    3751.5713   -52860.547   0.26446736 
  197400     273.1595   -806.51856    142370.17   -49076.636     3751.188   -52827.824   0.29737674 
  197600    274.30904   -744.41914    142372.39   -48995.945    3766.9742   -52762.919   0.28236073 
  197800    273.36037   -1189.0416    143070.93   -48973.587    3753.9464   -52727.534    0.2646936 
  198000    273.19049   -1341.7118    143374.84   -48994.332    3751.6135   -52745.946   0.26389826 
  198200     269.6474   -969.24568    142647.11   -49029.364    3702.9577   -52732.322   0.26465568 
  198400    277.51112   -534.96375    141963.52   -48970.202    3810.9469   -52781.149   0.31141683 
  198600    274.89931   -881.69684    142588.53   -48955.314      3775.08   -52730.394   0.29100061 
  198800    272.97193   -1466.5768    143661.45   -48967.106    3748.6121   -52715.718   0.23196127 
  199000    272.61123   -1328.9557    143421.62   -48976.763    3743.6588   -52720.422   0.24993272 
  199200    273.29145    -694.8194    142214.66   -48988.374         3753   -52741.374   0.29866664 
  199400    273.97895   -574.39557    141981.05   -49004.094    3762.4411   -52766.536   0.29992337 
  199600    272.06277   -1132.1261    143022.72   -49013.499     3736.127   -52749.626   0.25974968 
  199800    272.53688   -1431.7657    143598.39   -48981.164    3742.6378   -52723.802   0.24341889 
  200000    274.47891   -1048.4178    142906.19   -49010.514    3769.3068   -52779.821   0.26127865 
Loop time of 229.423 on 6 procs for 200000 steps with 4608 atoms

Performance: 376.597 ns/day, 0.064 hours/ns, 871.753 timesteps/s
99.0% CPU use with 6 MPI tasks x no OpenMP threads

MPI task timing breakdown:
Section |  min time  |  avg time  |  max time  |%varavg| %total
---------------------------------------------------------------
Pair    | 187.36     | 189.49     | 191.58     |  11.2 | 82.59
Neigh   | 12.79      | 13.095     | 13.586     |   9.2 |  5.71
Comm    | 14.005     | 16.667     | 19.143     |  41.0 |  7.26
Output  | 3.0489     | 3.0499     | 3.0539     |   0.1 |  1.33
Modify  | 5.6698     | 5.7885     | 5.8847     |   2.8 |  2.52
Other   |            | 1.333      |            |       |  0.58

Nlocal:        768.000 ave         774 max         758 min
Histogram: 1 0 0 1 0 1 0 0 1 2
Nghost:        1659.17 ave        1679 max        1643 min
Histogram: 2 0 0 1 0 1 0 0 1 1
Neighs:        0.00000 ave           0 max           0 min
Histogram: 6 0 0 0 0 0 0 0 0 0
FullNghs:      24060.3 ave       24228 max       23731 min
Histogram: 1 0 0 0 0 1 1 0 1 2

Total # of neighbors = 144362
Ave neighs/atom = 31.328559
Neighbor list builds = 13255
Dangerous builds = 0
write_data		data.${NAME}
write_data		data.ice_274K_-1000atm_mW
System init for write_data ...
Total wall time: 0:05:41
