

read_data data.ice_${TEMP}K_${PRES}atm_mW group ice
read_data data.ice_274K_${PRES}atm_mW group ice
read_data data.ice_274K_-1000atm_mW group ice
Reading data file ...
  orthogonal box = (0.35899044 0.31910262 0.31910262) to (56.911520 50.588017 50.588017)
  3 by 1 by 2 MPI processor grid
  reading atoms ...
  4608 atoms
  reading velocities ...
  4608 velocities
  read_data CPU = 0.020 seconds
read_data data.liq_${TEMP}K_${PRES}atm_mW add append shift ${X_HI} ${YZ_LO} ${YZ_LO} group water
read_data data.liq_274K_${PRES}atm_mW add append shift ${X_HI} ${YZ_LO} ${YZ_LO} group water
read_data data.liq_274K_-1000atm_mW add append shift ${X_HI} ${YZ_LO} ${YZ_LO} group water
read_data data.liq_274K_-1000atm_mW add append shift 50.5880173848891 ${YZ_LO} ${YZ_LO} group water
read_data data.liq_274K_-1000atm_mW add append shift 50.5880173848891 -0.31910261511101 ${YZ_LO} group water
read_data data.liq_274K_-1000atm_mW add append shift 50.5880173848891 -0.31910261511101 -0.31910261511101 group water
Reading data file ...
  orthogonal box = (0.35899044 -0.34050136 -0.34050136) to (104.25071 50.609416 50.609416)
  3 by 1 by 2 MPI processor grid
  reading atoms ...
  4608 atoms
  reading velocities ...
  4608 velocities
  read_data CPU = 0.012 seconds

write_data data.icewater_test
System init for write_data ...
WARNING: Communication cutoff is 0.0. No ghost atoms will be generated. Atoms may get lost. (../comm_brick.cpp:167)

# Define potential
#
pair_style sw
pair_coeff * * /data/emrosky-sim/Freezing_Simulations/Melting/mW_fancy/mW.sw mW
Reading sw potential file /data/emrosky-sim/Freezing_Simulations/Melting/mW_fancy/mW.sw with DATE: 2019-02-27

# Delete water and ice atoms that are overlapping
#
delete_atoms overlap 2.5 water ice
System init for delete_atoms ...
Neighbor list info ...
  update every 1 steps, delay 10 steps, check yes
  max neighbors/atom: 2000, page size: 100000
  master list distance cutoff = 6.3065
  ghost atom cutoff = 6.3065
  binsize = 3.15325, bins = 33 17 17
  2 neighbor lists, perpetual/occasional/extra = 1 1 0
  (1) command delete_atoms, occasional, copy from (2)
      attributes: full, newton on
      pair build: copy
      stencil: none
      bin: none
  (2) pair sw, perpetual
      attributes: full, newton on
      pair build: full/bin/atomonly
      stencil: full/bin/3d
      bin: standard
Deleted 695 atoms, new total = 8521

# set timestep
#
timestep 10.0

# Define output
#
compute 1 all msd
thermo 50
thermo_style custom step temp press vol etotal ke pe c_1[4]

# Neighbor lists
#
neigh_modify delay 0 every 1 check yes

# Set fixes
#
fix 1 all momentum 10 linear 1 1 1 rescale
fix 2 all nph iso ${PRES} ${PRES} ${PCOUPL}
fix 2 all nph iso -1000 ${PRES} ${PCOUPL}
fix 2 all nph iso -1000 -1000 ${PCOUPL}
fix 2 all nph iso -1000 -1000 10000.0
fix 3 all temp/csvr ${TEMP} ${TEMP} ${TCOUPL} 837492
fix 3 all temp/csvr 274 ${TEMP} ${TCOUPL} 837492
fix 3 all temp/csvr 274 274 ${TCOUPL} 837492
fix 3 all temp/csvr 274 274 5000.0 837492


# Fix ice atoms in place
#
velocity ice set 0.0 0.0 0.0
fix 4 ice setforce 0.0 0.0 0.0

# Run 1.0 ns equilibration of water
#
dump 1 all atom 1000 eq.all.${NAME}.dump
dump 1 all atom 1000 eq.all.coexist_274K_-1000atm_mW.dump
run 100000
Neighbor list info ...
  update every 1 steps, delay 0 steps, check yes
  max neighbors/atom: 2000, page size: 100000
  master list distance cutoff = 6.3065
  ghost atom cutoff = 6.3065
  binsize = 3.15325, bins = 33 17 17
  1 neighbor lists, perpetual/occasional/extra = 1 0 0
  (1) pair sw, perpetual
      attributes: full, newton on
      pair build: full/bin/atomonly
      stencil: full/bin/3d
      bin: standard
Per MPI rank memory allocation (min/avg/max) = 4.596 | 4.604 | 4.612 Mbytes
Step Temp Press Volume TotEng KinEng PotEng c_1[4] 
       0    125.39834   -1998.6354    269691.89   -86305.107    3184.6792   -89489.786            0 
      50    150.50905   -1615.0623    267906.59   -86038.983    3822.4033   -89861.387   0.97202603 
     100    158.95286   -750.99395    264662.59   -85765.713    4036.8466    -89802.56    2.1846583 
     150    167.05865   -740.15398    263074.39   -85468.739    4242.7052   -89711.444     3.377377 
     200    171.20443   -664.83964    263098.15   -85266.492    4347.9937   -89614.486    4.5547131 
     250    174.90849   -1167.7329    264350.95   -84989.935    4442.0638   -89431.999    5.7028483 
     300    179.99959   -1256.7286       265411   -84668.202    4571.3598   -89239.561    7.0279497 
     350    183.31805   -990.32095    265534.77   -84472.621    4655.6372   -89128.259    8.5057701 
     400    186.15162   -975.02013    265137.21   -84277.833    4727.5998   -89005.433    10.112431 
     450     192.4992   -911.51386    264953.18   -84044.797    4888.8063   -88933.604    11.871052 
     500    196.31094   -1045.5648    265074.36   -83865.392     4985.611   -88851.003    13.564454 
     550    194.98749   -942.06524    265337.06   -83685.502    4952.0001   -88637.503    15.366547 
     600    200.21138   -905.21598    265701.12   -83508.303    5084.6687   -88592.972    17.226612 
     650    200.75161   -980.38974    266112.28   -83321.497    5098.3887   -88419.885    19.050763 
     700    208.34619   -810.71551    266546.97   -83145.801    5291.2643   -88437.066    21.224699 
     750     207.9104   -1051.6601    267147.75   -82991.245    5280.1967   -88271.441    23.289528 
     800     213.6999   -1141.2014    267308.84   -82820.871    5427.2298     -88248.1    25.389821 
     850    213.53533    -1138.415    267060.09   -82650.458    5423.0503   -88073.508    27.520554 
     900    220.88756   -784.94003    266834.78   -82500.331    5609.7714   -88110.103    29.955221 
     950    221.09219   -1023.1587    267086.62   -82353.364    5614.9681   -87968.332    32.470151 
    1000    223.26586   -891.18078    267411.89   -82226.228    5670.1717     -87896.4     35.07275 
    1050    225.54067   -993.33409     267937.2   -82110.517     5727.944   -87838.461    37.770484 
    1100    228.52866   -1150.6009    268262.58   -82007.254    5803.8286   -87811.083    40.529491 
    1150    228.27061   -786.07105    268245.95   -81900.004    5797.2749   -87697.279     43.16093 
    1200    232.68867   -870.03918     268280.5   -81815.964    5909.4782   -87725.442     45.73595 
    1250    235.57024   -938.83135    268347.21    -81726.03      5982.66    -87708.69    48.716792 
    1300    234.98309   -1076.3876    268446.74   -81646.602    5967.7484    -87614.35     51.54103 
    1350    231.30228   -868.77411    268594.68   -81566.926    5874.2687   -87441.195    54.112892 
    1400    237.12536   -850.82928    268819.58     -81450.5    6022.1547   -87472.655    56.500779 
    1450    238.11056   -1065.2083     269035.5   -81352.184    6047.1752   -87399.359    59.628013 
    1500    243.23213   -918.69437     269065.8   -81286.431    6177.2453   -87463.677    62.434492 
    1550    240.61186   -861.05683    269135.79   -81212.277    6110.6994   -87322.977    64.851104 
    1600    243.11683   -1076.4296    269557.36    -81132.66     6174.317   -87306.977    67.792688 
    1650    248.01383   -990.83059     269788.2   -81076.771    6298.6838   -87375.455    70.629323 
    1700    249.76058   -1243.0024    269951.78   -80981.921    6343.0451   -87324.966    73.475617 
    1750    248.63478   -783.71752    269627.76   -80934.554    6314.4537   -87249.007    75.975017 
    1800    250.06955   -1012.1212    269431.66    -80853.86    6350.8918   -87204.752    78.908156 
    1850    251.53202   -1044.2595    269371.23   -80781.661    6388.0333   -87169.694    81.854128 
    1900    252.33163   -1044.9306    269637.01   -80696.159    6408.3407   -87104.499    85.176302 
    1950    254.77184   -931.51492     270110.8   -80622.813    6470.3134   -87093.126     88.41959 
    2000    254.61459   -1109.5719    270596.46   -80532.059    6466.3198   -86998.379    91.342779 
    2050    257.07534   -1033.3653    270577.62   -80525.476    6528.8143    -87054.29    94.446856 
    2100    256.69674   -1103.1032    270506.78   -80499.312    6519.1991   -87018.511    97.684907 
    2150    255.45894   -1108.4894    270320.22    -80450.28    6487.7635   -86938.043    100.86005 
    2200    256.54015   -750.33816    269958.97   -80393.362    6515.2223   -86908.584    104.13897 
    2250    254.88644   -760.85911     270213.1     -80362.3    6473.2238   -86835.523    107.46147 
    2300    259.51023    -1246.305    271088.78   -80268.937    6590.6519   -86859.589    110.93916 
    2350    261.76506   -1308.6809    271458.65   -80180.848    6647.9167   -86828.765    113.89002 
    2400    262.31116   -1193.9623    271219.43   -80154.888    6661.7859   -86816.674    116.97838 
    2450    265.94652    -909.0584    270705.61   -80119.177    6754.1113   -86873.288    119.73608 
    2500    267.83771   -1099.4772    270301.11   -80059.611    6802.1408   -86861.752    123.06134 
    2550     265.1433   -938.85503    270414.74   -80033.754    6733.7123   -86767.466    125.42095 
    2600    270.09356   -1110.7124    270989.45   -80010.114    6859.4315   -86869.545    128.30897 
    2650    262.27965   -970.70921    271482.35   -79924.211    6660.9855   -86585.196    131.47547 
    2700    264.61722   -1002.5122    271711.36   -79894.489    6720.3517   -86614.841    135.20161 
    2750     267.4052   -1112.5769    271825.37    -79905.32    6791.1565   -86696.476    138.45403 
    2800    269.85966   -1021.6866    271681.01   -79885.911    6853.4914   -86739.403    142.19089 
    2850    266.62893   -940.45025    271387.72   -79900.901    6771.4421   -86672.343    145.27808 
    2900    267.79531   -1030.0265    271112.74   -79918.249     6801.064   -86719.313    148.30252 
    2950    265.77633   -880.79268    270964.41   -79917.608    6749.7891   -86667.397    151.17178 
    3000    268.99147   -1117.5815    270937.86    -79876.06    6831.4423   -86707.502    154.17204 
    3050     265.6169   -934.56766    270866.86   -79881.588    6745.7401   -86627.328    157.77813 
    3100    268.11333   -1105.4725    271010.46   -79872.552    6809.1405   -86681.692    161.60931 
    3150    266.97138   -1064.0565    271300.43    -79873.13    6780.1391   -86653.269    165.06805 
    3200    270.36058    -998.8976    271589.47    -79832.93    6866.2129   -86699.143    168.99673 
    3250    273.03028   -1161.9697     271787.4   -79806.207    6934.0139    -86740.22     172.5878 
    3300    276.10523   -1113.6924    271632.76   -79767.727    7012.1069   -86779.834    176.14771 
    3350    272.61298   -948.02031    271237.99   -79678.252     6923.416   -86601.668     179.5276 
    3400    273.78374   -938.84312     271074.2   -79728.151    6953.1493     -86681.3    182.47001 
    3450    269.34219   -982.32396    271196.82   -79748.142    6840.3493   -86588.491    186.73947 
    3500    271.89334   -1001.9036     271362.1   -79736.835    6905.1395   -86641.975    190.59149 
    3550    272.60993   -1206.6903    271555.96   -79688.716    6923.3386   -86612.055    193.76091 
    3600    271.89751   -936.12851    271567.52   -79705.929    6905.2457   -86611.174    196.60838 
    3650    266.49387   -827.33211    271733.53   -79703.433    6768.0119   -86471.445    200.00654 
    3700    267.80501   -837.94284       271609   -79699.057    6801.3105   -86500.368    203.17861 
    3750    267.84974   -1018.8829    271694.53   -79720.158    6802.4463   -86522.604    206.15628 
    3800    270.48461   -1073.6267    271751.98    -79719.45    6869.3629   -86588.813    209.45271 
    3850    272.97794   -776.63016    271691.03   -79706.149    6932.6846   -86638.834     213.2099 
    3900     269.8925     -1115.93    271905.81   -79707.349    6854.3254   -86561.674    216.37066 
    3950     269.4462   -991.23783    272018.32   -79661.913    6842.9908   -86504.904    220.52465 
    4000    273.81278   -1156.7255    272122.97   -79669.611    6953.8867   -86623.498     223.9372 
    4050     268.4518   -1008.6803    271889.59   -79657.144    6817.7366    -86474.88    226.87836 
    4100    275.44656   -1134.0132    271479.81   -79663.807    6995.3789   -86659.186    229.31528 
    4150    275.67552   -915.27571    271035.92   -79639.597    7001.1939    -86640.79    232.40303 
    4200    273.45798   -870.89859    271161.17   -79636.283     6944.876   -86581.159    235.31347 
    4250    271.16653   -1273.1874    271833.25    -79605.33    6886.6813   -86492.011    239.53893 
    4300    272.09956   -1132.6133    272295.27   -79609.774    6910.3769   -86520.151    242.56204 
    4350    271.92832    -1097.371    272153.92   -79623.478     6906.028   -86529.506    245.75034 
    4400    272.82744   -934.39269    271677.04   -79624.315    6928.8625   -86553.178    248.94362 
    4450    269.68438   -680.98271    271359.72   -79562.781    6849.0397   -86411.821    251.69461 
    4500    280.43119   -957.18122    271481.17   -79521.477    7121.9712   -86643.448    254.52242 
    4550    275.85648   -1046.8172    271761.72   -79474.188    7005.7895   -86479.978    258.35684 
    4600    274.85732   -1058.8828     271830.3   -79470.558    6980.4144   -86450.972    261.50746 
    4650    279.66384   -814.70446    271785.99   -79415.115     7102.483   -86517.598    263.84026 
    4700    280.82277   -1048.0205    271971.32   -79400.186    7131.9159   -86532.101    267.22531 
    4750    276.81542   -1147.2158    272181.39   -79417.718    7030.1434   -86447.862     270.3528 
    4800    273.95582   -1209.4065     272177.7   -79417.292    6957.5194   -86374.812    274.34214 
    4850    279.13284   -922.10197    271713.19   -79432.074    7088.9977   -86521.072    278.13113 
    4900    276.50696   -593.64822    271356.24   -79435.558    7022.3095   -86457.867     281.5827 
    4950    273.31578   -941.91117     271382.3   -79444.127    6941.2648   -86385.392    285.88444 
    5000    281.15934   -1169.9503    271659.64   -79457.746    7140.4637    -86598.21    288.97333 
    5050    275.72247   -957.77109    272048.64   -79467.078    7002.3862   -86469.465    292.04308 
    5100    276.07562   -1367.1713     272233.2   -79477.937     7011.355   -86489.292     294.5685 
    5150    275.27181   -1187.7739    271804.71   -79511.144    6990.9411   -86502.085    298.45393 
    5200    280.03075   -859.93271    271413.42   -79520.869    7111.8014   -86632.671    301.88355 
    5250     275.6789   -871.22795    271412.35   -79507.564    7001.2797   -86508.844    304.99214 
    5300    274.33234   -781.28093    271736.53   -79496.526    6967.0818   -86463.608    308.87821 
    5350    276.81122   -1248.2625    272262.79   -79455.433    7030.0366   -86485.469    312.65705 
    5400    271.51028   -824.28503     272283.7   -79505.587    6895.4113   -86400.999     316.2596 
    5450    270.80537   -777.23367    272195.71   -79483.623    6877.5089   -86361.132    319.44092 
    5500    273.05386   -1219.9006    272209.99   -79483.248    6934.6128   -86417.861    322.82513 
    5550    273.36828   -1066.4734    271957.81   -79531.522     6942.598    -86474.12    326.81669 
    5600    272.94778   -770.04658    271533.69   -79588.705    6931.9188   -86520.624    329.66873 
    5650    272.59893   -904.50024    271344.71   -79673.292    6923.0593   -86596.351    332.86852 
    5700     275.5742   -961.18235       271376   -79650.483    6998.6206   -86649.104    336.70182 
    5750    268.83497   -1076.9352    271595.32   -79622.683    6827.4678    -86450.15    340.55547 
    5800    273.25635   -836.06814    271603.72   -79623.827    6939.7554   -86563.583    343.74254 
    5850    271.19207   -936.97648    271588.56   -79558.016    6887.3298   -86445.346    346.62774 
    5900    270.30997   -859.48758    271652.94   -79589.529    6864.9276   -86454.456    350.28572 
    5950    276.40644   -1152.0734     271671.7   -79596.297    7019.7565   -86616.053    353.47462 
    6000    273.33803   -990.89951    271586.32   -79598.199    6941.8296   -86540.029    356.12317 
    6050     276.0483   -920.15501    271722.19   -79546.167    7010.6611   -86556.828    359.84103 
    6100    275.91124   -1030.1709    271779.96   -79554.283    7007.1803   -86561.463    362.80446 
    6150    273.04113   -958.91264    271597.26   -79544.017    6934.2894   -86478.306    364.83642 
    6200    272.30725   -1038.7145    271605.35   -79560.662    6915.6516   -86476.313    367.29808 
    6250    273.62233   -908.23026    271566.15   -79543.122    6949.0499   -86492.172    369.89588 
    6300    272.60858   -900.62573    271645.74   -79510.914    6923.3042   -86434.218    372.40961 
    6350    276.68287    -1023.622    272119.21   -79474.915     7026.777   -86501.692    375.67768 
    6400    272.38788   -1006.1864    272186.91   -79530.417    6917.6993   -86448.116    379.80524 
    6450      274.959   -1038.8679    271830.59   -79541.233    6982.9967    -86524.23    382.66252 
    6500    275.65653   -821.68697    271328.35   -79501.324    7000.7114   -86502.036    384.27356 
    6550    275.30338   -799.47617    271192.66    -79487.24    6991.7428   -86478.983     387.6023 
    6600    270.36565   -739.25929    271565.44   -79494.328    6866.3418   -86360.669    391.98925 
    6650    271.00397   -1192.4535    272099.85   -79531.385    6882.5527   -86413.938    395.38221 
    6700    276.02694   -1113.7046    272168.02   -79542.307    7010.1186   -86552.426    399.69535 
    6750    271.05915   -861.44265    271885.28   -79566.572    6883.9542   -86450.526    402.77173 
    6800    272.27202   -1048.4845    271661.39   -79537.839    6914.7569   -86452.596     406.0106 
    6850    272.08093   -851.01821     271410.9   -79541.793    6909.9038   -86451.696    409.33665 
    6900    275.71621   -982.32998    271456.87   -79512.877    7002.2271   -86515.104    411.38364 
    6950    280.18436    -1071.241    271734.61   -79506.123    7115.7026   -86621.825    414.83008 
    7000    269.97222   -1177.6026    272076.24   -79477.747    6856.3499   -86334.097    419.18479 
    7050    274.10826   -1056.2845    272322.45   -79454.194    6961.3909   -86415.584    422.44129 
    7100    275.08472   -1007.1423    272358.86   -79458.285    6986.1895   -86444.475    425.55561 
    7150    274.97194   -1280.0771     272006.3   -79512.988    6983.3254   -86496.313    428.25172 
    7200    273.41457   -898.46894    271316.63   -79561.423    6943.7736   -86505.197    431.53418 
    7250    276.16847   -995.08159     270977.7   -79519.554    7013.7129   -86533.267     433.9609 
    7300      271.656   -761.36871    271124.82    -79493.43     6899.112   -86392.542    437.19994 
    7350    276.59803   -889.91254    271697.63   -79478.435    7024.6223   -86503.057    441.29504 
    7400    274.94677   -1118.1259    272356.66    -79427.73    6982.6861   -86410.416    445.42299 
    7450    279.20588    -1355.728    272484.38   -79399.625    7090.8526   -86490.477    447.81201 
    7500    277.25482   -1090.3376    272135.45   -79471.228    7041.3025    -86512.53    450.33927 
    7550    276.27682   -751.02945    271944.47   -79507.467    7016.4647   -86523.932    452.77495 
    7600     277.6872   -1196.0111    272167.55   -79453.543    7052.2835   -86505.827    456.13009 
    7650    277.76929   -1035.1263    271714.03   -79474.358    7054.3682   -86528.726    458.66279 
    7700    283.14229   -700.02699    271330.69   -79478.493    7190.8235   -86669.316    462.67202 
    7750    273.68432   -996.79659    271720.91   -79438.874    6950.6242   -86389.499    466.64514 
    7800    275.65247    -1032.738    272027.18    -79467.35    7000.6084   -86467.958     469.5022 
    7850    276.95654   -1035.0376    272207.51   -79443.567    7033.7272   -86477.294     472.4337 
    7900    277.72992   -1128.5946    272089.22   -79478.585    7053.3684   -86531.953    475.66955 
    7950    277.91416   -1097.0855    271944.51   -79526.822    7058.0473    -86584.87    478.52496 
    8000     277.6719   -980.12993    271764.85   -79515.693    7051.8949   -86567.588     481.4828 
    8050    274.11378   -878.81411    271693.09   -79497.501    6961.5312   -86459.032    484.40421 
    8100    273.66937   -1048.4944    271639.98   -79537.705    6950.2446    -86487.95    487.22801 
    8150    276.14944   -950.13254    271544.24   -79483.021    7013.2298   -86496.251    489.83594 
    8200    274.10008   -805.42863    271549.21   -79506.321    6961.1831   -86467.504    492.81089 
    8250    273.78017   -1006.1889    271873.14    -79499.62    6953.0585   -86452.679    495.67706 
    8300    271.97986   -981.06001    272124.06   -79483.646    6907.3369   -86390.983    498.77815 
    8350    271.04744   -1041.2914    271929.53   -79535.465    6883.6567   -86419.122     502.4869 
    8400    276.86194   -928.08632    271481.95   -79544.194    7031.3248   -86575.519    504.78424 
    8450     272.1531   -809.59688    271580.56   -79542.683    6911.7366   -86454.419    508.02581 
    8500    274.93055   -1150.7364    272027.39    -79523.88    6982.2741   -86506.155     511.8928 
    8550     277.1668   -1193.9411    272205.31   -79545.797    7039.0672   -86584.865    515.06403 
    8600    268.99998   -1065.7818     272075.2     -79536.9    6831.6583   -86368.558    519.55105 
    8650    271.64114   -851.42146    271752.18   -79539.339    6898.7347   -86438.074    521.68273 
    8700    281.47764    -1114.127    271730.91   -79541.453    7148.5473       -86690    524.89804 
    8750    277.26352   -1069.4629    271717.79   -79512.039    7041.5234   -86553.563    528.12867 
    8800    274.22789   -928.67788    271732.75   -79525.608    6964.4291   -86490.037    531.26785 
    8850     272.8996   -1050.8966    271755.99   -79566.126     6930.695   -86496.821    534.85243 
    8900    274.99901   -1034.0704    271550.74   -79587.473    6984.0127   -86571.486    536.84752 
    8950     276.5119   -1135.8222     271584.7   -79564.325    7022.4348    -86586.76    538.03329 
    9000    269.93342   -985.03341    271716.94   -79555.764    6855.3645   -86411.129    540.76377 
    9050    272.45198   -926.87439    271777.31   -79548.801    6919.3272   -86468.128    544.09165 
    9100    272.19231   -953.97174    271778.57   -79610.824    6912.7324   -86523.557    545.78315 
    9150    275.66882    -874.4387    271661.01   -79576.269    7001.0236   -86577.292    549.08758 
    9200    269.44858   -932.62434    271623.58   -79581.096    6843.0514   -86424.148    550.76658 
    9250     272.5153   -938.20938    271598.39   -79611.844    6920.9352   -86532.779    553.35106 
    9300    269.40423   -1054.6543    271419.81   -79659.124     6841.925   -86501.049    556.09944 
    9350    273.43591    -756.8093    271059.91   -79643.075    6944.3155   -86587.391    558.19198 
    9400    274.54368   -903.46788    271145.47   -79635.533    6972.4491   -86607.982       561.99 
    9450    274.51646   -955.17575    271426.51   -79593.994    6971.7578   -86565.752    566.25746 
    9500    269.39281    -939.8531    271906.21   -79601.884    6841.6349   -86443.519    569.43316 
    9550    271.62752   -1292.6542     272174.6   -79582.553    6898.3888   -86480.942    572.71698 
    9600    276.49876   -1118.5754    271922.87    -79562.46    7022.1013   -86584.561    575.76033 
    9650    276.65623   -920.85911    271455.79   -79603.956    7026.1004   -86630.057    577.28479 
    9700    273.65591   -771.63445    271185.98    -79607.71    6949.9029   -86557.613    580.22852 
    9750     268.3916   -825.98374    271373.64   -79606.005    6816.2078   -86422.213    583.88299 
    9800    270.10915   -1048.4335    271875.48     -79601.3    6859.8275   -86461.127    586.20394 
    9850     271.4301   -1229.0618    272242.64   -79585.467     6893.375   -86478.842    589.26786 
    9900    272.97309   -930.78005    272130.45   -79590.975    6932.5615   -86523.536    592.23398 
    9950    272.97882    -1040.707    271802.75   -79573.844     6932.707   -86506.551    594.24026 
   10000    272.85178   -779.69824    271352.48   -79580.768    6929.4807   -86510.249    595.92527 
   10050    276.99561   -915.38758    271295.24   -79585.148    7034.7194   -86619.867    597.03037 
   10100     276.0546   -962.02598    271541.66    -79556.35    7010.8211   -86567.171    599.92372 
   10150    272.04261   -988.46602    271923.32   -79534.502    6908.9305   -86443.432    603.34158 
   10200    272.41761   -972.57889    272100.72   -79521.479    6918.4543   -86439.933    607.42118 
   10250    274.09117   -986.63324    272009.24   -79529.116    6960.9568   -86490.073    609.98323 
   10300    274.65087   -1064.3647    271841.56   -79508.314    6975.1713   -86483.485      611.464 
   10350    275.21492   -974.46148    271651.42   -79512.053    6989.4963   -86501.549    614.10279 
   10400    272.58672   -791.57648    271502.86   -79577.682    6922.7492   -86500.431    617.37913 
   10450    274.90641   -876.21725    271538.11   -79556.354     6981.661   -86538.015    620.35325 
   10500    269.43969   -823.85654    271748.77   -79550.688    6842.8256   -86393.514     622.7791 
   10550    276.81327   -1310.0269    272149.27    -79530.68    7030.0886   -86560.768    625.82033 
   10600    278.53942    -1278.845    272115.93   -79526.513    7073.9269    -86600.44     630.0267 
   10650    273.92619   -1011.2842    271875.43   -79511.061    6956.7668   -86467.827    632.66158 
   10700    277.31966   -1073.7309    271824.73   -79535.355    7042.9491   -86578.304    635.15086 
   10750    270.27289   -892.99995    271851.69   -79508.748    6863.9858   -86372.734    636.89738 
   10800    272.41855   -973.79347    271960.82    -79525.81     6918.478   -86444.289    639.12473 
   10850    276.35033   -1198.3599       272023   -79475.401    7018.3316   -86493.733    642.80264 
   10900    276.54048   -893.85177    271993.61   -79480.179    7023.1607   -86503.339    645.03157 
   10950    279.08307   -957.92414    272026.14   -79485.732    7087.7337   -86573.465    648.10488 
   11000    274.69592   -974.12204    271855.72   -79528.437    6976.3153   -86504.752    649.26891 
   11050    272.54959    -1044.772    271723.32   -79557.374    6921.8062   -86479.181    651.09299 
   11100    276.65923   -917.89872    271752.52   -79537.604    7026.1766   -86563.781    654.22266 
   11150    275.94421   -996.97035    271850.63   -79547.607    7008.0176   -86555.624    657.52957 
   11200    277.01856   -1072.0715    271886.62   -79534.548    7035.3023    -86569.85    660.78909 
   11250    272.68583   -1069.4678    271941.25   -79561.378    6925.2661   -86486.644    662.51414 
   11300    272.35727   -1025.8232    271897.33   -79547.298     6916.922    -86464.22    663.05756 
   11350    269.97462   -1109.4555    271758.74   -79581.579    6856.4109    -86437.99    665.63857 
   11400    276.82053   -923.61819    271640.09   -79589.012    7030.2731   -86619.285    666.57817 
   11450    275.79949   -778.90743    271646.64   -79638.087    7004.3422   -86642.429    670.28607 
   11500    272.95702    -1022.213    271954.69   -79628.643    6932.1534   -86560.797    673.69302 
   11550    273.65838   -1165.0325    272107.91   -79650.693    6949.9655   -86600.658    676.03378 
   11600     271.6029   -1041.8969    271670.81   -79638.769    6897.7636   -86536.533    678.00186 
   11650    276.42401   -1013.8793     271270.6   -79632.475    7020.2027   -86652.678    680.13914 
   11700    272.90848   -781.53745    271099.27   -79597.485    6930.9207   -86528.406    682.28048 
   11750    270.36496   -1096.3587    271531.15   -79603.088    6866.3241   -86469.412     686.7016 
   11800    271.57358   -1029.9746    272077.56   -79612.645     6897.019   -86509.664    691.25587 
   11850    270.59523   -1122.7895    272269.77   -79534.445    6872.1721   -86406.617    693.58436 
   11900    272.54796   -918.70014    272139.55   -79616.264    6921.7646   -86538.029    696.08659 
   11950    273.75731   -962.81416    271999.41   -79608.276     6952.478   -86560.754     699.2172 
   12000    270.37686   -1085.9653    271966.26   -79616.244    6866.6263   -86482.871    702.28558 
   12050    269.47171   -902.74407    271762.05   -79602.935    6843.6386   -86446.573    705.29949 
   12100    277.11764   -839.75161    271414.62    -79582.79    7037.8185   -86620.609    707.87173 
   12150     273.7492   -956.61494    271305.34   -79572.075    6952.2719   -86524.347    710.26199 
   12200    275.06028   -948.14507    271306.71   -79565.549     6985.569   -86551.118    714.12248 
   12250    273.40461   -959.52903    271468.72   -79534.983    6943.5206   -86478.504     717.9531 
   12300    276.01478   -916.96651    271607.78    -79545.85    7009.8099   -86555.659    720.73617 
   12350    273.11934   -1064.5123    272159.14   -79564.161    6936.2757   -86500.437    723.09248 
   12400    277.44453   -1302.3887     272238.6   -79600.948    7046.1205   -86647.069    726.74355 
   12450    270.34143   -803.38914    271481.17   -79583.297    6865.7266   -86449.023    729.36805 
   12500    274.20903   -769.54457    270895.61   -79563.952    6963.9501   -86527.902    731.97033 
   12550    273.22073   -861.46164    270880.22   -79616.457    6938.8507   -86555.308    735.93874 
   12600    274.21018   -666.79078    271263.59   -79565.079    6963.9793   -86529.059    739.37368 
   12650    273.15163   -1166.4299    272205.91   -79563.253    6937.0958   -86500.348    744.57903 
   12700     272.5734   -1219.9564    272860.41   -79531.362    6922.4108   -86453.773     749.6241 
   12750    267.12917   -931.65784    272800.95   -79575.309    6784.1463   -86359.455    750.72423 
   12800     272.1727    -1049.958    272186.63   -79600.682    6912.2344   -86512.916    751.41068 
   12850     271.7519   -1071.3663    271520.78   -79601.622    6901.5476    -86503.17    753.51836 
   12900    275.35329   -840.35446    271120.37   -79587.338    6993.0102   -86580.348    756.37118 
   12950    270.89274   -811.18194    271506.22   -79594.591    6879.7279   -86474.319    759.90566 
   13000    272.68516   -1087.6152     272104.5   -79562.866    6925.2492   -86488.115    764.04284 
   13050    272.91859   -1253.7165    272421.88   -79542.604    6931.1774   -86473.781    768.84058 
   13100     273.2639   -983.86595    272095.35   -79523.107    6939.9471   -86463.054    771.15397 
   13150    273.02456   -876.19177     271738.8   -79547.701    6933.8687    -86481.57    772.74378 
   13200    277.73258   -1031.1135    271607.93   -79573.233     7053.436   -86626.669    774.41781 
   13250    275.12656   -1231.1493    271609.28   -79623.668     6987.252    -86610.92    777.22477 
   13300    276.12752   -1036.4521    271468.73   -79625.687    7012.6731    -86638.36    779.01063 
   13350     269.1365    -931.2735    271489.54   -79601.366    6835.1256   -86436.491    783.43294 
   13400    267.33151   -917.04107     271847.5   -79621.329    6789.2852   -86410.614    788.07067 
   13450    271.64443   -1182.2613     272269.2   -79638.978    6898.8183   -86537.797     791.5816 
   13500    270.64914   -1054.9389    271953.68   -79607.527    6873.5413   -86481.069    793.97128 
   13550    273.36895   -903.73758    271300.83   -79695.313    6942.6151   -86637.928    794.85605 
   13600     271.4156   -981.39741    270853.71   -79706.479    6893.0067   -86599.486    795.94607 
   13650    273.58583   -768.62697    270812.03   -79715.638    6948.1229   -86663.761    798.59852 
   13700    269.77847   -1070.8687    271472.89   -79693.654    6851.4293   -86545.083    803.25529 
   13750    272.11804   -899.65974       271975   -79670.882    6910.8462   -86581.728     807.0974 
   13800      268.598   -904.04154    272157.53   -79706.587    6821.4496   -86528.037    811.20805 
   13850    268.19698   -945.45928    271832.37    -79697.73    6811.2651   -86508.995    813.84996 
   13900    270.38415   -805.35387    271203.28   -79677.159    6866.8114    -86543.97    814.70858 
   13950    271.90923   -971.74126    270848.44   -79701.229    6905.5433   -86606.773    815.49906 
   14000     271.8353   -905.78712    271103.69   -79654.595    6903.6656    -86558.26    818.68656 
   14050    271.04617   -1196.5395     271882.4   -79632.256    6883.6244    -86515.88    822.69319 
   14100    269.94949   -1092.6135    272231.17    -79616.43    6855.7726   -86472.203    827.37178 
   14150    273.17334   -1033.8641    272003.34   -79625.418    6937.6471   -86563.065    832.07143 
   14200    271.52969   -772.49448    271452.45   -79621.292    6895.9041   -86517.196    833.44872 
   14250    276.01248   -869.79387    271305.87   -79552.162    7009.7514   -86561.913    836.03594 
   14300    280.07459   -869.28012    271365.23   -79582.235    7112.9149    -86695.15    839.07249 
   14350    269.27812   -1041.6703    271901.32   -79571.759    6838.7221   -86410.481    844.53397 
   14400    268.59793   -1067.0957    272281.76   -79536.057    6821.4477   -86357.505    847.73776 
   14450    270.04348   -1106.0823    272145.89    -79581.72    6858.1597    -86439.88    850.94237 
   14500    269.18747    -834.2833    271611.92   -79592.461    6836.4201   -86428.881    851.98848 
   14550    273.30898   -913.21186    271383.12    -79636.15     6941.092   -86577.242    854.32769 
   14600    271.55873    -718.9167    271447.83   -79628.182    6896.6417   -86524.824    856.22386 
   14650    277.10153   -1016.1775    271673.39   -79639.344    7037.4094   -86676.754    858.36862 
   14700    275.17368   -1137.2946    271850.27   -79604.874    6988.4487   -86593.322    861.87476 
   14750    275.27963   -909.46292    271889.24   -79613.711    6991.1396    -86604.85     865.7955 
   14800    268.94359   -889.27052    271820.67    -79658.76    6830.2264   -86488.986    868.63521 
   14850    271.45055   -977.05938    271666.02   -79674.696    6893.8942    -86568.59    872.22335 
   14900    271.42266   -968.52268    271451.82   -79683.576     6893.186   -86576.762    874.99766 
   14950    273.02948   -1081.6321    271297.03   -79758.128    6933.9936   -86692.122    876.70559 
   15000    268.80621   -828.87634    271263.56   -79747.342    6826.7374   -86574.079    881.49729 
   15050    266.83326   -944.53859     271339.8   -79741.318    6776.6313    -86517.95    884.60832 
   15100     269.6952   -986.71855    271642.04   -79712.829    6849.3145   -86562.144    889.46922 
   15150    271.77167   -1052.2673    271825.09   -79717.312    6902.0495   -86619.361    892.60897 
   15200     267.7172   -988.33558    271872.33    -79701.36    6799.0802    -86500.44    896.69957 
   15250    266.64839   -929.32009    272002.32    -79706.76    6771.9362   -86478.696    899.92898 
   15300    272.18655   -1152.7883    271823.63   -79673.571    6912.5862   -86586.157     901.4233 
   15350    273.08707   -946.42924    271414.89   -79682.704    6935.4563    -86618.16     904.0916 
   15400    273.25789   -1014.7868    271326.73   -79649.434    6939.7944   -86589.229    907.41687 
   15450    268.35924   -1057.8055    271576.37   -79654.062    6815.3858   -86469.448    912.30503 
   15500    272.48288   -1106.8011    271819.16   -79639.899    6920.1118   -86560.011     917.5129 
   15550    271.19448   -1121.3969    271793.35   -79649.419    6887.3911    -86536.81    921.92123 
   15600    276.10503   -1011.0872    271661.16    -79655.02    7012.1019   -86667.122     925.5654 
   15650     270.2061   -906.47819    271564.83   -79656.422    6862.2897   -86518.712    929.25233 
   15700    273.32384   -918.82071    271585.12   -79634.324    6941.4694   -86575.794    932.39678 
   15750    272.24014   -1253.8559    271900.95   -79634.502    6913.9471   -86548.449    936.30154 
   15800    273.69888   -1084.9689    271780.76   -79632.916     6950.994    -86583.91    938.15824 
   15850    274.69378   -1016.5094    271376.18   -79626.463    6976.2611   -86602.724    941.38867 
   15900    271.59363   -763.06486    271152.07   -79631.818    6897.5281   -86529.347    944.57568 
   15950    274.34012   -1130.4261    271623.86   -79602.925    6967.2792   -86570.204    947.56211 
   16000    268.89378   -820.77949    271968.59   -79566.098    6828.9614   -86395.059    952.49592 
   16050    274.25488   -1215.6567    272159.31   -79524.692    6965.1146   -86489.807    955.75056 
   16100    275.43851   -912.06233    271987.83    -79523.52    6995.1745   -86518.695    957.18819 
   16150     271.6118   -1024.7384    271871.87   -79525.667    6897.9895   -86423.657    959.65578 
   16200    274.98024   -733.72379    271707.14   -79479.016    6983.5361   -86462.552    961.82329 
   16250    271.86103   -945.65716    271722.82   -79461.194    6904.3191   -86365.513    965.30774 
   16300    279.03491   -1071.9119       271865   -79483.272    7086.5106   -86569.783    969.20776 
   16350    276.07759   -1052.0919    271976.42   -79502.412    7011.4048   -86513.817    971.69908 
   16400    274.55293   -1094.7835    272108.23   -79481.157     6972.684   -86453.841    975.63837 
   16450    270.42877   -858.72574    272075.53   -79516.963    6867.9448   -86384.908    979.73828 
   16500    270.03335   -962.63205    272095.02    -79488.91    6857.9025   -86346.813    982.99851 
   16550    275.13695   -1041.1715    272109.45   -79456.903     6987.516   -86444.419    985.95722 
   16600    274.90444   -993.84851     271932.8    -79442.38    6981.6112   -86423.991    989.11086 
   16650    276.86473   -865.30948    271911.07   -79389.378    7031.3955   -86420.773    992.66882 
   16700    273.38455   -1056.5525    271981.47   -79460.921    6943.0111   -86403.932    995.94525 
   16750    277.41072   -1088.0267    271774.94   -79488.023    7045.2618   -86533.285    998.37595 
   16800     274.0414   -880.17902    271474.01   -79506.298    6959.6927    -86465.99    1000.7461 
   16850    281.78111   -1058.7691     271683.6   -79538.978    7156.2543   -86695.233     1004.202 
   16900    270.92371   -1105.6506    272122.25   -79522.914    6880.5145   -86403.429    1007.2891 
   16950    275.04608   -864.18748    272300.61   -79482.799    6985.2082   -86468.007    1010.4462 
   17000    275.35184   -895.99252    272213.42   -79518.084    6992.9734   -86511.057    1014.0089 
   17050    277.18834   -1079.4453    272114.98   -79491.996    7039.6142    -86531.61    1017.1956 
   17100    274.40683   -1191.5923    272067.62   -79494.722    6968.9735   -86463.695    1020.4443 
   17150    277.28856   -848.31388    271920.98   -79444.036    7042.1594   -86486.196    1022.9646 
   17200    277.61913   -883.42273    271771.71   -79409.123    7050.5547   -86459.677    1026.2881 
   17250    279.74412   -936.01369    271777.56   -79414.425    7104.5219   -86518.947     1027.967 
   17300    280.57975   -1120.8583    272123.18   -79366.851    7125.7441   -86492.595    1033.2393 
   17350    276.23717   -1099.3752    272467.46   -79399.583    7015.4579   -86415.041    1038.2132 
   17400    277.99895   -1123.0704    272462.35   -79427.522    7060.2007   -86487.723    1041.7842 
   17450    275.21676   -1209.8891    272003.81   -79399.295     6989.543   -86388.838    1041.3923 
   17500    279.08739   -984.76283    271283.01   -79461.018    7087.8435   -86548.861    1041.7618 
   17550    272.39127   -848.67377     271118.3   -79504.445    6917.7854   -86422.231    1043.1994 
   17600    275.31207   -893.96793    271546.11   -79481.063    6991.9636   -86473.026    1047.6654 
   17650    278.03815   -1021.6798    272184.81   -79420.311    7061.1964   -86481.508    1052.9438 
   17700    277.86889   -1067.9886    272403.56   -79398.259    7056.8978   -86455.157    1057.6885 
   17750    275.83834   -1235.8786    272468.86   -79389.974    7005.3289   -86395.303    1060.4515 
   17800     280.4407   -1231.4697    272244.66   -79392.578    7122.2126    -86514.79    1063.0288 
   17850     276.2916   -876.64548    271540.32   -79428.229      7016.84   -86445.069    1063.6452 
   17900     275.9214   -989.93258    271378.65   -79458.004    7007.4384   -86465.442    1066.4469 
   17950    270.00456   -759.20796    271698.12   -79469.249    6857.1712   -86326.421    1070.9852 
   18000    271.20952   -1111.6668     272182.8   -79514.455     6887.773   -86402.228     1075.006 
   18050    271.79474   -1019.4167    272339.72   -79540.041    6902.6355   -86442.676     1078.349 
   18100    275.18783   -1098.4822     272018.6   -79575.942    6988.8081    -86564.75    1080.2498 
   18150    273.59978   -964.80662    271610.88   -79612.534    6948.4772   -86561.011    1081.6668 
   18200    276.05737   -821.99612    271489.77   -79568.118    7010.8913   -86579.009    1083.8364 
   18250     277.1752    -1075.774    271849.98   -79516.279    7039.2805    -86555.56    1087.6516 
   18300    270.44048   -827.18749    272020.79   -79491.945    6868.2422   -86360.187    1090.9747 
   18350    277.04867   -931.20253    272168.56   -79483.875     7036.067   -86519.942     1094.014 
   18400    274.50718   -1068.4291    272106.58   -79485.692     6971.522   -86457.214    1096.6169 
   18450    276.50696   -996.30811     271865.5   -79514.226    7022.3095   -86536.535    1099.3789 
   18500    273.11819   -963.14852    271766.05   -79481.367    6936.2467   -86417.614    1102.6529 
   18550    274.31802   -745.50167     271705.2   -79451.421    6966.7179   -86418.139    1104.8519 
   18600    277.59701   -925.67872    272063.33   -79424.162     7049.993   -86474.155      1107.92 
   18650    274.34981   -1013.3318    272389.05   -79436.937    6967.5253   -86404.462    1111.0713 
   18700    276.48997   -1147.6771    272304.34   -79456.464    7021.8779   -86478.342    1113.7089 
   18750    279.75503   -835.44587    271888.63   -79395.452    7104.7991   -86500.251    1115.4373 
   18800    274.98168   -1052.3617    271689.54   -79409.474    6983.5728   -86393.047    1120.0256 
   18850    277.64083   -888.41864    271654.95    -79445.04    7051.1059   -86496.146    1124.7347 
   18900    277.63311   -1042.0527    271752.88   -79461.733    7050.9097   -86512.643    1130.1873 
   18950    271.39093   -1056.6115    271525.19   -79491.997    6892.3801   -86384.377    1132.6894 
   19000    276.90627   -901.16675    271503.75   -79466.885    7032.4505   -86499.336    1135.2472 
   19050    273.38544   -1025.5379    271738.77   -79444.789    6943.0337   -86387.822    1138.5519 
   19100    273.88287   -858.12393    271900.37   -79479.956    6955.6669   -86435.623    1142.2004 
   19150    276.46444   -1100.2702    272221.29   -79451.127    7021.2297   -86472.357    1144.1035 
   19200    277.41722   -1139.5824    272270.67   -79466.522    7045.4268   -86511.949    1144.5211 
   19250    283.37091   -1036.1881    271837.08   -79471.313    7196.6297   -86667.943    1147.1067 
   19300    278.23148   -815.35121    271181.87   -79502.466    7066.1061   -86568.572    1149.5142 
   19350    276.43061   -896.79059    271057.69   -79532.993    7020.3705   -86553.364    1150.9547 
   19400    275.83367   -960.33069    271549.77   -79539.882    7005.2102   -86545.092     1154.175 
   19450    274.98725   -1231.9305    272207.12   -79556.539    6983.7141   -86540.254    1160.8261 
   19500    273.19755   -1261.2638    272650.26   -79601.453    6938.2621   -86539.715    1165.5868 
   19550    271.46874   -1272.1926       272448   -79534.533    6894.3563   -86428.889     1168.353 
   19600    276.53082   -890.04858    271717.34   -79531.095    7022.9153    -86554.01    1168.3716 
   19650      275.813    -718.4696    271349.68   -79497.862    7004.6853   -86502.547    1169.0953 
   19700    279.20072   -813.10078    271601.11   -79452.645    7090.7214   -86543.367    1172.3102 
   19750    277.74166   -1130.0781    272181.41    -79466.43    7053.6664   -86520.096    1177.1239 
   19800    272.21049   -1016.1958    272358.48    -79479.26    6913.1942   -86392.455    1180.8882 
   19850    277.21116   -890.25745    272361.92   -79453.785    7040.1935   -86493.979    1183.1963 
   19900    278.46928   -1131.9872    272334.75   -79396.922    7072.1456   -86469.068    1185.0167 
   19950    281.48611   -1061.6541       271723   -79412.189    7148.7625   -86560.951    1187.7155 
   20000    276.19802   -671.58598    271235.28   -79389.555    7014.4635   -86404.018    1190.3971 
   20050    275.25203   -751.98517    271631.21   -79427.119    6990.4386   -86417.558    1192.8998 
   20100    274.68556   -1256.0179    272413.52   -79435.538    6976.0523   -86411.591    1198.3397 
   20150    274.70392   -1095.6188    272390.21   -79462.819    6976.5187   -86439.337    1201.9258 
   20200    274.38703   -981.61151    272053.76   -79459.098    6968.4706   -86427.569     1204.476 
   20250    275.27253   -617.33039    271713.58   -79487.561    6990.9593   -86478.521    1205.7774 
   20300    277.27529   -958.35887    271645.05   -79468.867    7041.8223   -86510.689    1209.2127 
   20350    276.53143   -1297.8794    271760.88   -79457.225    7022.9309   -86480.156    1211.8356 
   20400     275.9619   -799.73118    271927.52     -79429.2    7008.4668   -86437.667    1214.3695 
   20450    273.85244   -1155.4219    272532.25   -79373.834    6954.8938   -86328.728    1217.3399 
   20500     276.4936   -991.59821    272829.74   -79368.393    7021.9701   -86390.363    1221.6741 
   20550    275.94335   -1279.9935    272622.26   -79358.193    7007.9956   -86366.189    1223.0863 
   20600    279.85632     -943.592    271879.51   -79365.666    7107.3716   -86473.037    1222.9811 
   20650    283.38402   -805.96247    271357.29   -79332.086    7196.9627   -86529.049    1224.6736 
   20700     278.9266   -803.71554    271484.87   -79411.144    7083.7599   -86494.904    1228.7656 
   20750    279.45164   -1093.9607    272016.99   -79400.165    7097.0939   -86497.259    1234.1545 
   20800    278.11017   -749.46556    272388.12   -79381.516    7063.0254   -86444.541    1237.7561 
   20850    275.81656   -1240.7882    272698.22   -79376.965    7004.7757    -86381.74    1240.6062 
   20900    281.88002   -1097.7841    272267.19   -79316.024    7158.7665   -86474.791    1242.4417 
   20950    277.81163   -890.40098    271701.59    -79377.65    7055.4435   -86433.093    1242.7171 
   21000    278.20453   -930.71425    271440.68   -79411.362    7065.4218   -86476.784    1245.6569 
   21050    270.71823   -779.33306    271594.98   -79363.261    6875.2961   -86238.557     1248.944 
   21100    278.88713   -1193.5748    272131.84   -79336.173    7082.7576    -86418.93    1253.6397 
   21150    277.32045   -1223.3215    272717.99   -79361.316    7042.9693   -86404.286    1261.0311 
   21200    277.13494   -1291.6235    272864.53   -79373.287    7038.2578   -86411.545    1264.6301 
   21250    277.11585   -1263.8421    272402.81   -79419.591    7037.7732   -86457.364     1265.498 
   21300    281.23947   -1094.1356    271601.52   -79430.379    7142.4988   -86572.878    1266.0936 
   21350    279.47062   -846.47418    271150.19   -79500.141    7097.5761   -86597.717    1267.7914 
   21400    278.60941   -953.45902    271270.01   -79495.864    7075.7042   -86571.568    1273.4421 
   21450    274.85597   -792.34311    271794.24   -79479.804    6980.3802   -86460.184    1277.9682 
   21500    275.74855   -1363.4986    272590.91   -79438.989    7003.0485   -86442.038    1282.4808 
   21550    274.99843   -1323.6082    272725.51   -79440.299     6983.998   -86424.297    1288.4633 
   21600    273.74569   -1096.8062    272167.28   -79488.776    6952.1829   -86440.959    1290.2804 
   21650    275.03896    -716.7291    271410.57   -79503.824    6985.0274   -86488.851    1291.9785 
   21700    274.12739   -843.68563     271299.3   -79478.606    6961.8767   -86440.483    1295.3773 
   21750    273.76153   -878.15801    271509.46    -79480.07    6952.5852   -86432.655    1298.9226 
   21800    275.61172   -894.43083    271817.99   -79490.809    6999.5735   -86490.382    1304.2746 
   21850    271.32207   -977.90767    272195.23   -79480.515    6890.6315   -86371.146    1307.4147 
   21900    276.12259   -1215.2038    272366.25   -79456.892    7012.5479   -86469.439     1311.351 
   21950    273.90285   -1109.6191    272096.23   -79471.195    6956.1741   -86427.369    1313.4023 
   22000     276.1593    -1019.541    271748.21   -79432.471    7013.4802   -86445.951    1315.9249 
   22050    277.44176   -920.17417     271832.4   -79420.444    7046.0501   -86466.494    1319.0896 
   22100     274.8727   -1235.6326    272297.77   -79392.236    6980.8049   -86373.041    1322.5472 
   22150    277.29808      -1017.8    272304.12   -79386.389    7042.4011    -86428.79    1327.1349 
   22200    278.63197   -1087.9655    272199.22   -79378.329    7076.2774   -86454.607    1330.6577 
   22250    282.89465   -1009.5415    272267.67   -79395.348    7184.5346   -86579.883    1332.9246 
   22300    276.68139   -1065.0345    272418.49   -79420.909    7026.7395   -86447.648    1336.1645 
   22350    274.24589   -976.19348    272439.68   -79431.673    6964.8862   -86396.559    1338.5863 
   22400    273.53131   -936.87576    272173.46   -79456.041    6946.7385    -86402.78    1337.1669 
   22450    276.24634   -916.00406    271697.28   -79437.441    7015.6907   -86453.132    1338.1024 
   22500      276.972   -937.44914     271291.7   -79372.559    7034.1198   -86406.679    1338.9616 
   22550    279.09168   -526.12308    271126.68    -79413.54    7087.9522   -86501.492    1341.3917 
   22600    276.29942   -1038.3709    271903.93    -79430.72    7017.0387   -86447.759    1346.8886 
   22650    268.55774   -1053.0747    272740.82   -79399.679    6820.4272   -86220.106    1351.8057 
   22700     277.5491   -1178.0131    272810.49   -79414.335    7048.7763   -86463.111    1354.1752 
   22750    272.53491   -844.66549    272181.27   -79394.396    6921.4333    -86315.83    1355.4611 
   22800    275.88131   -874.75487    271531.99   -79429.977    7006.4202   -86436.397    1357.0154 
   22850    279.60075   -700.24091    271610.55   -79425.746    7100.8808   -86526.627    1359.1183 
   22900    281.62611   -1235.1715    272132.89   -79365.181    7152.3179   -86517.499     1364.549 
   22950    276.68478   -1131.5297    272448.85   -79377.148    7026.8254   -86403.973     1370.515 
   23000    276.60299    -980.6226    272367.03   -79434.865    7024.7482   -86459.613    1373.8559 
   23050    273.46173   -995.85445    272075.35   -79421.504    6944.9712   -86366.475    1374.3824 
   23100    273.83436   -965.13828    271741.15   -79468.755    6954.4348   -86423.189     1375.124 
   23150    278.55606   -1038.6824    271524.34   -79476.921    7074.3494    -86551.27    1377.0285 
   23200    276.08528   -947.93084    271341.04   -79441.607    7011.6002   -86453.207    1378.9202 
   23250    277.91546   -759.26062    271412.74   -79434.503    7058.0806   -86492.584    1382.2216 
   23300    275.79201   -1133.9117    271818.53   -79449.813    7004.1522   -86453.965     1385.773 
   23350    281.42161   -1132.0095    272025.44   -79464.178    7147.1243   -86611.302    1389.4894 
   23400    277.21357   -1051.5656    272015.82   -79450.511    7040.2549   -86490.766    1390.1726 
   23450    277.59777   -969.43813    271785.03   -79472.771    7050.0122   -86522.784    1392.7701 
   23500    275.06712    -1043.657    271587.04   -79498.869    6985.7425   -86484.611    1392.0909 
   23550    276.21804   -940.64837     271155.2   -79504.699     7014.972   -86519.671    1392.6353 
   23600    275.23656   -822.97785    271149.04   -79516.027    6990.0459   -86506.072    1397.0818 
   23650    273.55221   -824.62945    271586.39   -79543.638    6947.2692   -86490.907    1401.2112 
   23700    272.16022   -1119.5428    272225.88   -79553.215    6911.9173   -86465.133    1404.8995 
   23750    269.42215   -1206.7911    272740.57   -79531.387    6842.3801   -86373.767    1410.2407 
   23800    273.06038    -1087.942    272593.54   -79509.164    6934.7784   -86443.942    1414.1595 
   23850    275.43544   -815.88948    271837.77   -79485.949    6995.0966   -86481.045    1414.6433 
   23900    278.53146   -1005.2425    271328.35   -79512.623    7073.7246   -86586.348     1414.021 
   23950    275.93709   -918.74767    271237.96    -79552.36    7007.8367   -86560.197    1416.9992 
   24000    270.10716   -894.57841    271613.33   -79527.415    6859.7768   -86387.192    1421.7624 
   24050    271.13261    -765.0943    272146.91   -79508.346    6885.8198   -86394.166    1425.1871 
   24100    275.61429   -1258.4983    272685.66   -79506.657    6999.6387   -86506.296    1429.7397 
   24150    277.63326   -1068.0855    272632.68   -79479.821    7050.9135   -86530.734    1432.1978 
   24200    273.25849   -1144.1573     272366.9   -79493.184    6939.8098   -86432.994    1433.6183 
   24250    276.19033   -868.44246    271718.41   -79441.293    7014.2681   -86455.562    1433.3637 
   24300    277.71344   -878.68638    271282.92   -79478.699    7052.9499   -86531.649    1436.0685 
   24350    277.23315   -775.00225    271193.63    -79510.26     7040.752   -86551.012    1436.4979 
   24400    276.62496   -1057.9503     271778.4     -79518.2    7025.3064   -86543.507    1441.3134 
   24450    274.42077   -936.10083    272247.01   -79512.742    6969.3276    -86482.07    1445.1251 
   24500    273.46363   -1153.7702     272433.6   -79506.485    6945.0194   -86451.505    1446.8262 
   24550    273.00607   -1170.0116    272305.43   -79534.583    6933.3992   -86467.983    1449.8291 
   24600     275.6792   -992.28056    271936.38   -79562.017    7001.2873   -86563.304    1451.0011 
   24650    277.87215   -910.01755    271145.67   -79565.176    7056.9804   -86622.156    1447.7371 
   24700    276.94224   -776.42676    270730.21   -79579.153    7033.3642   -86612.517    1447.9283 
   24750    274.14936     -827.675    271041.19   -79564.715    6962.4346   -86527.149    1450.5094 
   24800    273.51804   -961.34348    271815.53   -79583.529    6946.4013   -86529.931    1457.7599 
   24850    269.91929   -1213.9561     272535.1   -79559.461    6855.0056   -86414.466    1462.9456 
   24900    272.78113   -1080.9613    272443.43   -79592.847    6927.6865   -86520.533     1463.659 
   24950    269.47692    -1115.022     271848.4   -79598.883    6843.7711   -86442.654    1462.5112 
   25000    278.97511   -905.56006    271150.81   -79585.853    7084.9917   -86670.845    1461.4934 
   25050    275.30281   -781.09071     270991.1    -79578.53    6991.7283   -86570.258    1462.4548 
   25100    273.53833   -688.22797    271524.27   -79596.482    6946.9166   -86543.399    1468.1244 
   25150     274.5226   -1187.4801    272454.58   -79566.643    6971.9137   -86538.557    1474.0031 
   25200    275.59491   -1380.5733     272833.9   -79519.375    6999.1467   -86518.521    1478.3479 
   25250    272.96251   -879.29659    272462.38   -79512.242    6932.2929   -86444.535    1478.9787 
   25300    278.04008   -1194.3737    272214.83   -79488.457    7061.2453   -86549.702    1481.4935 
   25350    274.62388   -1041.9063    272073.52   -79493.165    6974.4858   -86467.651    1484.5885 
   25400    273.41284   -943.13086     271811.2   -79517.005    6943.7296   -86460.734    1487.1391 
   25450    274.79009   -962.78193    271450.51   -79544.759    6978.7069   -86523.466    1489.3878 
   25500    278.32502   -957.29317    271435.32   -79558.327    7068.4819   -86626.809    1491.0168 
   25550    279.56557   -1045.8699     271906.2   -79561.234    7099.9875   -86661.221    1495.5451 
   25600    275.78659   -998.93285    272195.45   -79569.506    7004.0146    -86573.52    1497.9989 
   25650    276.99818   -1079.2779    271882.03   -79555.217    7034.7847   -86590.002    1500.2632 
   25700    281.32134   -1034.4176    271236.56   -79539.583     7144.578   -86684.161    1500.8243 
   25750    273.29512   -694.28247    270745.71    -79557.76    6940.7399   -86498.499    1501.3976 
   25800    274.88295   -824.43597    271050.74    -79534.62    6981.0653   -86515.685    1504.1239 
   25850    280.80511   -999.58501    271830.45   -79531.589    7131.4675   -86663.057    1509.5401 
   25900    273.79004    -1372.057    272549.47   -79551.542    6953.3091   -86504.851    1515.1023 
   25950    268.24697   -1165.2129    272524.65   -79561.487    6812.5346   -86374.022    1517.9823 
   26000    272.74849   -1033.0822    271948.44   -79598.372    6926.8574    -86525.23    1519.7554 
   26050     275.7985   -909.62644    271143.66    -79611.91    7004.3172   -86616.227    1518.3646 
   26100    275.00797   -844.07232    270822.62   -79633.743    6984.2404   -86617.984     1518.577 
   26150    272.61987    -904.8616    271064.28   -79571.057     6923.591   -86494.648    1524.1191 
   26200    276.00407   -1091.1958    271474.99   -79560.895    7009.5377   -86570.433    1526.6342 
   26250    275.32346   -924.98687    271737.21   -79522.758    6992.2526   -86515.011    1529.3659 
   26300    277.43701   -883.55838    271991.12   -79522.931    7045.9296   -86568.861    1534.5838 
   26350    273.15975    -1035.396    272287.47   -79469.837    6937.3021   -86407.139    1539.3072 
   26400    274.67738   -997.35001    272478.91   -79465.419    6975.8446   -86441.264    1542.7805 
   26450    279.81914   -1152.6204    272500.69   -79509.466    7106.4271   -86615.894    1544.6732 
   26500    276.84325   -1177.1874    272262.89   -79485.514      7030.85   -86516.364    1546.2378 
   26550    270.42709   -1055.8959    271872.89   -79523.254     6867.902   -86391.156    1548.2687 
   26600    275.89793   -836.65549    271517.78   -79518.374    7006.8423   -86525.216    1548.7668 
   26650    277.96701   -983.16657    271549.13   -79548.447    7059.3895   -86607.836    1551.0833 
   26700     274.0076   -952.39696    271813.72   -79591.793    6958.8344   -86550.628    1554.3597 
   26750    272.73628   -1052.1556    271991.07   -79623.878    6926.5474   -86550.425    1556.8348 
   26800    269.54575    -1121.257    271841.54   -79626.218     6845.519   -86471.737     1558.856 
   26850    269.80307   -796.59191    271480.01   -79667.486    6852.0542   -86519.541    1560.0664 
   26900    273.55859    -1022.416    271435.97   -79693.508    6947.4311   -86640.939    1561.7059 
   26950    268.06391   -857.16064    271476.41   -79686.647    6807.8856   -86494.533    1565.7292 
   27000    275.00644   -1159.0893    271652.13   -79706.442    6984.2014   -86690.643    1568.9332 
   27050     268.4712   -939.59806    271420.45   -79702.595    6818.2294   -86520.824    1569.2686 
   27100    272.43516   -915.49591    271155.99   -79740.674       6918.9   -86659.574    1571.8593 
   27150    272.89517   -788.11497    271389.07   -79648.979    6930.5825   -86579.562    1575.4255 
   27200    272.03614   -1096.2578    272129.25   -79636.456    6908.7662   -86545.222     1580.169 
   27250    270.94065   -1376.5529    272413.86   -79624.705    6880.9448    -86505.65    1584.1667 
   27300    269.66759    -842.7381    271719.11     -79618.6    6848.6134   -86467.214    1584.1633 
   27350    272.60745   -869.71517    271172.03   -79631.914    6923.2755    -86555.19    1585.1781 
   27400    273.03676    -890.5539    271061.47   -79601.222    6934.1786     -86535.4    1586.5157 
   27450    281.02729   -920.02504    271466.66   -79563.584    7137.1101   -86700.694    1589.5394 
   27500    271.77881   -891.11999    272023.18   -79518.777    6902.2309   -86421.007    1593.5788 
   27550    274.38946   -1160.8221    272395.69   -79495.491    6968.5324   -86464.024    1597.1434 
   27600    271.22001   -1179.6985     272284.9     -79479.5    6888.0394   -86367.539    1597.8912 
   27650    275.24353   -977.67667     271818.6   -79513.885    6990.2228   -86504.108    1597.8591 
   27700    277.28163   -951.50511    271529.58   -79527.669    7041.9835   -86569.652    1596.8283 
   27750    275.42577   -1046.7978    271467.36    -79492.55     6994.851   -86487.401     1599.744 
   27800    279.10116   -1109.4218    271596.17   -79545.023     7088.193   -86633.216    1603.6212 
   27850     274.7107   -1125.2275    271535.64   -79515.355    6976.6909   -86492.045    1603.6454 
   27900     274.7463    -708.3173    271308.35   -79452.516    6977.5949   -86430.111    1606.5946 
   27950    279.22911   -1055.1234    271672.61   -79458.018    7091.4425    -86549.46    1610.0998 
   28000    277.04347   -1030.0531    272057.35   -79457.492    7035.9349   -86493.427    1614.8937 
   28050    276.91213    -1241.065    272175.26   -79435.913    7032.5995   -86468.513    1618.9564 
   28100    276.93617    -1069.652    271889.44   -79439.852    7033.2098   -86473.062    1620.3788 
   28150    275.94874   -863.37835     271735.3   -79475.544    7008.1327   -86483.677    1622.8193 
   28200    270.69305   -1054.5646    271872.72   -79497.224    6874.6565   -86371.881     1626.185 
   28250    275.46339   -951.50177    271912.47   -79450.653    6995.8063   -86446.459    1629.3677 
   28300    274.48379    -1075.688    272023.01   -79453.663     6970.928   -86424.591    1632.5229 
   28350    275.59226   -946.92799     272032.5   -79484.646    6999.0792   -86483.725    1634.1262 
   28400    276.15006   -1076.6284    271884.77   -79481.393    7013.2455   -86494.639    1636.5259 
   28450    275.77746   -1019.5355    271767.71   -79478.371    7003.7828   -86482.154    1636.8609 
   28500    275.08407   -961.72229    271776.94   -79433.119    6986.1731   -86419.292    1638.0647 
   28550    279.72306   -1039.8096    271953.38   -79397.777    7103.9871   -86501.764    1640.9484 
   28600    281.09957   -1305.5717    272436.04    -79354.49    7138.9457   -86493.436    1644.7212 
   28650    276.90225   -1129.6669    272361.43   -79365.997    7032.3485   -86398.345    1646.0238 
   28700    278.05722   -837.62888    271793.39   -79328.219    7061.6806     -86389.9    1645.8559 
   28750    280.64447   -1061.2829    271677.32     -79365.1    7127.3878   -86492.488    1649.1881 
   28800    273.04143   -972.74795    271913.95    -79428.45    6934.2972   -86362.747    1651.9554 
   28850    271.79608   -900.39995    271942.13   -79436.977    6902.6696   -86339.646    1654.6815 
   28900    275.21864   -978.85467     272231.3   -79436.301    6989.5906   -86425.892    1657.7928 
   28950    273.06152   -1024.1969    272377.14   -79441.536    6934.8074   -86376.343    1660.4514 
   29000    276.49377   -937.62392    272341.52   -79478.774    7021.9744   -86500.748    1662.1073 
   29050    277.65903   -1075.2059    272191.54   -79483.765     7051.568   -86535.333     1663.006 
   29100    270.58857   -985.67913    271799.45   -79469.142    6872.0029   -86341.145    1663.3544 
   29150    275.85146     -803.316    271394.48   -79488.663    7005.6619   -86494.325      1664.38 
   29200    275.12859   -907.00539    271353.52   -79485.498    6987.3038   -86472.801    1665.9745 
   29250    280.06433    -950.0389    271673.98   -79438.838    7112.6543   -86551.492    1671.9099 
   29300    276.69646   -1203.4102    272172.18   -79471.057    7027.1222   -86498.179    1677.8082 
   29350    276.71967   -1113.1044     272513.8   -79496.091    7027.7115   -86523.802    1682.1364 
   29400    276.03788   -1157.0148    272561.52    -79510.46    7010.3965   -86520.856    1684.9533 
   29450    275.33893   -1238.2534     272204.9   -79519.863    6992.6455   -86512.509    1684.2231 
   29500    274.44159   -795.51308    271469.46    -79537.25    6969.8563   -86507.106    1683.1718 
   29550    276.24463   -555.71975    271210.25   -79509.257    7015.6472   -86524.904    1684.5134 
   29600    272.99209   -968.02793     271894.8   -79476.106    6933.0441    -86409.15    1690.1437 
   29650    271.62372    -950.6269    272642.18   -79444.525    6898.2922   -86342.817    1696.8284 
   29700    271.65158   -1182.3473    272726.18   -79469.671    6898.9997   -86368.671    1699.5596 
   29750    275.10532   -877.49671    271685.97   -79469.723    6986.7128   -86456.436    1696.2335 
   29800    279.77277   -856.08217    270928.07   -79461.001    7105.2496    -86566.25    1694.8463 
   29850    275.04348   -1066.1001    271039.87   -79450.961    6985.1421   -86436.103    1697.7012 
   29900    276.59961   -930.31401    271389.26   -79412.887    7024.6626    -86437.55    1700.4613 
   29950    276.83562   -989.57552    271903.41   -79400.426    7030.6564   -86431.082       1703.5 
   30000    279.98117   -1139.3372    272272.26   -79432.596    7110.5422   -86543.138    1707.4338 
   30050    278.27258   -983.85527    272145.79   -79458.872    7067.1499   -86526.022    1708.7336 
   30100    275.89078   -872.68817    271976.18   -79420.714    7006.6607   -86427.374    1709.0468 
   30150    278.08038   -1035.4812    271908.26   -79422.245    7062.2689   -86484.514    1711.4224 
   30200    280.16629   -873.81543    271887.73   -79427.726    7115.2436   -86542.969    1714.8597 
   30250    276.08998   -1050.0038    272063.74   -79432.215    7011.7197   -86443.935     1716.959 
   30300    280.55715   -1055.3158    272246.38   -79417.426    7125.1701   -86542.596    1722.5196 
   30350    279.35157   -1044.4301    272426.45   -79428.331    7094.5527   -86522.883    1724.7826 
   30400    276.72536   -1013.5627    272290.56   -79498.087    7027.8561   -86525.943    1729.1347 
   30450    274.94954   -971.26633    272065.02   -79525.061    6982.7564   -86507.818    1729.8857 
   30500    278.78635    -946.9966    272103.72   -79483.962    7080.1981   -86564.161    1731.8318 
   30550    278.28303   -998.10441    272042.12   -79485.178    7067.4153   -86552.593    1734.4748 
   30600      273.521   -895.84119    271786.14   -79524.379    6946.4766   -86470.855     1736.074 
   30650    273.63728   -870.63785    271589.87   -79549.851    6949.4295    -86499.28    1738.8754 
   30700    276.18443   -933.71361     271687.2    -79547.03    7014.1182   -86561.148    1741.5387 
   30750    270.36388   -1098.0174     271937.4   -79575.468    6866.2967   -86441.765     1743.603 
   30800    273.21004   -1011.1186    271904.31   -79618.004    6938.5791   -86556.583    1744.5602 
   30850    270.70793   -1006.3872    271705.54   -79629.049    6875.0345   -86504.084    1746.4769 
   30900    271.35083    -1171.362     271584.1   -79606.601    6891.3618   -86497.963    1749.8624 
   30950    270.95812   -867.36336    271516.79    -79615.25    6881.3883   -86496.638    1751.1574 
   31000    272.86205   -1191.1416    271729.25    -79616.19    6929.7415   -86545.932    1752.2875 
   31050    272.65389   -883.83523    271908.46   -79603.102     6924.455   -86527.557    1756.0909 
   31100    276.81127   -937.49183    272058.15   -79577.585    7030.0379   -86607.623    1760.2358 
   31150     272.9598   -1037.8584    272021.62   -79546.295    6932.2239   -86478.519    1762.3074 
   31200    273.87152   -871.43592    271657.24   -79536.372    6955.3785   -86491.751    1762.4426 
   31250    272.84964   -909.43455    271351.11   -79541.618    6929.4264   -86471.044     1764.084 
   31300    273.67935    -754.7928    271353.83     -79540.5     6950.498   -86490.998    1766.8367 
   31350    276.12865   -1005.5732    271809.65   -79558.412    7012.7018   -86571.114    1771.6078 
   31400    277.19929   -994.18637    272218.13   -79575.365    7039.8923   -86615.257    1777.8898 
   31450    274.72866   -1172.8387     272261.7   -79564.247    6977.1468   -86541.393    1780.6678 
   31500    276.26059   -1024.3941    271910.06   -79568.483    7016.0525   -86584.535    1781.5222 
   31550     269.8832   -1037.6502    271760.58   -79576.824     6854.089   -86430.913    1782.2071 
   31600    276.38496   -1099.2152    271694.55   -79601.247    7019.2112   -86620.458    1783.5168 
   31650    279.70347   -950.73598    271683.11   -79548.543    7103.4897   -86652.033    1783.9134 
   31700    275.12666   -1134.9509    271954.36   -79555.406    6987.2547    -86542.66    1789.5343 
   31750    274.19709   -913.33841    271938.39   -79554.419    6963.6469   -86518.066    1793.9093 
   31800    274.76577   -1162.0594    271863.94   -79553.432    6978.0894   -86531.522    1795.2519 
   31850    273.28066   -1095.4002    271508.18   -79596.915    6940.3728   -86537.288    1794.9463 
   31900    273.64682   -821.88988    271004.22   -79633.521    6949.6718   -86583.192    1796.9708 
   31950     274.0134   -674.67285    271116.04   -79590.211    6958.9818   -86549.193    1800.7416 
   32000     270.9156   -1076.6886    271848.69   -79603.673    6880.3085   -86483.981    1806.6397 
   32050    273.00396   -1310.7386    272345.73   -79608.712    6933.3454   -86542.057    1811.9293 
   32100    272.66194   -1155.7119    272014.19   -79588.414    6924.6594   -86513.073    1815.4243 
   32150    272.79079   -929.93083    271242.66   -79639.507    6927.9318   -86567.439    1817.6424 
   32200    276.82023   -716.65004    270864.24   -79615.293    7030.2653   -86645.558     1819.741 
   32250     276.3363   -1210.5482    271337.49    -79594.39    7017.9753   -86612.365     1824.764 
   32300     274.9264   -999.10276    271882.26   -79604.829    6982.1688   -86586.998     1828.993 
   32350     268.7374   -1087.2102    272289.92   -79589.689    6824.9899   -86414.679    1835.9159 
   32400    272.63953   -978.11554    272118.61   -79594.637    6924.0902   -86518.727    1837.5488 
   32450     273.2119     -930.684    271525.36   -79642.406    6938.6265   -86581.032     1838.117 
   32500    271.50793    -930.3943    271237.39   -79623.231    6895.3517   -86518.583    1837.4767 
   32550    271.16452   -852.71817    271464.99   -79633.092    6886.6301   -86519.722    1841.0423 
   32600     274.0688   -1174.1256    272043.75   -79573.384    6960.3887   -86533.772    1846.6363 
   32650    271.92206   -1319.4203       272516   -79567.444    6905.8689   -86473.313    1851.5988 
   32700    271.94175     -1330.75    272490.06   -79564.798    6906.3691   -86471.167    1851.0215 
   32750    271.63111   -1094.3442    272008.82   -79549.965    6898.4799   -86448.445    1849.9116 
   32800    269.05141   -1334.2619    271480.86   -79568.704    6832.9645   -86401.668    1850.2848 
   32850    276.46908   -840.69544    270761.73   -79573.206    7021.3474   -86594.554    1848.4515 
   32900    271.61553   -761.37373    270867.82   -79594.393    6898.0843   -86492.477    1849.4599 
   32950    277.88175   -1072.3712    271736.33   -79619.913    7057.2243   -86677.137    1854.7796 
   33000    275.53074   -1180.9919     272384.4   -79559.254     6997.517   -86556.771    1861.2367 
   33050    275.61383   -1016.7708    272413.59    -79556.15    6999.6271   -86555.777    1864.9545 
   33100    272.05048    -1052.344    271870.51   -79575.402    6909.1304   -86484.532    1864.7315 
   33150    274.55164   -937.61154    271224.44   -79593.491    6972.6512   -86566.142    1864.3345 
   33200    273.74681   -991.05752     270974.2   -79627.105    6952.2114   -86579.317    1865.2075 
   33250    273.03939   -874.24636    271345.01   -79632.929    6934.2454   -86567.175    1869.8983 
   33300    273.03252   -1339.7111    272060.44   -79604.879    6934.0708    -86538.95    1874.6246 
   33350    274.15675   -1109.5524    272293.13   -79637.152    6962.6223   -86599.774    1877.8033 
   33400     270.0858   -1221.4935    272144.24   -79600.449    6859.2345   -86459.683    1879.5634 
   33450     273.1729   -989.97241    271630.44   -79587.573     6937.636   -86525.209    1877.8905 
   33500    273.26118   -901.62066    271129.27   -79621.473    6939.8779   -86561.351    1876.8527 
   33550    276.08967   -826.81489     271133.9   -79601.516    7011.7117   -86613.227    1879.1804 
   33600    271.82191   -1053.2861    271632.92   -79614.221    6903.3255   -86517.547    1883.0718 
   33650    275.86361   -976.46079    271878.29   -79612.947    7005.9706   -86618.918    1886.2356 
   33700    274.34965   -1001.8199    271898.76   -79579.323    6967.5213   -86546.844    1886.8437 
   33750    273.82747   -1059.7776    271853.55   -79551.585    6954.2599   -86505.844    1889.5658 
   33800    272.70837    -1021.042    271855.56   -79566.881    6925.8385   -86492.719    1893.5473 
   33850      267.986   -919.74304    272010.23    -79572.43    6805.9068   -86378.337     1898.752 
   33900    274.20676   -1019.5396    271820.99   -79593.019    6963.8924   -86556.912    1898.9457 
   33950    275.15006    -1053.677    271381.83   -79614.083    6987.8488   -86601.932    1899.9049 
   34000    277.09648   -1124.8339    271193.08   -79581.001    7037.2811   -86618.282    1900.6006 
   34050    276.54604   -1051.4106     271370.3   -79598.847     7023.302   -86622.149    1903.9368 
   34100    273.95547   -893.09823    271810.12   -79614.729    6957.5106    -86572.24    1908.4881 
   34150    271.29272   -1025.0165    272327.56   -79611.296     6889.886   -86501.182    1913.7474 
   34200    273.29388   -1203.6529    272649.12   -79610.618    6940.7084   -86551.326    1918.9614 
   34250    272.49137   -1143.3184    272384.16    -79598.02    6920.3276   -86518.347    1921.8178 
   34300    273.42967   -720.17905    271695.13   -79564.279     6944.157   -86508.436     1920.407 
   34350    273.72554   -984.25989     271461.5   -79586.991    6951.6712   -86538.662    1921.4174 
   34400    271.09519   -833.15041    271349.92   -79632.392    6884.8695   -86517.262    1925.3796 
   34450    278.67326   -1174.6913    271646.85   -79587.343    7077.3258   -86664.669    1931.4078 
   34500    274.89919   -943.43159    272171.93   -79624.571    6981.4778   -86606.049    1936.2554 
   34550    270.75864   -1072.5099    272351.53   -79664.114    6876.3222   -86540.437    1939.3716 
   34600    272.45286   -1161.1097    271764.37   -79701.291    6919.3495    -86620.64     1937.848 
   34650    274.89398    -968.6617     270903.1   -79690.887    6981.3454   -86672.232    1935.4689 
   34700    276.19015   -812.96538    270474.35   -79670.174    7014.2637   -86684.438    1936.2299 
   34750     274.1267   -942.52235    270866.61   -79694.797    6961.8592   -86656.656    1940.8503 
   34800    273.90744   -1135.7201    271667.17   -79650.951    6956.2909   -86607.242    1946.7656 
   34850    273.28955   -936.10517    272223.54   -79671.388    6940.5985   -86611.987    1951.6464 
   34900    274.02757   -1144.6568    272406.26   -79668.291    6959.3417   -86627.633    1954.6921 
   34950    270.47479   -1040.0795    271825.34   -79629.083    6869.1134   -86498.197    1952.3397 
   35000    276.04738   -893.54792    271109.81   -79638.929    7010.6376   -86649.566    1950.8997 
   35050     273.9686   -793.71375    270774.63   -79633.384    6957.8439   -86591.227    1952.3002 
   35100    270.82659   -866.44812    271095.78   -79660.176    6878.0479   -86538.224    1954.9226 
   35150    270.12505   -1120.0291    271678.63   -79664.903    6860.2312   -86525.134    1960.8676 
   35200       270.43    -1052.254     271852.2   -79654.011     6867.976   -86521.987    1964.4711 
   35250    269.41329   -1018.3297    271966.68   -79612.532    6842.1551   -86454.687    1968.1952 
   35300     270.4635   -954.57954    271852.98     -79583.4    6868.8268   -86452.227    1970.3769 
   35350    275.77941   -1076.2385    271599.75   -79567.109    7003.8322   -86570.941    1972.0799 
   35400    275.32672   -983.50168     271575.2   -79606.692    6992.3354   -86599.028    1975.7077 
   35450    276.53126   -1138.5245    271767.36   -79582.615    7022.9267   -86605.542    1979.3429 
   35500    269.36878   -787.67556    271818.59   -79546.388    6841.0246   -86387.413    1981.7911 
   35550    271.37196   -784.13796    271947.02   -79585.487    6891.8984   -86477.386    1986.3884 
   35600     276.3626   -1034.0434    272054.87   -79503.165    7018.6433   -86521.808    1988.1491 
   35650    277.92543   -1145.0088    271864.27    -79500.45    7058.3335   -86558.784     1989.452 
   35700    274.88835   -762.38203    271452.29   -79555.874    6981.2024   -86537.077    1992.6134 
   35750    274.88215   -841.44475    271379.98   -79564.811    6981.0451   -86545.856    1995.7381 
   35800    275.59393    -1080.083    271812.42   -79572.477    6999.1218   -86571.599    2000.7115 
   35850    273.12287   -1112.6866    272439.22   -79530.251    6936.3654   -86466.617    2007.6638 
   35900    273.09025   -973.54508    272570.06   -79530.358    6935.5369   -86465.895    2009.9076 
   35950    275.88671   -1141.7997    272179.17   -79553.737    7006.5573   -86560.294    2009.0388 
   36000    276.66432   -718.64164     271558.9   -79591.107    7026.3058   -86617.412    2007.7461 
   36050     274.3189   -746.71917    271266.93   -79623.658    6966.7404   -86590.399    2009.4138 
   36100    274.77512   -910.65364    271283.18   -79593.424    6978.3267   -86571.751    2012.3854 
   36150    274.67904   -955.66994    271629.28   -79581.609    6975.8866   -86557.496    2016.1622 
   36200    272.54821   -1109.4106    272164.27   -79574.771    6921.7712   -86496.542     2021.058 
   36250    275.69452   -1227.2684    272242.95   -79559.899    7001.6762   -86561.575    2023.2239 
   36300    270.44106   -930.11629     271808.7   -79610.138    6868.2567   -86478.394     2023.623 
   36350    275.10671   -802.72911     271115.1   -79551.106     6986.748   -86537.854    2024.4489 
   36400    272.29785    -806.0591    270945.74   -79602.993    6915.4127   -86518.406    2028.4557 
   36450    277.76904   -873.85895    271533.46   -79574.532    7054.3619   -86628.894     2034.348 
   36500    273.64429   -1151.3393    272491.48   -79554.535    6949.6078   -86504.143    2042.2613 
   36550    273.96385   -1103.9033       272932   -79513.407    6957.7235   -86471.131    2048.3849 
   36600    274.69228   -1329.6336    272713.15   -79499.307    6976.2229    -86475.53    2049.3239 
   36650    276.25535   -956.71059    271774.48   -79537.723    7015.9195   -86553.643    2048.9858 
   36700    271.18371   -586.60901    271029.91   -79537.278    6887.1176   -86424.395    2047.9304 
   36750    272.63834   -846.82234    271213.85    -79565.74      6924.06     -86489.8    2052.8863 
   36800    271.75184   -1003.7791    271738.78   -79516.638    6901.5462   -86418.184    2057.3221 
   36850    275.04177   -1092.6459    272190.71   -79526.545    6985.0987   -86511.644    2064.1226 
   36900    269.71008   -1002.5806    272029.22   -79535.484    6849.6926   -86385.176    2064.8338 
   36950    271.10192   -955.71033     271714.2    -79577.74    6885.0403   -86462.781    2065.7636 
   37000    272.16505   -865.92886    271535.18   -79600.885    6912.0403   -86512.925    2063.2636 
   37050    276.84686   -1223.1559    271557.79   -79605.726    7030.9417   -86636.667    2065.1091 
   37100    272.45368   -966.11584    271469.22   -79563.388    6919.3702   -86482.758    2066.6559 
   37150    278.24328   -1171.5187    271547.47   -79572.767     7066.406   -86639.173    2070.0938 
   37200    273.69005   -728.23843    271672.92   -79579.519    6950.7699   -86530.288    2073.5211 
   37250    271.86136   -1160.1336    271984.31   -79567.126    6904.3275   -86471.454    2078.7399 
   37300    271.67041    -1003.388    271798.26   -79577.334     6899.478   -86476.812    2079.7531 
   37350    278.68693   -1094.7016     271561.2   -79574.743     7077.673   -86652.416    2080.9314 
   37400    276.99119   -870.29896    271550.77   -79565.846    7034.6073   -86600.453    2083.4206 
   37450    277.37196     -1049.68    271723.63   -79567.628    7044.2774   -86611.905    2087.0938 
   37500    273.19725   -1199.6948    271875.94   -79561.251    6938.2545   -86499.506    2088.5245 
   37550    274.90319   -976.44617     271853.8   -79552.826    6981.5794   -86534.406    2090.1222 
   37600    271.88419   -997.83297     271745.9   -79565.704    6904.9073   -86470.611    2092.1905 
   37650    275.13996    -976.3496    271458.32   -79564.214    6987.5924   -86551.806    2092.6531 
[...]
   90850    275.81161   -1185.7713    271700.53   -79374.725      7004.65   -86379.375    4798.5261 
   90900    279.20264   -895.76322    271274.79   -79393.009    7090.7703    -86483.78    4792.7527 
   90950    275.72923   -794.38883    271579.35   -79424.556    7002.5578   -86427.113    4799.4443 
   91000     280.3002   -1151.7189    272236.35    -79395.76    7118.6446   -86514.405    4808.0933 
   91050    277.19832   -1052.0631    272543.06   -79418.539    7039.8675   -86458.406    4810.2566 
   91100    275.25581   -1078.9512    272269.29   -79372.033    6990.5347   -86362.567    4810.0793 
   91150     274.2138   -1051.8587    271927.49   -79390.342    6964.0712   -86354.414    4809.9163 
   91200    279.80847   -1092.9978    271686.31   -79424.222    7106.1563   -86530.378    4810.0505 
   91250    274.49129   -953.97433    271743.38   -79436.135    6971.1185   -86407.254    4816.6816 
   91300    274.45483    -1136.306    271962.74   -79428.199    6970.1926   -86398.391     4825.551 
   91350    276.74126   -1151.5993    271965.48   -79439.697    7028.2598   -86467.956    4827.5197 
   91400    272.64768   -901.02035     271830.8   -79469.558    6924.2972   -86393.855    4832.3004 
   91450    275.51484   -896.13217    271925.89   -79488.935    6997.1131   -86486.048    4835.3121 
   91500    276.11253   -1159.4305    272397.29   -79487.662    7012.2923   -86499.954    4846.0071 
   91550    274.18179   -1117.9531    272613.65   -79471.163    6963.2582   -86434.421    4851.6828 
   91600    274.04481   -964.81978    272150.75   -79499.251    6959.7796   -86459.031    4850.0924 
   91650    270.51616   -923.64227    271492.24   -79560.676     6870.164    -86430.84    4841.5465 
   91700     275.0128   -694.68324     271041.3   -79584.722    6984.3631   -86569.085    4833.9755 
   91750    276.49209    -747.1198    271483.51   -79539.174    7021.9319   -86561.106    4837.0544 
   91800    274.19768     -1093.79    272456.51   -79526.817    6963.6619   -86490.478    4849.0297 
   91850    270.12155   -1255.4007    272790.85   -79546.123    6860.1423   -86406.265    4855.4554 
   91900    270.39768   -1030.0275    272247.77   -79531.804    6867.1552   -86398.959    4849.8463 
   91950     274.1643   -937.80458    271756.66   -79586.706    6962.8141    -86549.52      4845.09 
   92000    272.12168   -830.43156    271382.14   -79551.113    6910.9386   -86462.052    4842.1332 
   92050    273.83231   -929.16456    271262.04   -79602.691    6954.3827   -86557.074    4842.9177 
   92100    276.68578   -1002.4829    271467.86   -79543.604    7026.8509   -86570.455    4848.7119 
   92150    278.20814   -888.44219    271798.28   -79537.047    7065.5135   -86602.561    4850.8196 
   92200    277.23397   -961.82224    272324.93   -79526.434    7040.7729   -86567.207    4860.3924 
   92250    273.99225   -982.93336    272622.81   -79503.962    6958.4446   -86462.406    4866.9834 
   92300    268.60467   -888.73638    272287.28   -79514.122    6821.6189   -86335.741    4864.5937 
   92350    275.58554   -1014.0728    271720.99   -79541.909    6998.9086   -86540.818    4862.3128 
   92400    274.38858   -715.01411    271286.12   -79550.642    6968.5101   -86519.152    4860.5176 
   92450      271.748   -996.04985    271588.44   -79538.132    6901.4486   -86439.581    4870.5659 
   92500    270.32697   -862.68925    272104.61   -79543.933    6865.3595   -86409.293    4878.3564 
   92550    268.80403   -1348.6814    272567.96   -79542.382    6826.6819   -86369.064    4889.6398 
   92600    272.83388   -1086.5211    272267.86   -79577.019     6929.026   -86506.045    4890.2056 
   92650    271.29063   -887.74585    271687.47   -79571.653     6889.833   -86461.486    4886.2764 
   92700    270.36532   -895.87389     271494.7   -79566.672    6866.3332   -86433.005    4889.3249 
   92750    273.05391   -896.31095    271461.81   -79623.888    6934.6141   -86558.502     4889.267 
   92800    274.19618     -1069.87     271666.3   -79612.407    6963.6238   -86576.031     4893.185 
   92850    274.28009   -1160.1904    271809.56   -79591.042    6965.7548   -86556.797    4901.0742 
   92900    273.04768    -1076.618    271687.94   -79606.769    6934.4559   -86541.225    4905.1717 
   92950    272.10449   -873.06576    271567.01   -79594.205    6910.5021   -86504.707    4901.5051 
   93000    279.61816   -1090.5252     272092.9   -79556.682    7101.3231   -86658.005    4909.6655 
   93050    272.69339   -1225.2411    272612.05   -79517.784    6925.4582   -86443.242    4922.2409 
   93100     274.2316   -939.75426    272341.41   -79489.908    6964.5232   -86454.431    4923.4735 
   93150    276.29009   -1114.6725    271761.61   -79516.027    7016.8017   -86532.829    4917.9858 
   93200      274.017   -883.69021    271320.39   -79498.703    6959.0731   -86457.776    4916.0129 
   93250    276.11293    -1000.097    271385.67   -79468.944    7012.3026   -86481.247    4914.6246 
   93300    275.34116   -900.79324    271799.61   -79488.269    6992.7022   -86480.971     4920.412 
   93350     271.0977   -1260.7816     272092.5   -79520.201    6884.9332   -86405.134    4926.6767 
   93400    274.60286    -1169.661    271831.32   -79535.473    6973.9519   -86509.425    4926.5506 
   93450    271.43422   -979.57552    271584.91   -79537.812    6893.4796   -86431.291    4926.7747 
   93500    271.80147   -751.47134    271730.06   -79526.668    6902.8065   -86429.474    4926.1428 
   93550    274.61733   -1069.0518    272075.78   -79513.624    6974.3194   -86487.943    4931.5857 
   93600    273.11902    -935.5821    272194.45   -79475.999    6936.2676   -86412.266    4936.8076 
   93650    276.02821   -993.83949    272043.15   -79490.901     7010.151   -86501.052    4940.2539 
   93700    274.52099   -1045.9484    271513.95    -79496.74    6971.8728   -86468.613    4936.0502 
   93750    274.42298   -847.78833    270994.74   -79488.696    6969.3836    -86458.08    4933.2855 
   93800    277.93143   -675.79086    271017.23   -79487.532    7058.4859   -86546.018    4939.8551 
   93850    277.32901   -1166.4863    271854.89   -79481.267    7043.1867   -86524.453    4956.3858 
   93900    273.46628   -1298.7973    272497.99   -79458.714    6945.0869   -86403.801    4965.0148 
   93950    274.58417   -1177.7117    272540.24   -79453.605    6973.4772   -86427.083    4965.5939 
   94000    271.76136   -1074.3927    272172.65   -79442.717    6901.7878   -86344.505    4963.4697 
   94050    279.02906   -1011.8407    271878.89   -79414.642     7086.362   -86501.004    4963.9017 
   94100    278.46801   -1235.3816    271862.48   -79434.392    7072.1134   -86506.505     4968.746 
   94150    285.75914    -1182.756    271890.03   -79427.308    7257.2826   -86684.591    4970.2324 
   94200    275.52186   -855.58584    271994.95   -79419.278    6997.2913   -86416.569    4974.7971 
   94250    272.36166   -973.98386    272416.44   -79379.899    6917.0334   -86296.932    4980.8895 
   94300    276.09016   -1111.1625    272743.61   -79354.185    7011.7241   -86365.909    4985.4303 
   94350    273.14747   -1137.5529     272666.1    -79361.14    6936.9901    -86298.13    4986.3955 
   94400    274.20171   -971.79693    272131.44   -79387.335    6963.7641   -86351.099    4985.5699 
   94450    278.42713   -861.47648    271681.14   -79399.175    7071.0751    -86470.25    4980.4608 
   94500    278.86619   -1093.4994    271528.71   -79383.836    7082.2256   -86466.062    4979.5041 
   94550    274.50732   -952.51021    271808.19   -79414.293    6971.5255   -86385.819    4984.9935 
   94600    274.22652    -1138.764    272120.29   -79402.631    6964.3943   -86367.026    4991.4188 
   94650    275.81062   -972.40982    272105.26   -79372.264     7004.625   -86376.889    4994.4542 
   94700    277.77739   -1024.4329    272201.44   -79328.958    7054.5739   -86383.532    5000.8672 
   94750    276.72991   -938.20475    272229.07   -79381.592    7027.9716   -86409.564    5006.0034 
   94800    276.05805   -1059.2328    272139.94   -79390.593    7010.9086   -86401.502    5008.0622 
   94850    276.79665   -1089.5196    272098.32   -79414.838    7029.6666   -86444.505    5010.6816 
   94900    278.65845   -886.95326    271838.24   -79420.934    7076.9499   -86497.884    5008.5399 
   94950    276.59525   -995.96799    271917.35   -79459.955    7024.5517   -86484.507    5009.5695 
   95000    275.65647   -1112.1432    272127.91   -79465.387    7000.7099   -86466.097    5013.2689 
   95050    274.51229   -1110.1944    272050.62   -79430.958    6971.6518   -86402.609    5016.7032 
   95100    279.56359   -931.06399    271754.29   -79459.126    7099.9371   -86559.064    5019.4092 
   95150    275.03216   -1032.0242    271784.96   -79475.522    6984.8546   -86460.377    5020.8707 
   95200    276.94651   -1148.4541     272164.9   -79474.481    7033.4725   -86507.953    5029.4318 
   95250    272.37602   -999.86996     272387.1   -79452.654    6917.3979   -86370.051    5036.4781 
   95300    275.55207   -1251.7652    272166.89   -79500.326    6998.0586   -86498.385    5037.8923 
   95350    273.37529   -956.23162    271566.71   -79523.898    6942.7761   -86466.674    5032.8921 
   95400    275.41371   -941.18789    271120.01   -79483.426    6994.5448   -86477.971    5029.1567 
   95450    277.64498   -957.01182    271074.03   -79510.245    7051.2111   -86561.456    5030.0206 
   95500    275.91008   -990.16798    271651.65   -79500.619    7007.1508    -86507.77    5040.3294 
   95550    277.67469   -1145.3473    272288.81   -79499.957    7051.9657   -86551.923    5049.7111 
   95600    275.70829   -1016.4376     272319.3   -79499.229     7002.026   -86501.255    5054.5691 
   95650    274.41839   -1219.1302    271844.88   -79534.732     6969.267   -86503.999    5052.5749 
   95700    274.80434   -769.30874    271068.18   -79533.492    6979.0689   -86512.561    5042.6997 
   95750     276.8816   -858.20833    270666.93   -79529.844     7031.824   -86561.668    5040.6381 
   95800    273.46361   -691.14072    270990.39   -79557.653     6945.019   -86502.672    5047.2713 
   95850     270.8557   -1349.1126    271798.01   -79529.166    6878.7873   -86407.953    5059.8341 
   95900    272.19371   -1044.9724    271806.04   -79535.717    6912.7679   -86448.484    5061.9616 
   95950    270.53835   -1119.0084    271566.59   -79534.113    6870.7277   -86404.841    5064.2679 
   96000    276.96484   -898.05021    271418.43   -79537.494    7033.9379   -86571.432    5065.7549 
   96050    276.28212   -1027.3612    271720.98   -79511.376    7016.5994   -86527.975     5073.008 
   96100    277.43392   -1076.4891    271919.14   -79447.073    7045.8509   -86492.924    5079.3875 
   96150     278.4504   -952.87686    272056.76   -79470.006     7071.666   -86541.672    5081.5479 
   96200    276.93971   -1094.2323    272213.54   -79424.346    7033.2998   -86457.645    5082.1376 
   96250     275.9722   -1198.4024    272224.06   -79416.032    7008.7285    -86424.76    5085.0767 
   96300    277.49283   -1058.9906    271956.65   -79429.291    7047.3471   -86476.638    5088.2588 
   96350    280.38875   -1082.8559    271815.81   -79435.843    7120.8934   -86556.736    5089.4222 
   96400    276.44307   -955.84503    271771.36   -79469.552    7020.6868   -86490.239      5092.49 
   96450    277.56692   -968.13349    271913.55   -79435.228    7049.2288   -86484.457    5099.7946 
   96500    276.54876   -1165.2778    272034.85   -79433.457    7023.3711   -86456.828    5101.0852 
   96550    277.23728   -1021.6769    272009.73   -79422.248    7040.8571   -86463.105    5104.5442 
   96600    278.43795   -755.48123    271962.41   -79427.022    7071.3498   -86498.371    5108.7934 
   96650    272.01637   -776.62254    272180.32   -79460.954    6908.2641   -86369.218    5111.4144 
   96700    275.10836   -1298.4597    272324.07   -79466.514    6986.7898   -86453.304    5116.0034 
   96750    275.17164   -732.14745     271985.2   -79456.532    6988.3969   -86444.929    5114.5172 
   96800    274.90697   -1037.4453    271829.41   -79465.246    6981.6754   -86446.921    5116.9667 
   96850    274.30571   -906.91083    271706.94   -79503.474    6966.4054    -86469.88    5119.8261 
   96900    276.64161   -1016.7924    271754.24   -79458.726    7025.7291   -86484.455    5127.5729 
   96950    275.05354    -1020.091    271917.45   -79466.667    6985.3976   -86452.064    5129.3009 
   97000    275.63997   -1143.9429    272019.23   -79475.157    7000.2909   -86475.447    5131.4203 
   97050    272.65829   -760.33514    271898.73   -79458.677    6924.5668   -86383.244    5131.6786 
   97100    275.27299   -851.68374    271918.54   -79499.635     6990.971   -86490.606    5135.3629 
   97150    274.45017   -1039.8244    272038.72   -79496.795    6970.0743   -86466.869    5138.5121 
   97200    273.51601    -1205.913    272100.89    -79482.71    6946.3498   -86429.059    5140.5505 
   97250    269.71863    -956.8321     271684.3   -79491.727    6849.9096   -86341.637    5140.8062 
   97300    276.50423   -887.89681    271500.04   -79518.484    7022.2401   -86540.724    5144.9602 
   97350    272.13268   -1054.9251    271632.23   -79537.248    6911.2179   -86448.466    5148.7456 
   97400    275.69751   -1212.1446    271787.52   -79552.706    7001.7523   -86554.458    5155.2417 
   97450    273.70456   -898.19339    271660.82   -79574.842    6951.1382   -86525.981    5157.2058 
   97500    271.70982   -878.21396    271510.27   -79580.332    6900.4789   -86480.811    5156.8232 
   97550     275.4612   -822.50189    271630.92   -79550.152    6995.7507   -86545.902    5161.2012 
   97600     270.4413   -1112.9381    271981.71   -79515.751    6868.2629   -86384.013    5168.9881 
   97650    274.59719   -1130.4913    272133.49   -79501.767    6973.8079   -86475.575    5176.4378 
   97700    278.22572   -989.25168     271992.9   -79503.256      7065.96   -86569.216    5175.2951 
   97750    277.95351   -1104.0288    271803.89   -79502.025    7059.0468   -86561.072    5175.9162 
   97800     275.2813   -988.48169     271508.1   -79535.776    6991.1819   -86526.958     5173.899 
   97850    273.94354   -785.55067    271747.51   -79563.651    6957.2076   -86520.858    5182.0354 
   97900    271.58577   -1068.9643    272292.63   -79597.199    6897.3283   -86494.528    5192.7468 
   97950    276.34462   -1358.6887    272461.59   -79554.059    7018.1865   -86572.246    5196.2929 
   98000    270.97889   -926.12438     271943.2   -79577.558    6881.9159   -86459.474    5190.9706 
   98050    272.90826   -1007.6131    271145.25   -79583.178    6930.9151   -86514.093    5182.0013 
   98100    276.89228   -765.91942     270720.3   -79611.896    7032.0952   -86643.991    5176.6295 
   98150    272.34255   -918.45165    271295.45   -79612.996    6916.5479   -86529.544    5187.0044 
   98200    269.44428   -1120.2175    272282.91   -79618.852     6842.942   -86461.794    5206.6399 
   98250    272.32145   -1375.1808    272873.75   -79594.847    6916.0122   -86510.859    5216.8943 
   98300    271.28831   -1383.9912     272322.9    -79634.77    6889.7741   -86524.545    5212.1743 
   98350    271.80061   -955.30552    270983.53   -79662.164    6902.7847   -86564.949    5194.4027 
   98400    273.50755   -707.26373    270505.45   -79640.342    6946.1349   -86586.477     5191.603 
   98450    274.60788   -948.95396    271271.41   -79608.579    6974.0794   -86582.658    5200.4584 
   98500    272.43733    -1159.732    272192.34   -79607.228    6918.9552   -86526.183    5211.8237 
   98550    271.86773   -1122.4248    272511.21    -79623.09    6904.4892   -86527.579    5217.8653 
   98600    274.40195   -1329.6361    272463.56    -79630.07    6968.8495   -86598.919    5219.0994 
   98650    272.84499   -1059.3603    271965.17   -79632.513    6929.3084   -86561.821    5215.2429 
   98700    275.59706    -995.9025    271124.88   -79630.923    6999.2011   -86630.124    5207.1798 
   98750    275.43981   -870.71475     270729.5   -79620.656    6995.2076   -86615.864    5207.4384 
   98800    277.85758   -885.97522    271085.71   -79619.644    7056.6106   -86676.255    5217.7683 
   98850    273.75699   -1243.1891    272007.55   -79595.221    6952.4698   -86547.691    5236.1812 
   98900    273.18048   -1412.8487    272481.13   -79588.308    6937.8285   -86526.136     5247.595 
   98950    273.04285   -880.13913    271965.43   -79577.623    6934.3331   -86511.956    5246.1398 
   99000    273.54176   -862.11586    271708.87   -79561.654    6947.0038   -86508.658    5247.2499 
   99050     273.5155   -1041.8753     271840.8   -79566.832    6946.3369   -86513.169    5252.3848 
   99100    272.47399   -1067.3103    271953.39   -79566.763    6919.8861   -86486.649    5258.1292 
   99150    271.59867   -1237.5459    271935.07    -79570.41     6897.656   -86468.066     5260.622 
   99200    272.64057   -1081.1356     271732.1    -79587.07    6924.1166   -86511.187    5259.9564 
   99250    274.82887    -869.6344    271442.02   -79619.563    6979.6918   -86599.255      5262.07 
   99300    273.74028   -1113.1761    271595.78   -79653.785    6952.0455    -86605.83    5267.2131 
   99350    272.43129   -1287.2152    271992.89   -79660.417    6918.8017   -86579.219    5273.4153 
   99400    267.67251   -1266.4563    272100.18   -79630.972    6797.9453   -86428.917    5277.2217 
   99450    269.78238     -827.043    271656.91   -79638.578    6851.5286   -86490.107    5272.9595 
   99500    274.36116   -888.76895    271117.99   -79674.209    6967.8138   -86642.023    5270.3218 
   99550    272.80445   -725.23777     271000.2   -79624.842    6928.2787   -86553.121    5273.8136 
   99600    273.11999   -960.16397    271484.74     -79624.7    6936.2922   -86560.992    5281.5762 
   99650    273.85166   -1141.8348    272023.64   -79616.587    6954.8742   -86571.461    5293.1702 
   99700    269.46449   -1115.9209    272022.58   -79603.838    6843.4554   -86447.293    5299.0198 
   99750    272.03561   -865.14325    271638.35   -79616.835    6908.7529   -86525.588    5297.5025 
   99800    278.49708   -974.10113    271507.19   -79615.018    7072.8516    -86687.87     5299.226 
   99850    271.52574   -1146.8226    271765.46   -79595.839    6895.8039   -86491.643    5307.0802 
   99900    274.38854    -990.6218    272104.82   -79615.825    6968.5091   -86584.334    5312.6116 
   99950    265.74533   -788.31934    272364.41   -79589.898    6749.0016     -86338.9    5319.9337 
  100000    270.84817   -1063.1582    272564.05   -79548.609    6878.5961   -86427.205     5323.674 
Loop time of 347.344 on 6 procs for 100000 steps with 8521 atoms

Performance: 248.745 ns/day, 0.096 hours/ns, 287.899 timesteps/s
99.6% CPU use with 6 MPI tasks x no OpenMP threads

MPI task timing breakdown:
Section |  min time  |  avg time  |  max time  |%varavg| %total
---------------------------------------------------------------
Pair    | 160.84     | 222.05     | 290.6      | 349.2 | 63.93
Neigh   | 35.543     | 38.7       | 41.796     |  38.5 | 11.14
Comm    | 8.7404     | 80.355     | 144.72     | 607.2 | 23.13
Output  | 0.13335    | 0.13532    | 0.14317    |   1.0 |  0.04
Modify  | 4.9632     | 4.9971     | 5.0584     |   1.5 |  1.44
Other   |            | 1.105      |            |       |  0.32

Nlocal:        1420.17 ave        1429 max        1397 min
Histogram: 1 0 0 0 0 0 1 1 0 3
Nghost:        2188.67 ave        2213 max        2146 min
Histogram: 1 0 1 0 0 0 1 0 0 3
Neighs:        0.00000 ave           0 max           0 min
Histogram: 6 0 0 0 0 0 0 0 0 0
FullNghs:      44499.7 ave       45659 max       43466 min
Histogram: 1 0 0 2 0 1 1 0 0 1

Total # of neighbors = 266998
Ave neighs/atom = 31.334116
Neighbor list builds = 20768
Dangerous builds = 0

# Create data file for import to other simulations
#
write_data data.${NAME}
write_data data.coexist_274K_-1000atm_mW
System init for write_data ...

Total wall time: 0:05:47
