LAMMPS data file via write_data, version 29 Oct 2020, timestep = 200000

4608 atoms
1 atom types

0.03687825627785202 53.36312174372268 xlo xhi
-0.17161724137932666 51.07873724137991 ylo yhi
-0.17161724137932666 51.07873724137991 zlo zhi

Masses

1 18.015

Atoms # atomic

2703 1 2.955752191972803 0.13630954337728113 4.586184063921271 0 1 0
768 1 3.256835151504712 6.227751170626713 1.5484722979980905 1 2 0
593 1 1.2420630461694369 46.218783403432965 9.869280075054052 0 0 -1
2794 1 13.542669751032847 3.2608918039845887 1.6960527084510157 1 1 2
3318 1 12.894887612903677 3.784474046408391 4.5227892250064885 0 0 0
531 1 1.6748241667878023 8.571672894339507 1.927192963767507 0 0 1
3071 1 1.4482552598229603 14.886696064494801 6.810128312706518 1 0 0
3866 1 6.528606780844376 5.988077705812741 3.8363664981017935 0 -1 1
3220 1 1.5206398377263757 33.60451510768944 16.81251352339149 0 0 -1
3925 1 11.610173414718089 3.19644858933493 6.796636378579608 0 -1 1
930 1 13.968995931146143 39.64153057182615 24.085644227171397 0 0 1
3986 1 0.6962100286413816 7.268639460675253 8.564137899691302 1 0 1
141 1 0.27756074902686656 16.874141213668434 9.077624723017623 2 1 0
901 1 0.6384157818114146 40.199083660400746 6.7304220374178625 1 1 0
566 1 11.932746189973408 7.715309908424986 5.904636583062618 1 -1 1
1573 1 6.574869537190414 15.554315766676662 -0.03476074653498218 2 0 0
1198 1 4.034049217896726 11.998981302323932 1.9276360277610047 0 0 2
633 1 7.655756947715684 10.481689569213088 0.3952378795635285 0 0 0
3893 1 1.3337275760309004 19.21517238104498 13.203811055025762 -1 0 1
1748 1 11.370458002650054 9.206039631363765 2.908385401974729 0 1 0
649 1 5.562063802498454 8.327597410125996 0.6393826228887663 1 1 0
2584 1 2.45428604028617 14.213718719404566 1.2390077939351132 -1 0 1
2205 1 8.360380686096363 15.606999773996641 2.330571448402534 0 1 0
1286 1 10.481955941955466 13.274886896074081 3.292900802028387 1 0 2
4121 1 1.4226926016600017 35.56373464377346 14.300478326103553 1 1 0
2062 1 16.31413978958849 48.15699192243349 0.7421902651546984 0 -1 1
2116 1 3.7357595458563195 43.429821798136416 25.196304937124637 2 0 0
2882 1 4.282161366789304 16.436123735700217 1.402714682864807 0 0 -1
813 1 12.3719896339838 5.9624022569347375 0.4068617446392362 0 1 1
39 1 14.72475739061216 38.24414814848174 3.3218406862866514 0 -1 0
175 1 12.853401417682088 14.899664162550403 3.2022868377126037 0 2 0
3340 1 10.538544733066983 27.175882529993373 24.831993068438333 2 -1 -1
88 1 14.908984128553746 34.68681104561709 23.452788020377668 0 1 0
381 1 2.5361321379213417 49.693146638355586 0.9265961954043487 0 0 0
546 1 4.3991247160225715 19.256001035987296 0.44760589562609565 0 1 0
2157 1 6.672607348158861 20.597186547028233 0.03711046974481211 0 0 0
2406 1 0.7981849269625115 43.827580403818175 19.03716635879938 1 0 -1
4389 1 12.053234119893322 17.956067863804368 1.962762351423545 0 1 1
4357 1 14.069625603046669 19.966093382721184 2.0356314396972506 0 1 1
402 1 16.188421727340437 10.755356430305607 0.44885949077877174 0 -1 1
4352 1 1.6798773168781453 42.893558155118626 3.244859697248517 1 0 0
1673 1 16.520398501892462 41.721849106102866 0.3802615358268582 0 0 1
2327 1 1.7447067263242821 33.04490989273043 7.473993658737378 0 1 0
3096 1 14.152676972982473 24.632015523345864 2.7694337741125494 1 0 0
694 1 0.9742879377597126 10.992607820557788 23.651164144392173 -1 0 -1
1684 1 15.62500576687559 2.252858310475961 0.3179692645145248 1 -1 1
1033 1 13.382445044512883 20.265728416134515 24.350278916426852 1 0 0
536 1 8.376956173908484 24.94052528103464 1.9754302531661319 -1 1 1
3452 1 7.5085737782040995 27.09830835394487 4.627180275545963 1 0 0
1435 1 2.789167796623824 27.062698938841493 16.941133863716335 0 1 0
1883 1 12.339193800688163 24.624506065474005 0.5342945680124805 0 0 0
3028 1 0.195816059504652 46.25222513452742 22.41390763714263 1 0 0
3239 1 0.40021967677357634 27.13252824319098 18.61537285167539 1 1 0
2832 1 9.33692843776705 17.7804912765299 0.7659207570532252 1 0 0
4538 1 9.406723950071926 30.033697609961102 1.4226515136769011 1 -1 0
1377 1 0.731373264231539 12.17776133794241 21.227578279746506 0 0 0
1617 1 0.6685798486536788 18.44039970195589 21.817988330931026 1 1 0
4378 1 16.302832758507247 43.335338843919416 11.147523112929058 0 -1 0
1955 1 10.03982999755855 31.985169224750553 6.43430378342054 1 1 0
958 1 15.09346401011709 13.238276336323805 23.638536912634205 0 1 0
3951 1 1.6305353930009783 31.113754652315293 0.3628407049854412 0 0 -1
4142 1 10.790087023548711 32.78776773167414 0.5016997502195235 1 0 1
1126 1 3.600913205762833 24.913644138531748 5.120596763633909 0 0 1
4353 1 12.361556547331258 36.51523042722535 3.310176121113854 0 1 1
3313 1 4.441788405509873 35.99410788521176 1.7816592908229074 1 0 -1
1458 1 2.804008142750709 38.878495951785396 22.87206508828176 0 0 1
3269 1 4.196285157978173 38.318590389815114 0.4197780693741451 1 -1 0
2185 1 1.1419098290184806 36.65858437791405 24.373454964997073 1 0 0
3377 1 9.659730320175651 37.60516009587376 3.8700123718296826 1 -1 -1
1863 1 0.46495436052909567 2.7033680996788108 20.899300823210236 0 0 -2
2343 1 5.477764499270615 1.673924861005436 1.375318263957613 0 1 1
3779 1 1.9074872570278991 39.69924676557034 0.867132058720669 0 1 0
247 1 11.961871188738526 46.25957016888418 25.220667100866514 0 -1 0
1693 1 6.3253421080746195 39.698623866454625 1.5433656064421792 0 0 -1
2048 1 8.68296111162341 41.98595076481702 3.8045617352819447 1 -1 0
466 1 5.141009445709565 49.89988088372094 1.2116146567958528 -1 0 1
1343 1 12.133065754632272 45.01433771947622 1.519897156904384 -1 -2 1
1005 1 0.1998814314189809 33.19935775374678 4.320211483090079 1 0 1
2647 1 2.32133256045055 42.26058647050988 1.0285736651542448 1 -1 1
1823 1 10.705431567786682 33.61248461224079 21.210871480366002 2 0 0
2234 1 8.516295164504513 19.685545572038908 24.82609992630702 0 1 0
3474 1 16.86145605768602 20.770262850440144 4.501883521258583 0 -1 0
4210 1 0.8419814202274407 28.79936005269683 22.84877593093833 1 0 0
4372 1 9.467178910532212 45.29699537366406 2.6925114207978798 1 -1 0
94 1 0.20499819883667342 33.82919433994756 20.69942317774479 0 0 0
574 1 14.818598581672468 7.977157559806685 0.46010632346492586 0 0 0
3271 1 17.27650294785165 9.101433145929093 5.993783041894534 2 0 0
1443 1 8.3148661949944 45.32661056229209 5.866514972510991 1 -1 1
1793 1 2.6768917154332557 28.662200279246118 1.5661437193483654 1 1 -1
2898 1 1.2975103297309318 31.31459882772251 15.056691011824698 0 0 1
2689 1 13.541411401467286 48.71668354716056 3.0722978368955873 1 0 0
2604 1 16.13043440409488 48.05185947774012 3.6497486966100396 0 -1 1
3470 1 16.041502396842848 -0.01778587914262253 6.915803775655954 2 1 0
754 1 2.0406501689901764 4.236684355658807 3.1038965498071525 0 0 1
4019 1 12.593260277175107 6.788507538985781 3.1352711340962 0 0 1
4464 1 8.322131881961695 1.7155464044063167 2.538300601349053 1 1 -1
595 1 11.721124308890676 0.7089955134660773 3.952547309505162 -1 1 1
3539 1 0.11510856034657281 8.222492110605423 4.838939693355813 0 0 0
3624 1 4.606548142600114 8.137384349158884 3.644393976396129 0 0 0
4405 1 8.884637442634853 2.3940895839261875 5.521052328828304 0 0 1
430 1 14.245456907046837 0.1129048035355763 2.6633732282600797 0 1 -1
2909 1 17.03290304743487 3.104450419800517 9.036314060823033 1 0 0
3263 1 4.1654898333141634 6.806905205342859 6.142964617867523 1 1 0
1895 1 5.854632485154791 8.432925476520243 7.626813942676892 1 0 0
377 1 8.72911023610748 9.277809319341822 4.069929684036399 0 0 1
163 1 6.221468836117058 10.61690751807857 3.2373659857306376 0 0 0
1282 1 7.684554760978655 7.102796295162409 5.969760379174139 0 1 1
3102 1 10.109687619853009 5.869849136891881 6.7250076496084965 1 -1 1
3974 1 12.980491486340478 6.1808634374972575 11.137382562827673 1 0 2
3602 1 14.89138104917831 6.830302568235679 6.081113622435353 0 0 0
717 1 10.506570908652439 7.079384812868273 9.371606309540768 -1 0 0
3327 1 13.504099046461281 11.546895502957438 3.156799691653254 1 -1 0
4074 1 16.375989578399953 6.799072311120545 8.615925905435208 1 0 0
2353 1 8.662528157061436 34.58284979878373 24.465139023322127 1 0 0
1659 1 1.8252581376227603 20.765582905847566 -0.026545527612684028 1 1 2
4347 1 0.2699897616175036 13.663594106122899 15.865429109911446 0 2 1
2474 1 7.987171577601905 12.383839310088712 7.079198848202484 0 0 1
1674 1 9.725152693717732 11.58854392231445 5.136369267759211 0 0 1
3487 1 11.813371203537443 10.587716378346318 6.440723176047391 1 1 0
3644 1 13.284664921987032 16.79212595794142 5.609834614307266 1 0 0
2346 1 13.339337110366396 47.20305296070882 0.6376348317188183 1 0 0
2985 1 5.199443743221003 20.356131854634413 22.211713648639893 1 1 0
123 1 6.307979170143041 15.729315365017538 4.550211201675726 0 0 0
2475 1 0.22153922647768684 19.364597295361015 3.1778536400950865 0 1 0
3665 1 8.075755692161819 20.716988263546554 2.382608361709965 0 1 0
122 1 11.049883097066902 18.092555987653828 4.475607078181479 0 0 1
1398 1 7.981439216969785 18.271405507299963 4.319672752247083 -1 1 0
4298 1 16.135384000058615 16.715336602871147 4.977648051360445 1 0 0
3052 1 15.294845697380426 32.07537678624281 1.7602281741951626 0 0 1
2840 1 1.1937572292374352 26.784252829147015 8.996767253808047 0 -1 1
354 1 5.2559846260133 20.065922894819852 3.5598911006203253 1 -1 1
912 1 5.817262240604049 22.81293324047088 2.622879249942729 0 2 0
375 1 9.282225884882342 17.576573878485593 7.603662159739046 0 0 0
640 1 12.657063843699863 22.166925455108267 3.2754905962144436 1 0 1
1661 1 14.138005731253136 18.765482960804768 8.375848674712817 1 0 1
1240 1 16.655424249481747 47.45553887472583 18.54362988269871 2 -1 1
3784 1 2.5086426211306656 20.714511927685564 2.8025375115820057 1 -1 0
506 1 3.9614440098946226 24.79572488545996 1.0340440135780733 1 1 0
2915 1 10.282108615088742 22.774121389306128 1.9648830542574829 0 0 2
1982 1 14.352992743202831 20.80959129275121 6.097777737603833 0 1 0
3851 1 0.07658965267476234 8.850432576895528 19.168300067691376 0 1 0
1092 1 4.670521183226573 27.713391460433964 5.4917310639570305 0 0 1
4301 1 10.106507679275454 36.73050268818923 24.360652731492436 1 0 1
2026 1 4.925637763790313 27.301449012225856 2.5229276833787764 0 0 0
4227 1 6.964500072469796 29.618052683159043 6.324578193791089 1 0 1
1806 1 6.830368720542546 29.03994915488203 2.087158445520964 1 -1 0
2681 1 1.7460367229915457 34.83750199997007 9.786852552005419 0 0 1
2278 1 6.897614135938924 31.808575564012756 4.644939129809206 1 0 0
2533 1 0.6313678193333889 37.22239961321367 4.352891175158119 1 1 0
1225 1 5.074237694630173 31.144866270217623 2.329259186049053 0 0 1
2951 1 2.5435500684806116 32.18187602068335 2.7640066980228513 1 0 1
3093 1 5.312332408347098 25.86997828113222 7.9653342038999515 1 0 0
2420 1 12.696803117269196 31.465557737022976 5.80589107502177 0 0 1
2085 1 11.266739453907118 28.041532167006064 2.0548625148839537 0 1 1
4166 1 15.876177906573133 25.333267462519462 5.56429225586671 0 -1 0
1726 1 12.66516863872516 33.28682616116875 2.4949124433774 1 1 0
117 1 3.926022235659263 32.529189438372 5.62983416665981 0 -1 1
1981 1 9.734216979474494 32.24567852589611 3.4644819496786825 -1 1 0
973 1 14.076262404774168 31.547502241379743 8.150797289862458 1 0 1
848 1 15.500743491352907 28.2627203190911 5.796456761112538 0 -1 1
3832 1 7.453054084946002 33.36102552931307 6.8116232692962235 0 1 1
3133 1 11.880352310101793 35.804918184709706 7.12709482685331 0 0 1
319 1 8.829989723734956 35.03312606054335 3.1199204162391503 1 -1 0
263 1 12.956881823591733 34.360168717058286 5.11600780679998 1 -1 0
2486 1 16.711181661175548 32.651001477241095 7.311016886306161 0 0 2
3379 1 2.7524524560713117 38.82037308058679 3.603299552715515 1 0 0
545 1 5.143106673587218 37.36642866614055 4.816099615876375 0 0 0
2822 1 6.139788369090449 34.756666858563904 4.125261458200843 0 -1 1
406 1 10.309359396668123 44.3068126901659 7.44408257835351 -1 0 1
2352 1 10.459521260493197 37.95107033353014 6.23360629792867 0 1 1
746 1 15.460779739855866 34.62728676890356 5.502654845737719 0 0 1
4178 1 16.99332067564226 2.839823048703387 22.879590980078007 -1 1 0
928 1 6.08663033520523 39.85788187192378 4.388914617899628 0 0 0
489 1 5.537723079607323 41.23838427462523 8.44041917200955 0 0 0
2559 1 11.455873474307504 40.552990722927646 6.5686098806325095 1 -1 1
1975 1 10.886601395785293 42.73729254362706 5.206979084076785 0 0 0
1025 1 14.176699258095274 39.20614580845239 5.961557031980878 0 -1 0
3189 1 5.126670830487668 42.556709404433306 5.2752332254710765 1 -1 -1
3629 1 3.7738089633846585 43.89527885326817 7.742163215061027 1 0 0
3056 1 6.592821537149545 45.1375633323601 8.224723110626138 0 0 -1
2302 1 7.4813281473004825 41.042780647984515 6.590363596830465 1 0 0
1745 1 11.030827232635975 46.911649892015674 7.771434153290163 -1 -1 0
3814 1 15.450664909448488 43.41185640244936 3.8503018666534388 0 1 0
696 1 3.3019652664624832 9.820325296250344 0.1730577604542018 1 0 0
3772 1 6.550064546176355 44.49345702644976 3.491986119868408 1 0 -1
3618 1 9.33238398509506 47.45884276452638 4.2627189731318005 0 0 0
1415 1 16.519619204712924 29.688586920206895 3.1920156096256647 0 0 1
1997 1 4.398903163479493 2.624185771951976 3.680678545361838 0 1 -1
1734 1 4.279376955171893 46.47434319573118 3.793429028322127 1 -1 0
3471 1 9.561329692232443 50.648896764891276 3.197035136628495 0 0 1
1329 1 12.81993807021852 44.518754552409405 4.209034318173758 1 0 1
3845 1 12.12797334585136 47.141252041333644 4.7836584275645135 1 -1 0
1553 1 16.487082341037755 48.18845747998034 6.290273874960541 1 0 0
3815 1 13.053930309372596 0.21357593791693513 6.521463027832959 1 1 0
2119 1 2.715354487823087 1.4947835045713314 8.981788064250697 1 1 1
2888 1 6.302665724927776 3.57707720596695 5.437393310162836 0 1 1
1350 1 10.437373270067113 3.585220913617838 3.0976541040784804 1 0 0
1408 1 11.715986169797748 49.797856386269856 9.522092132314668 0 0 1
3242 1 13.399532324168158 48.52019347015782 7.268302313280233 2 -1 0
4309 1 1.1796153324495784 4.165007522617102 8.398938597466998 0 0 0
2513 1 3.958824428243281 4.120338041545816 7.310027465410437 0 0 0
1241 1 5.322115269884868 0.5657304402673053 9.123433090966573 0 0 1
3712 1 7.714191730443179 0.4646565189915015 7.37188867900167 -1 1 0
841 1 9.367120074603353 1.1006229311487905 9.99080162522848 -1 0 1
4086 1 11.723633770835793 1.1133456294793986 8.860901641531266 0 1 0
1345 1 8.068511518937854 6.226944699498308 10.431012769236991 0 0 1
3164 1 4.485886266946493 4.754819403990346 9.947965458909444 1 0 0
529 1 5.814430423635352 2.580669215354386 11.204674730413348 0 1 1
500 1 8.327979940218226 3.5439849155630587 11.124217853493766 -1 0 0
2747 1 14.779837523057179 7.696895477429921 12.263358376757145 1 0 0
4426 1 13.197600649109086 5.494206225413436 8.104182545186605 1 1 1
3209 1 0.9662158767640173 29.417016858703594 20.123599952343746 1 0 0
1370 1 5.590701540863172 7.197876917838787 10.313091478657972 0 0 0
2541 1 6.700532413580421 10.597329475932494 11.737867977414124 1 0 1
4467 1 17.286671825836258 7.625089237341009 11.321826362297239 0 0 1
1251 1 3.4629724159724984 13.678379077196002 8.173381708701266 0 0 1
3844 1 5.331221963031348 10.985664324989065 7.020433516487981 1 1 0
3533 1 8.291052215055958 11.174490102080984 9.50836193427415 0 0 0
3528 1 9.962797862791463 14.649586616921292 7.102262844259312 1 1 0
1619 1 10.895342200642443 10.04809159865787 9.073380519795679 1 0 0
2723 1 15.846604628504426 11.715542438558876 9.96682543685157 0 1 1
309 1 14.042138138705846 12.525591472021464 5.743426030317622 1 0 1
4576 1 17.169849098118853 15.63303229529586 8.888450256791502 0 0 0
770 1 5.834007210956789 14.495044036020191 7.232500293736056 1 0 1
2311 1 12.712905454810901 14.482268360423996 7.149698028887305 0 0 1
184 1 14.701505643166541 14.286095678846504 8.900175073981949 0 -1 0
1049 1 16.76514549024959 17.91545956552917 7.394497390965776 0 0 1
1708 1 1.7147658800920484 16.909788068614738 5.156557079453546 1 1 1
4278 1 4.534059435140796 21.134051662553805 6.267409055354563 1 0 1
2296 1 4.418980646736732 17.25536145398848 3.814847569484798 0 0 0
337 1 7.4039934705741 21.344224573251743 9.035532066986669 0 0 0
3051 1 11.208641798136988 19.46434029833845 8.399177616573589 1 0 0
3673 1 11.494137005107852 20.64982349411511 5.521888601729711 1 1 0
3446 1 0.9443394225040421 21.301907772031736 20.976052183328076 2 0 0
1102 1 2.3344604568237615 23.543393027018915 3.112415953637373 0 1 1
1229 1 2.3702346575628717 16.019474333706967 22.044433321515527 0 1 0
3252 1 3.6382224858499086 23.511383841155496 11.115466272720907 1 0 0
2100 1 7.029124520523131 19.433253507246484 6.862544414215825 -1 0 1
1774 1 9.387921617311665 22.896946403554665 4.76122340127071 1 -1 0
3372 1 0.1297502996861149 47.510532184804845 2.1873864802556624 0 1 0
2358 1 3.001225049598208 22.88528794012611 8.47258095019435 0 0 1
3383 1 7.717875557479786 24.107958685566274 9.72544191540858 1 0 0
2466 1 6.016929612482627 23.623683008036764 7.042410647613305 1 0 0
1068 1 9.050438127842687 24.60552682141274 15.760366235391237 1 0 0
1964 1 7.173428200874804 24.366234516328063 4.7145299154993925 2 0 0
3675 1 13.53072127200883 23.7499954396632 6.535854722812817 1 0 1
373 1 0.570530020660083 40.5289003467838 18.20741492990302 0 0 0
1073 1 3.4549533357552082 26.228593876632036 10.374140384479421 0 0 0
2074 1 3.4733505686369757 29.863063108473636 6.6588421165831075 1 0 1
3118 1 5.466859811902551 30.29141322570554 9.119454714186812 2 -1 1
349 1 10.008240582232375 25.10621135984412 7.99099874132208 1 0 0
1118 1 16.477178910167847 22.90439429815542 2.7564913440281096 -1 1 0
3729 1 10.509724995612707 34.14397986896287 8.867913687194253 1 1 1
2655 1 9.60027250875115 28.00756286390238 9.009206218419044 0 0 1
3338 1 14.037393570681047 29.130801215247264 8.275140061605335 1 0 1
1891 1 14.74835877781248 34.581265255779144 9.386129286472384 0 -1 0
4392 1 15.026552221281548 8.662269228364183 19.852187105328962 0 1 0
1194 1 16.629510572272007 28.71970091678431 8.832087849508655 0 0 0
1144 1 2.149052565700027 29.66073111819974 4.163823787496272 1 0 0
3116 1 3.8912445714634676 32.81941539143544 10.221371558033395 1 -1 0
3229 1 12.454872670618148 32.542549159618716 10.11036734503344 1 -1 0
564 1 9.359380676855801 36.35186969079079 10.176158864500037 0 1 0
641 1 17.115355672595282 37.8118597670001 8.917270863604317 -1 -1 1
737 1 0.9705190432678976 48.579337497265115 23.550950443001316 -1 -1 -1
3321 1 13.832151564440835 44.450379827320404 23.758316430350895 1 0 0
773 1 5.041394609483714 34.00291758013236 8.072847154936483 0 1 -1
1075 1 12.117158564614336 36.81804548525058 11.333653385693227 1 0 0
503 1 8.848293474646411 38.43516183965842 8.196629075331288 0 0 -1
2966 1 16.337137289050812 37.264576727790796 6.224316935326146 0 -1 0
2818 1 16.10845452298782 41.60910839380243 5.660640641170961 1 0 0
3652 1 1.0678091311701396 37.72856212781437 8.521982603517593 0 0 1
2572 1 4.4263807911358635 36.77111470548404 7.3809293986996 0 0 1
3351 1 2.486954994460108 40.505004962230515 8.930065977244473 1 -1 1
4162 1 9.919946986475837 40.76556787133548 9.00608336826473 1 0 1
3385 1 6.611947941810477 40.02863688968725 11.853971186587566 0 0 0
14 1 14.645662738686966 39.725969797637774 9.415303550108064 1 1 0
2701 1 12.908144761269117 42.06252321701349 8.578611398905203 -1 0 0
2789 1 5.67975954149366 23.63925935038123 25.375560417910506 1 1 1
1134 1 1.41640683039769 43.53612016875218 9.084503620388073 0 1 1
3363 1 13.673645583413167 44.98887653439189 11.51230078694739 1 -1 0
2860 1 13.33698350268959 45.401167417141664 8.695676679929848 -1 0 0
790 1 1.5923988114658914 6.38933296875931 23.296137264749664 1 0 1
3783 1 3.240058846451059 46.211871010679815 6.489381725984622 0 -1 0
3959 1 0.3903292071775125 23.76176019155284 23.457954938587157 1 -1 0
1496 1 6.5543646816658665 42.71582193101712 10.849422543330746 0 -1 0
1675 1 14.559469427338952 41.037081296216925 2.327449157237923 0 -1 -1
4525 1 15.627035276888385 45.163819950995176 6.488760571789158 1 0 0
2560 1 1.3996648374424232 -0.06860370797986397 7.294919612673718 0 2 -1
509 1 7.328169674116332 49.17861588046628 5.557519117695146 0 0 0
661 1 5.000222343116749 49.20825166046704 3.959899741684266 0 -1 -1
4304 1 6.335904164057028 47.623207210472486 7.54375716287243 2 0 0
3289 1 9.23082497239192 43.60511650240316 9.877511117932395 0 0 1
1909 1 15.422311608794521 7.614243107061001 3.2708073085804816 0 0 2
4017 1 16.798680161118337 21.86476682197869 7.775262870315039 0 -1 1
962 1 6.472145104058124 49.76713683117778 10.298515832539813 0 -1 0
1318 1 5.960874302625922 49.39656881690695 13.239302795746498 0 -1 0
2877 1 8.830075391937173 50.4045605290266 12.031593158401275 1 0 1
2432 1 12.25161348826718 49.79377653653812 12.395112953449887 1 0 0
1971 1 14.060084091552561 2.106999120984278 21.658855224939757 0 0 -1
2846 1 1.8113593026847241 5.12704096436978 11.107763234895964 1 2 1
4267 1 5.020373295932674 2.609952718927785 13.981571913493495 0 -1 2
3620 1 14.374796013478031 3.7023346788894336 12.469749537417727 0 1 -1
1000 1 14.011122928495604 1.03583155303445 13.552485635980656 0 0 1
617 1 17.589019853270624 20.754667259373566 24.62862751430096 0 0 0
30 1 3.552084666185587 6.86009997412629 12.44298685174196 0 0 1
3659 1 2.4651248389986686 8.836256703822796 6.788456083612064 1 0 -1
1474 1 4.006121543449762 9.863808928487188 10.997334431064946 0 1 1
2148 1 8.339086969745852 6.570120331850756 14.835912458940768 1 1 -1
4508 1 9.369039332591395 4.079898108926696 13.60469091542946 1 1 1
4300 1 9.790776530630792 1.6234189598203523 15.77355867714517 1 0 0
750 1 15.538096817850791 7.149922136937008 14.72118349789312 0 0 0
3926 1 17.443073647856508 33.67742217102074 9.93541921785523 -1 0 1
2056 1 3.066263021687233 10.883276581904955 8.677795543412591 1 1 0
2648 1 9.44515039470243 13.855003639984382 9.948705001016016 0 0 1
680 1 8.07111005704718 8.195758526598544 12.531977155858455 0 0 0
2196 1 11.274231719015807 11.168513536981502 11.552866344058101 1 0 -1
533 1 14.188325939157433 10.490542562988972 11.558653340044943 0 0 -1
2173 1 1.6255586031654776 12.557170293109285 11.087539017046405 0 1 -1
3579 1 2.507298233043386 15.254482332963528 10.452006825367564 1 1 1
169 1 7.754049701216641 14.989315402192386 11.555239302640485 0 0 0
2627 1 13.279331995413344 15.396581365734225 10.913678599637725 1 -1 0
3256 1 11.258793585806218 13.925026382354277 12.30907580711726 2 0 0
2118 1 17.014297106691547 12.66394892831164 12.589923284564888 0 0 0
1402 1 2.344484867163351 32.382143682277004 19.4472034087647 1 0 1
1460 1 4.543324890499095 16.112932054423332 11.790926037118412 0 1 1
76 1 6.928421778239955 16.351270337331457 9.29370826582149 0 0 0
1610 1 10.618958877404886 20.176626190169486 11.78678481032085 0 0 0
2585 1 16.15029749050982 15.705780143857806 12.137730536589089 1 0 0
1911 1 14.527118172338195 18.156069457852357 13.395857417634295 0 -1 0
951 1 2.4204408453256976 18.230481295081304 7.773440064956711 0 1 0
2490 1 0.7698261277242239 45.0941074731696 12.406235808645727 0 0 0
1817 1 4.219872585745714 19.918431235331468 8.958484696029412 0 -1 0
3999 1 5.7255369681126895 18.48919249680928 10.659989777914404 1 1 1
1316 1 10.055568200736138 21.859647461550285 7.919695705561438 -1 0 1
4276 1 13.020546503798535 18.374213554462063 11.005250306807781 1 2 1
2597 1 15.81941769097044 40.95435732977349 21.829944353788534 -1 -1 1
1009 1 5.954681273839502 23.804387515273593 11.791016768638183 0 0 1
2661 1 6.0850140876831 19.87730961437786 14.091753428076409 0 0 1
4105 1 11.520820676519222 22.490467324203305 13.186242223586524 1 1 -1
3613 1 14.855852320052986 20.960041768421856 12.007262120740851 1 1 1
2609 1 1.0865258627766474 21.263690598467893 11.608365516380761 1 0 1
4550 1 7.693024436033627 20.347570798790915 11.68895723932122 1 -1 1
288 1 11.171948824480644 24.956420823474815 5.483067947524941 0 0 -1
2442 1 16.599579154090087 16.315141050506178 0.6039424466422013 0 0 0
2416 1 3.986329497868612 28.68555546725235 12.129787611414523 0 0 1
2879 1 6.022721257221838 26.43410297327404 12.680025477032126 1 0 0
2680 1 2.394441001355332 30.269040270345943 10.73079577734521 1 1 1
3478 1 9.905130642552379 25.024654824814792 11.378587957808467 1 0 -1
1482 1 13.594724103371377 24.48772617138894 9.0312022022674 1 1 1
3273 1 10.449203522357578 27.548551066270406 4.760254110458785 0 -1 0
6 1 15.832733726132789 19.734872963800512 15.110728950294408 0 -1 -1
2054 1 8.432251887045393 28.034629086861923 12.266982273083894 1 0 0
3583 1 6.984483249982632 27.765816330926967 8.983376675584958 1 0 1
3211 1 9.360558277719678 29.464808503269378 6.666336526704994 2 0 0
785 1 10.037932334159025 30.504423708204637 12.764567417486063 0 0 2
283 1 10.099689772607313 30.623424637940353 10.04197820288382 0 0 0
729 1 12.329793883327977 26.745414499554975 10.065524511021119 0 1 1
3791 1 13.473192666127645 29.382900038062537 13.652332700668115 1 0 1
2861 1 4.870587427066458 32.49960333267046 13.055935508675766 0 0 1
57 1 7.776972760257162 31.78780559135869 9.224487065249857 1 -1 0
1730 1 14.259552059396746 36.467278326227174 13.27670740649837 1 1 0
4553 1 13.444563802636306 37.135737276386706 9.027611220490742 0 0 1
1563 1 11.935456737743785 0.48757783168191293 0.4461364224528973 0 -1 -1
3526 1 13.668957697489365 47.31719096905354 22.634711913857892 1 0 0
3057 1 7.113176489991248 34.15816315064009 10.359888866692474 1 0 0
3106 1 7.323459132185673 34.01954974151474 13.287354672561921 1 0 0
1090 1 13.118178742437571 40.46482728305514 11.462730631286444 -1 0 0
2596 1 2.1298701368924493 39.148258287389694 11.309480615962265 1 0 1
2891 1 6.26501115129746 38.06912413863327 9.465892059736928 -1 0 1
2193 1 11.401767849016085 38.88832915560816 12.896492139639346 0 0 1
816 1 7.749092862922952 43.67240972671864 14.822463995131134 0 0 1
2165 1 11.664472885385173 41.12957917873172 14.915152953101542 1 0 0
3634 1 15.827808431941996 42.8120182308929 8.301407730061712 0 -1 1
341 1 1.576795140755948 35.16595127639167 2.544426198016781 0 -1 1
468 1 1.7539768688807993 42.30569119638855 11.664853385682138 0 0 0
3994 1 5.864499373039947 44.74523384814482 12.774486558092534 -1 0 0
4296 1 9.420792989475748 40.54437583103439 11.847970542877755 1 0 0
3995 1 15.367345510996412 47.89344008274361 9.326757277869477 -1 -1 0
1190 1 11.853027222135596 43.090096861780324 11.253635000280813 0 0 1
979 1 14.656413416659216 45.59972264503037 14.770320443595999 0 0 1
2480 1 2.7109149661247356 48.145521983447196 10.314881516392274 1 -1 2
1978 1 3.7316959840398907 48.8422578765845 7.831459511617712 0 -1 -1
4566 1 8.062108549357456 46.253675582995456 10.42607262764894 0 0 2
601 1 12.192564670989958 44.56764700549169 14.434571382469715 0 -1 -1
384 1 14.132009999057528 47.71888675079178 12.193965430895044 -1 1 1
4093 1 3.1311141168153025 29.049481126349786 14.964535937742117 0 1 0
2380 1 5.932498104586185 4.562547273165575 0.9615040329460276 0 1 2
4318 1 3.0232041443320217 49.71885555353238 12.722828193597909 1 -1 0
2934 1 13.897233320529208 0.9019492234232311 10.702348551554964 0 1 0
2503 1 8.859141769875803 49.027319810132624 8.949649900537164 1 -1 1
1275 1 16.184010392539918 48.599823009129636 14.114492977219035 1 1 1
3566 1 0.6178420043930205 27.24986887393864 0.5441254506260857 0 1 1
3940 1 0.684563455804226 0.4235025076605229 17.304688162741122 1 0 0
934 1 7.797634735579738 1.0374940201328997 13.984990440166616 0 0 2
4535 1 8.44725817443558 47.62148191383636 12.955795953586156 0 -1 1
1099 1 9.66812623225338 50.247598697641635 0.46470847416221017 0 -1 1
3902 1 2.1649584249421823 3.0085345001278747 13.256067735193094 1 0 1
16 1 1.6350310405842223 0.956795200676051 11.54972676577926 0 1 1
3828 1 8.547500860424684 1.4096560740527595 18.188695725410916 0 1 1
3769 1 10.517083290854215 50.17631836496648 14.954988041043315 0 0 -1
2582 1 17.378855370628145 34.718033582760555 1.854817226497485 0 2 1
2964 1 0.6618706873288817 15.78826842468962 24.676906151045774 0 1 -1
4100 1 1.4647498693231988 7.057251212831507 14.428639037995959 1 0 1
3206 1 5.331433862474146 6.05411161848997 14.594763401211729 1 0 0
3679 1 12.19575443509376 4.592567481852741 14.284572937157211 0 1 -1
2068 1 10.263760183338103 7.611432056200764 16.862728179947762 0 -1 0
3155 1 12.738135269698436 1.432464366481232 15.981881964360664 1 1 -1
857 1 12.195049889442412 7.471396741452544 15.186975520480264 -1 0 0
2742 1 16.629144906798093 19.882319301586975 9.82274194621537 1 1 1
4102 1 6.174704685734312 12.881812818749124 12.7502786823116 1 0 0
4242 1 10.674961355992373 9.055791818456246 13.417405384643823 1 0 2
4173 1 14.13782273041006 9.240779758458281 16.056470473775892 0 1 1
1187 1 2.5339109635375228 11.28686720418871 13.281056678040862 0 1 0
2472 1 7.765790960120455 15.000936312000391 15.683796635731033 1 -1 0
1813 1 9.945047821695956 10.464834252922671 15.559607690966795 0 0 0
3085 1 13.204854555369527 14.028112408547699 14.454751087986962 0 1 -1
155 1 14.940208016954308 11.409150184022508 13.991893424734995 1 0 -1
4470 1 3.724568913725575 13.638602116443083 13.933603732313692 0 -1 -1
3750 1 1.202480922996448 15.34341115608462 13.390728713434905 0 -1 0
1069 1 10.198269560202007 19.184684615821038 17.745799534511033 0 1 -1
1353 1 10.747972193797104 18.03526220894176 13.67846451331042 0 0 1
778 1 12.880759223429227 17.056596352329848 15.123260465025288 -1 0 0
3217 1 5.876851931598149 20.54847174060064 24.77515913341466 1 2 1
1682 1 9.332797154709057 15.830650412202512 13.477972634649683 1 0 0
3059 1 7.805742016812151 21.56313203415556 15.933586115112508 0 0 0
2031 1 8.653683542830334 18.327690900017945 15.647721720507302 0 0 -1
997 1 16.71845571623853 25.649035047307247 11.222029651818596 -1 0 1
2549 1 13.448128323680379 17.339103823466708 25.389257342366488 0 1 -1
1217 1 2.2354724785555784 22.827786747754292 13.610913536290136 1 0 1
4208 1 5.194296084537859 22.480301517816642 14.363217971816546 0 0 0
1476 1 12.868197000555256 21.096855916781944 15.40313814996223 -1 1 1
3233 1 17.361192545972326 26.94767807804313 17.669473151716485 0 0 0
3778 1 5.283445495327589 26.459821865737663 15.452145773298444 1 -1 0