LAMMPS data file via write_data, version 29 Oct 2020, timestep = 200000

4608 atoms
1 atom types

-0.03566307801391133 57.30617307801387 xlo xhi
-0.03170051379071026 50.93882051379052 ylo yhi
-0.03170051379071026 50.93882051379052 zlo zhi

Masses

1 18.015

Atoms # atomic

5 1 1.3339812672702338 1.8148124148807672 1.944281825917118 0 0 0
817 1 0.176909483055161 12.996394253533996 25.02444536311061 0 0 0
3 1 3.057545640257731 0.15246426541371938 3.24736156519024 0 0 0
13 1 7.992634559307355 1.6951838588926447 1.4418186045131516 0 0 0
18 1 12.751555756275943 3.10179489115945 2.858613447476372 0 0 0
21 1 14.249995228312853 1.4713384772398541 1.3528856313468223 0 0 0
386 1 0.2833751963530252 3.117009841394355 15.657814035030144 0 0 0
8 1 4.575962607928981 4.334706561216624 1.3401424923638998 0 0 0
16 1 11.157667726784526 4.638263673113609 1.2674257008320409 0 0 0
35 1 9.569483475445242 6.3898589620490664 3.0673079534258827 0 0 0
43 1 16.02317877371244 5.903303546479633 3.3666880325114157 0 0 0
24 1 17.617828389477836 4.731591860469452 1.2208080125670258 0 0 0
766 1 14.48537370773901 49.47068991105049 24.116273263420567 0 0 0
29 1 1.3084871981001616 7.760267986537947 2.0651640823722794 0 0 0
37 1 7.622197773437032 7.8647584358641405 1.46381997508297 0 0 0
45 1 14.298290243970838 7.566700681211281 1.591949792802503 0 0 0
602 1 0.028645960227166256 9.547614051346528 22.105828455279287 0 0 0
51 1 2.684986961633519 12.448820699462905 2.939045591059268 0 0 0
32 1 4.411934320622674 10.806156850000477 1.1650497450011663 0 0 0
34 1 6.105098378755125 9.47365438620004 3.0723459014919867 0 0 0
40 1 11.05063693308288 10.814145938419506 1.5020077016337214 0 0 0
42 1 12.781400753102059 9.123838330490747 3.0723029387397336 0 0 0
48 1 17.493289392407963 11.06493425958954 1.8312182039379092 0 0 0
67 1 15.906483168989883 12.736195140813157 3.4871941831411766 0 0 0
53 1 1.1653058516109842 14.306715797387229 1.364279272537315 0 0 0
61 1 7.385447001533159 13.925108610879557 1.616046257199067 0 0 0
59 1 9.149833893375076 12.356600103309653 2.8757417502418345 0 0 0
69 1 14.382718957532555 14.598223365796162 1.8014463749327956 0 0 0
28 1 2.9206759778794513 8.835607389847524 0.27980968232463976 0 0 0
56 1 4.546950911802243 17.363363230380585 1.3458323576677236 0 0 0
64 1 10.76766472225428 17.530708965076222 1.265962724453648 0 0 0
66 1 12.496179731817731 16.288088605899514 3.2256855828009967 0 0 0
91 1 16.186126579608217 19.04934715231677 3.136408921796541 0 0 0
72 1 17.941174729288356 17.739479916242658 1.6437499758682572 0 0 0
77 1 1.3831880744631098 20.709619401440143 1.4603792158671616 0 0 0
83 1 9.291707872532225 19.14172607014507 3.0865244009790076 0 0 0
85 1 7.65832129050815 20.70001854134155 1.7425354674975282 0 0 0
266 1 0.05238109788317327 22.10754417101935 9.39587374193628 0 0 0
90 1 12.521733257258052 22.203560729962543 3.0869228653347327 0 0 0
93 1 14.374679249131283 20.744998095717218 1.5694678965718996 0 0 0
80 1 5.09395291876348 23.671072775114403 1.5487309296040503 0 0 0
577 1 -0.003149352631417912 0.15753674501915443 19.307658950200455 0 0 0
433 1 0.08627364129948949 12.84225789740754 12.919233783680804 0 0 0
88 1 11.476666275366904 24.077215491989875 1.4118004502757275 0 0 0
625 1 0.4151092893572682 12.905693141072282 19.038793989230637 0 0 0
96 1 17.589844975030267 24.305950896286216 1.2311533314764234 0 0 0
101 1 1.445696802505786 27.161728371976405 1.3284858265329047 0 0 0
289 1 0.3042304380494395 25.061237985154026 6.2644976966276635 0 0 0
109 1 8.098671702097489 26.964110587496954 1.6839407149417982 0 0 0
2449 1 18.72725031080704 38.0771333719506 25.025936146146115 0 0 0
114 1 12.798720532944603 28.796764080473338 3.498369465176396 0 0 0
314 1 0.011148003334961673 34.75446884064355 9.380616028757528 0 0 0
117 1 14.39659987189493 27.149864723417398 1.2640454223768647 0 0 0
945 1 6.4541411864030955 45.050265623240726 25.258136828534315 0 0 0
104 1 4.955213566298764 30.48717513063071 1.6852181139089826 0 0 0
106 1 6.527766457511116 28.7729636228545 3.0873366732402947 0 0 0
112 1 11.00141130844714 30.430740100630004 2.0377863822757463 0 0 0
120 1 17.740268870138756 30.290198481451526 1.9662334141856692 0 0 0
897 1 6.572195226389433 31.711784669738893 25.23475213970391 0 0 0
125 1 1.6281012969780932 33.64108100264159 1.725801390454387 0 0 0
123 1 2.986247434826501 31.646651102354152 3.047619223999382 0 0 0
506 1 0.2645171300228471 34.994753794805966 16.10808867585873 0 0 0
133 1 7.969276302878756 33.24339297083753 1.4134440863721096 0 0 0
141 1 15.006049057483333 33.38108239599698 1.3327258559255397 0 0 0
385 1 -0.0029771562593201017 50.77816532104241 12.69902263436381 0 -1 0
128 1 4.874627230104474 36.47147323265357 1.4857392816392347 0 0 0
130 1 6.317141096635005 35.10084375531015 3.329839155917014 0 0 0
136 1 10.822793575900864 36.5942734572023 1.37668915278105 0 0 0
138 1 13.125161938277612 35.13798749193037 2.699832086636772 0 0 0
144 1 17.84301478161222 36.57021595019603 1.4728160159131995 0 0 0
265 1 0.14643342929147524 18.803749219509182 6.139717595967042 0 0 0
149 1 1.719457365926381 39.69364071026736 1.3483164279565591 0 0 0
147 1 3.430534107187278 38.196490165435996 3.108989851608948 0 0 0
697 1 0.19791323191225205 31.964422296581933 18.746359969813742 0 0 0
157 1 7.942059837419075 39.26100814027126 1.549558847951473 0 0 0
155 1 9.751063454400862 37.86844109575583 3.3513251372160693 0 0 0
165 1 14.312155775848177 39.7655276824794 1.4908821410941786 0 0 0
152 1 5.295590042853352 42.73621899721064 1.6115918410052077 0 0 0
154 1 6.42151827238986 40.76985666977454 3.2050227630131203 0 0 0
745 1 0.036368037141031095 44.49898858075835 19.144754540310057 0 0 0
948 1 9.993732528743001 48.3258720095164 25.4157252269686 0 0 0
160 1 10.986584994256075 42.87633105268106 1.4368732197529563 0 0 0
168 1 17.167022802706345 43.0928159190494 1.57327742430513 0 0 0
173 1 1.7873263332851597 45.96534511162105 1.759539381886353 0 0 0
587 1 9.714591719181602 0.33255619701405825 22.252411932747446 0 0 0
178 1 6.08614708395453 47.57142707877804 2.6079255147405553 0 0 0
181 1 8.229092621305092 46.362074154443064 1.3490700410423933 0 0 0
953 1 12.986457019620758 44.87325382015653 25.029926744542028 0 0 0
189 1 14.013175848219683 46.00097518960211 1.0320431776528967 0 0 0
187 1 15.401608588697716 44.55239958189677 2.8068119184767655 0 0 0
176 1 4.494681854486358 49.760397426743545 1.283501161018534 0 0 0
11 1 9.679717510790798 0.043370989827106216 2.8350895448651885 0 0 0
184 1 11.3686699044265 49.44644003832374 1.28926354080714 0 0 0
673 1 -0.025988570708346453 25.82774845159164 19.026637737449317 0 0 0
19 1 15.941788133694393 0.07108622528211304 2.829564296333978 0 0 0
192 1 17.24156421448039 49.14250995198804 1.224787197466193 0 0 0
758 1 8.392858265900873 49.339726305689986 23.79038078978608 0 0 0
7 1 4.673420582852102 1.6984851366631688 4.836534695350016 0 0 0
201 1 6.293575925407142 50.68157812030967 6.232092972659545 0 -1 0
15 1 11.167278371371927 1.7186946421722975 4.495359193505419 0 0 0
212 1 16.002892446196046 2.934693997613077 6.272541861640369 0 0 0
23 1 17.51390408624948 1.5666954766378398 4.604857670048068 0 0 0
172 1 3.3493807724289786 47.953632348093656 0.07522030180817703 0 0 0
674 1 0.12414130590877903 28.69626416349213 22.204490673570895 0 0 0
6 1 1.3550692884202238 4.484288913306868 4.747202501825833 0 0 0
10 1 6.219702891039307 3.0476242493630052 3.230167014346111 0 0 0
14 1 7.732819877751236 4.939673507670253 4.613732159346196 0 0 0
22 1 14.237884157072521 4.461169200373422 4.689851691766511 0 0 0
220 1 2.8418711672349746 9.292150837141895 6.101971037257323 0 0 0
27 1 3.175362156848851 6.190724526411224 3.1804548013667366 0 0 0
31 1 4.8572204413990425 7.68075751692025 4.959889524302823 0 0 0
39 1 11.096191909966024 7.912543511260172 4.559698083264498 0 0 0
228 1 9.267823877838115 9.239075262302245 6.07753301570247 0 0 0
236 1 15.85106403392507 9.333697337965393 6.293503031782464 0 0 0
47 1 17.587552867528384 7.62142731433713 4.885628670504086 0 0 0
30 1 1.2963644650563186 11.094126255878642 4.816595632377857 0 0 0
249 1 6.344554388155124 12.761334529349412 6.637220714690715 0 0 0
38 1 7.59310934427953 10.974328323064825 4.799335102165338 0 0 0
257 1 12.711580600720266 12.599391261120926 6.012854171825526 0 0 0
46 1 14.375495226805151 10.974031950888683 4.651532379736959 0 0 0
55 1 4.649174500636789 13.988481781354443 4.4017704003958045 0 0 0
63 1 10.823013721750288 14.01239102952002 4.262562737741555 0 0 0
71 1 17.78063477769267 14.432771956804352 4.909423731414811 0 0 0
409 1 0.08401009987222108 6.569327082785965 13.00999175059197 0 0 0
54 1 1.7771547178165477 17.3441310007811 4.32142632260994 0 0 0
75 1 3.288279347078489 19.336066808167573 2.7049693720421932 0 0 0
244 1 3.142147222055834 15.95233149872372 5.894238612455373 0 0 0
273 1 6.337583803585081 19.1943293419359 6.2668975755190335 0 0 0
58 1 5.937628758415068 15.79942164078159 2.9031231916190783 0 0 0
62 1 7.4287516420716795 17.412738176165973 4.287339705640947 0 0 0
70 1 14.103830157273064 17.693343386837228 4.70530632620514 0 0 0
268 1 3.2036755220791964 22.36609200340658 5.875752062201911 0 0 0
79 1 4.7341776466850325 20.542152344098234 4.752742766084785 0 0 0
87 1 10.986710729372643 20.441437551360586 4.669961953528011 0 0 0
95 1 17.60567244030873 20.80542077592812 4.9198142034938535 0 0 0
78 1 1.6623007550136326 23.812268996201748 4.100741790511645 0 0 0
99 1 3.3957084355841882 25.515939208705433 2.507908540547901 0 0 0
82 1 6.358624853604549 22.016949416735383 3.511172530410714 0 0 0
86 1 8.022346102381404 23.76135503758789 4.953983380220378 0 0 0
94 1 14.21410749897182 23.85895404014099 4.541873025782372 0 0 0
115 1 15.65124801999394 25.521902909576767 2.7437035289944176 0 0 0
103 1 4.952079234666933 27.087460020248532 4.453951757338333 0 0 0
107 1 9.776351099240713 25.333596065653186 3.1654060458716584 0 0 0
111 1 10.924871816003874 27.12096553041696 5.055405104824607 0 0 0
119 1 17.062605915846447 26.828467963841263 4.912445920579035 0 0 0
102 1 1.3551329548364248 30.047399120800424 4.522637672060455 0 0 0
292 1 2.942247663449613 28.322050459553896 5.91885475949293 0 0 0
110 1 7.703431674286648 30.3415449552674 4.619073102921048 0 0 0
300 1 9.332634384480773 28.788618231167945 6.338600974068509 0 0 0
118 1 14.456051679800241 30.35431450484143 4.884891072259001 0 0 0
308 1 15.69458733413476 28.83796440882907 6.427543766589051 0 0 0
127 1 4.790759005258421 33.37387821257794 4.93728403575302 0 0 0
316 1 3.229509902849515 35.046681688441666 6.512331317161057 0 0 0
131 1 9.378107412044091 31.951168768500697 3.5250423315117256 0 0 0
135 1 11.32635607969924 33.68967788035255 4.508155523449158 0 0 0
329 1 12.754499674812322 31.97325928425284 6.4196216581569825 0 0 0
139 1 16.070523493052175 31.83950781690402 3.4497835059444966 0 0 0
332 1 16.144469073526594 34.94674523098669 6.722654156831023 0 0 0
143 1 17.698725264549452 33.52805062439319 4.932068189284702 0 0 0
126 1 1.6627833024097802 36.764927662851846 4.586590304831867 0 0 0
134 1 7.990494457861924 36.606300413233136 4.886969130951432 0 0 0
353 1 13.117647213899781 38.07122313274204 6.165448962194303 0 0 0
142 1 14.7339255220094 36.40114378627902 4.639188758255888 0 0 0
151 1 4.711320487036046 39.7631120583059 5.00811694639326 0 0 0
345 1 6.559152569818632 38.344370251821786 6.422778871209481 0 0 0
348 1 9.771183173478073 41.15754893532523 6.254183609342366 0 0 0
159 1 11.394297010373526 39.63398361999505 4.707679928802568 0 0 0
163 1 16.267436472718902 38.098003512533246 3.026306701892418 0 0 0
356 1 15.863983162296774 41.51262126094939 6.258629363764741 0 0 0
167 1 17.343021864346806 39.41926899841333 4.994412097683176 0 0 0
150 1 1.9765962539380308 43.15189361252568 4.574022201319728 0 0 0
340 1 3.020091951005057 41.40848127879262 6.8816704545764615 0 0 0
158 1 7.929895238352695 42.44313089173253 4.598773090332586 0 0 0
162 1 12.599541899473042 41.249173326441365 2.9690398445933845 0 0 0
166 1 14.12764639135394 42.808504518421245 4.535202256760033 0 0 0
171 1 3.7456002589005326 44.40096673282599 3.0140395077312587 0 0 0
364 1 2.975194919592073 47.939170973121435 5.9130378923506415 0 0 0
175 1 4.880499899824926 46.15727865782038 4.875043687191469 0 0 0
372 1 9.470429002152903 47.56191925247536 5.858993152536395 0 0 0
179 1 9.533018464710874 44.550351483702116 3.029257387152271 0 0 0
183 1 11.202422613765247 46.3227643587466 4.373299469241189 0 0 0
186 1 12.778287239887357 47.73598776778381 2.62650154730998 0 0 0
191 1 16.901812689947167 46.3979049610986 4.167001296551549 0 0 0
579 1 3.320118338019575 -0.001645971622278558 22.431078302243886 0 0 0
900 1 9.839997105936499 35.10152352063582 25.094246536268702 0 0 0
174 1 1.3264036759116555 49.353979864353754 4.399312733511209 0 0 0
182 1 7.897969982937197 49.386584807331715 4.211159242137363 0 0 0
190 1 14.015260701319031 49.426263849241955 4.285069042802764 0 0 0
197 1 1.5393793551342423 1.1738447772905893 8.112211196455466 0 0 0
195 1 3.1069987489247692 50.69243059127106 9.675952753281605 0 -1 0
196 1 3.165142617300762 2.9807509312353013 6.838781214754319 0 0 0
205 1 8.008728234611672 1.3937854259243398 7.880360556633647 0 0 0
213 1 14.350896526814042 1.4963019916014983 7.641285607699118 0 0 0
2401 1 19.0376862126759 25.01768482874864 25.337413198994867 0 0 0
200 1 4.849248245937994 4.628969438026755 8.002165246362383 0 0 0
225 1 6.483859819751083 6.501415241661585 6.7487372406744965 0 0 0
204 1 9.456961059773034 3.2145120006018106 6.05005864614239 0 0 0
208 1 10.880680568394345 4.532564978870305 7.969007903337056 0 0 0
233 1 12.494392962926304 5.926849713164613 6.208630326653495 0 0 0
210 1 12.629042346700746 3.1924396188352477 9.428754687724306 0 0 0
216 1 17.494868266823932 4.631587739535581 7.886077528538387 0 0 0
221 1 1.3549968044972773 7.833314498490307 7.840196312972074 0 0 0
219 1 3.054973913253096 6.424366568421712 9.58043397960261 0 0 0
229 1 8.394599805947832 8.018459338050983 8.146547914872661 0 0 0
226 1 6.357830479686003 9.277102453577726 9.577129257405408 0 0 0
234 1 12.493032913135503 9.563529788136107 9.379707521410738 0 0 0
237 1 14.26564026444656 7.800873088767091 8.009340066326398 0 0 0
626 1 0.03717619874681989 16.33150746561487 22.358774040625697 0 0 0
1825 1 19.051923780262282 25.503849325529345 6.547072984832564 0 0 0
243 1 3.464498606579308 12.75812681068231 9.632218415015622 0 0 0
224 1 4.827380709505346 11.030880520555108 7.969788591260915 0 0 0
232 1 10.908305798831444 11.294449049847572 7.529401652341427 0 0 0
259 1 15.871520683683825 12.536474414271048 9.237011817898376 0 0 0
240 1 17.47534313099546 11.19170826907447 7.583790498488595 0 0 0
245 1 1.7278054358277202 13.976741253101762 7.845556546036098 0 0 0
253 1 8.072343240785266 14.624732937868648 8.236775550262463 0 0 0
251 1 9.697343868909998 12.764662584049843 9.554716207921974 0 0 0
260 1 15.831024077006116 15.906864378811463 6.421225790083845 0 0 0
261 1 14.18028260975163 14.3410596711797 7.89040429922252 0 0 0
248 1 4.720981374032348 17.386665347359067 7.378603215813625 0 0 0
252 1 9.137580624315822 15.679881389682116 5.7001007867989095 0 0 0
256 1 10.734436876745407 17.244145552878855 7.571500373115168 0 0 0
281 1 12.410839387436717 18.994844579603715 6.363544556564192 0 0 0
283 1 15.733244476953843 19.13991015986351 9.232262348413302 0 0 0
264 1 17.532494742160065 17.08648602561334 7.819622813288065 0 0 0
750 1 1.6711226824622933 49.29447236310957 23.771629858398914 0 0 0
269 1 1.5671026371558878 20.753285262601825 7.604681857517975 0 0 0
276 1 9.756660447637953 21.983933021014252 6.483051411812031 0 0 0
277 1 7.894976886693224 20.556161315061196 8.03046648870054 0 0 0
275 1 9.337311959600452 18.905918249550297 9.723734061386166 0 0 0
285 1 14.195142200655676 20.89737029689717 7.837806261503293 0 0 0
284 1 15.910201911212543 22.50260569420584 6.209699019708109 0 0 0
272 1 4.562791247229415 23.804011215855585 7.81363321233342 0 0 0
297 1 6.219824848105266 25.37829930079161 6.3158361562797 0 0 0
274 1 6.367587795845136 22.554880274071074 9.37916900039916 0 0 0
299 1 9.434161988901444 25.617166837429924 9.413777123193318 0 0 0
280 1 11.153777193473596 23.86984016082284 7.981682545118247 0 0 0
305 1 12.5993972062695 25.48626558431224 6.301123047216856 0 0 0
288 1 17.47908768258303 23.928502344349138 7.989838513700679 0 0 0
698 1 0.2943809383471146 35.19561463043587 22.30625954353481 0 0 0
293 1 1.3129097128791152 27.033834476773226 7.685930470084816 0 0 0
298 1 6.211186924377318 28.68703795895316 9.210424398246133 0 0 0
301 1 7.712547063818044 27.196210425205077 7.828276024370622 0 0 0
306 1 12.723155370205985 28.646738815708826 9.312190428231455 0 0 0
309 1 14.302421619147285 27.01652222808395 7.885278906192517 0 0 0
767 1 17.213088195194143 46.38081780622125 23.5999803048341 0 0 0
296 1 4.284966404839258 30.080361016331697 7.859260700976164 0 0 0
304 1 11.158118126046938 30.183721669704777 7.889039212306811 0 0 0
312 1 17.37384210331772 30.28928355046682 7.944738988030467 0 0 0
410 1 0.2437068155280932 9.843345154594731 15.615796845376067 0 0 0
759 1 11.310443000558564 46.493609435814754 23.650342781866428 0 0 0
317 1 1.4780597698981313 33.3338065941887 7.770086548016124 0 0 0
315 1 3.049396828900047 31.96361442120904 9.578008513317219 0 0 0
321 1 6.40323738889127 31.78738346544565 6.529978192245556 0 0 0
325 1 8.168453119953545 33.42278760850062 7.703369507324067 0 0 0
333 1 14.423835147026534 33.31145999128623 8.287606300594643 0 0 0
339 1 3.114213796428848 37.85891667394555 10.074486869879768 0 0 0
320 1 4.594113494850345 36.63352097639721 7.908059721601713 0 0 0
322 1 6.396390443159509 34.94859356136514 9.364011732515529 0 0 0
324 1 9.662596064396098 35.083808996008706 6.320888343579781 0 0 0
328 1 11.361104771531297 36.68436432728826 7.831706161667906 0 0 0
336 1 17.610112308277444 36.480330041333154 8.337065856264067 0 0 0
754 1 6.461742836192705 48.099858188939024 22.111621292871845 0 0 0
341 1 1.4547337424595324 39.6409244729285 8.327715814197873 0 0 0
349 1 8.022121068630298 39.85361838363456 8.124803230093768 0 0 0
357 1 14.43734269572295 39.84016866180972 7.814837813136335 0 0 0
355 1 16.07497672436984 38.39533074628977 9.458011032682412 0 0 0
344 1 4.668995624617468 43.117728787658805 7.883010602906429 0 0 0
369 1 6.379871035628868 44.22017666676525 6.144699441737384 0 0 0
352 1 11.189262118412163 42.94477061330219 7.682055556841246 0 0 0
377 1 12.758552003704441 44.61844424822359 6.089634832113721 0 0 0
379 1 15.536263451304318 44.40731361231334 9.77278836625922 0 0 0
360 1 17.30598255262896 43.04519126127465 8.272936549275498 0 0 0
194 1 0.03314914917636522 3.004327978224741 9.633208138562827 0 0 0
751 1 4.706635811948335 46.638540953073516 23.595810410993966 0 0 0
365 1 1.4518805037331224 46.203956688381986 7.296790074418509 0 0 0
373 1 7.999299863714976 46.18770300087057 7.613197157253597 0 0 0
381 1 14.239458391172318 46.00168429462954 7.791893719022863 0 0 0
380 1 15.54889436167452 47.98630631719553 6.467381511314514 0 0 0
368 1 4.591187859836672 49.12060355560472 7.825552893262089 0 0 0
370 1 6.450194356159013 47.594473516311915 9.359660801185685 0 0 0
376 1 11.03685684825793 49.170510054756186 7.5633028220430125 0 0 0
209 1 12.681652667883425 50.908517872542625 6.110141404717237 0 -1 0
384 1 17.762262533285835 49.02778438233937 7.771780240331925 0 0 0
388 1 3.4069370013466087 3.2875958927172286 12.344301677155757 0 0 0
202 1 6.409219971817359 3.0545346496867944 9.413667908759283 0 0 0
199 1 4.798256280015805 1.5473748516059491 10.793955803462689 0 0 0
393 1 6.219174594732752 0.16236266789506942 12.825369492599133 0 0 0
207 1 11.275962264435488 1.1146303386935146 11.155440052085309 0 0 0
215 1 17.310326277459126 1.5077155650204153 11.05776171196644 0 0 0
337 1 0.5155554854422698 38.125393602610046 6.593699679694204 0 0 0
198 1 1.3442797662033943 4.74998540848266 11.444134234597392 0 0 0
1874 1 18.93752093093029 41.559501225532216 9.666582421208929 0 0 0
417 1 6.753973943507695 6.337220682246003 12.763275197298169 0 0 0
206 1 8.076510544076486 4.517429781519962 11.011015382011298 0 0 0
235 1 15.884469097986672 6.204554727544865 9.256586520801319 0 0 0
214 1 14.066506575206125 4.922007195294996 10.890627392806445 0 0 0
223 1 4.902641361767535 7.645890839728106 11.156474318038452 0 0 0
227 1 9.713984332388021 6.548469920274715 9.734096809337634 0 0 0
420 1 9.594322201476356 9.778756814114072 12.932515874830766 0 0 0
231 1 11.407930749432817 8.151676949622216 11.429753196284725 0 0 0
239 1 17.503999032976285 7.84798083695906 10.729101782442724 0 0 0
222 1 1.8933410720191026 11.399832054415937 11.274835594792346 0 0 0
412 1 3.6060675924434626 9.426866203299152 12.327772088536662 0 0 0
230 1 8.038358351101047 10.813773298140132 10.931620834127736 0 0 0
238 1 14.458173527632873 10.968931882285887 10.684358931512815 0 0 0
428 1 15.782687404262486 9.410015564314614 12.400235023720207 0 0 0
250 1 6.147091753253699 15.926717496750257 9.57717736789918 0 0 0
247 1 4.972698337993772 14.118449883584162 11.345118664137793 0 0 0
255 1 11.05236111366328 14.276731853424653 11.091950336917616 0 0 0
452 1 15.67553812348379 16.033161802018466 12.366714424670416 0 0 0
263 1 17.339878952722938 14.19056522503098 11.01125792215013 0 0 0
267 1 3.2934895749893776 18.83662971091007 9.152219200981756 0 0 0
246 1 1.3111991814226294 17.43132322461793 10.959363581056941 0 0 0
254 1 7.7447739940006475 17.164608812094098 11.455086886022283 0 0 0
465 1 6.468853650224672 18.930908023438214 12.942238196694364 0 0 0
258 1 12.357950334231669 15.870256977299967 9.586013491843872 0 0 0
444 1 9.637035244624064 15.780748551041585 12.70069084705331 0 0 0
262 1 14.031168446965356 17.529271839217586 10.800631941583616 0 0 0
271 1 4.853472207722038 20.40311110860089 10.87759115105382 0 0 0
460 1 3.2072197695210964 22.41292105840463 12.543391066166233 0 0 0
468 1 9.300471498967227 22.24145542306981 12.467904011405476 0 0 0
279 1 10.971276041593354 20.459236815208907 11.469779702556734 0 0 0
282 1 12.383761565416957 22.155163274204373 9.708830517496459 0 0 0
473 1 12.764166693977833 19.013149012930903 12.814612582112721 0 0 0
44 1 15.94245590272978 9.30088296618005 0.18818856932865224 0 0 0
287 1 17.235290833631062 20.514513172228103 10.860891697279769 0 0 0
270 1 1.482984120655479 23.941106609713728 11.19862788057 0 0 0
489 1 6.661730241876508 25.587740333466186 12.46509044831396 0 0 0
278 1 7.8924844532875555 24.073179983180722 11.025215704626811 0 0 0
286 1 14.19975212238534 23.666319604141417 11.037030938474048 0 0 0
497 1 12.533520993548072 25.277532956329466 12.696477231318458 0 0 0
291 1 3.1062068918578394 25.4842789322242 9.406161426379201 0 0 0
295 1 4.803826399177086 26.94726678839044 10.93642154762358 0 0 0
303 1 11.061550506386967 27.019299438862685 10.971839358161409 0 0 0
492 1 9.393239212633496 28.470081150453463 12.332105719805638 0 0 0
307 1 15.881332327852315 25.72881744124368 9.660640471737747 0 0 0
500 1 15.822362767734099 28.918166383595263 12.544461598146436 0 0 0
311 1 17.757991409612252 27.229694964841805 11.425942051521142 0 0 0
578 1 0.026893768383397423 3.1056502298071553 22.476067538930117 0 0 0
294 1 1.3741439989482056 30.189825221909672 11.195617264423745 0 0 0
302 1 7.656947062115892 30.434583023190036 10.859001393962432 0 0 0
310 1 14.26983207233446 30.2184445114892 10.74792417433562 0 0 0
319 1 4.688645914475691 33.571664517082034 11.03391412175417 0 0 0
513 1 6.328486815780671 31.91115142428968 12.362235698270375 0 0 0
508 1 3.005394972262167 35.01585522088201 13.09113398767857 0 0 0
323 1 9.541972208082276 31.956280649626088 9.483270687776823 0 0 0
327 1 11.232868043837573 33.76301448743186 11.162411862795087 0 0 0
521 1 13.054120333329829 31.839468606555236 12.572721541032514 0 0 0
331 1 15.993661641234223 31.799110477836294 9.73936096506135 0 0 0
335 1 17.44379540955805 33.76635270589792 11.257926149027881 0 0 0
318 1 1.5293098838140868 36.16925203970176 11.31161469987824 0 0 0
326 1 7.807915622873555 36.548838322906306 11.074338429046277 0 0 0
330 1 12.834316003572079 35.07757011272034 9.426777764124267 0 0 0
334 1 14.180217325756686 36.8896024657865 11.116202621369599 0 0 0
343 1 4.7529895419777475 39.53675316043498 11.353472170633342 0 0 0
347 1 9.503742735224103 37.96008134893561 9.571343107334028 0 0 0
537 1 6.466105637078025 38.19138770343637 12.869157085324087 0 0 0
351 1 10.814175655988413 39.735139449537094 11.16691241384129 0 0 0
359 1 17.630150015646258 39.81673246663713 11.059130459879826 0 0 0
363 1 3.1891691037350944 45.0453539153044 9.343706177653601 0 0 0
342 1 1.7991359326844392 43.08907992857148 11.082978870539087 0 0 0
346 1 6.346369408505693 41.31130279244072 9.459146070344596 0 0 0
350 1 7.9198973043321175 42.73907070573124 11.022833117094544 0 0 0
540 1 9.512993739863008 41.35238345387622 12.775074995254323 0 0 0
354 1 12.45840707471769 41.01339835890395 9.3501367661603 0 0 0
358 1 14.007059711262706 42.65335435992178 10.980695037565917 0 0 0
556 1 3.1619246838629214 47.80144265977432 12.868501163099989 0 0 0
367 1 4.999180413473933 46.166535811649275 11.137236565922015 0 0 0
371 1 9.475535106555789 44.40776442625612 9.242960937798754 0 0 0
378 1 12.664998037365045 47.62429779052297 9.456931853142306 0 0 0
375 1 11.22725098998615 45.75511220338563 10.923194628451306 0 0 0
383 1 17.425360646584682 45.95251488484011 11.147354387062288 0 0 0
572 1 15.695403991140415 47.56609874756993 12.84981062867195 0 0 0
742 1 14.5078082808368 42.902143214183845 23.664695913135837 0 0 0
366 1 1.3909683841382103 49.18753412121373 11.069072236497226 0 0 0
374 1 7.678758689215273 49.23576782365575 11.327714738070602 0 0 0
203 1 9.58087327242533 50.717032660199386 9.571306831213462 0 -1 0
382 1 14.238138317312403 49.156916291116595 11.119455171700292 0 0 0
211 1 15.646371151168252 50.62991447200743 9.201266292438614 0 -1 0
389 1 1.735674944756127 1.7238504054985964 13.921963337476805 0 0 0
394 1 6.371799732029444 3.4757970982324284 15.645759596623323 0 0 0
397 1 7.904537518071024 1.7073270326299794 14.223838482601373 0 0 0
404 1 15.570403597560283 3.235793365589988 12.4549653592224 0 0 0
405 1 14.380045317683464 1.449012463969319 14.22495565734192 0 0 0
2258 1 18.994082921938347 41.342893802262154 22.13796953500817 0 0 0
392 1 4.795846832001696 4.904814206502893 14.060954562108254 0 0 0
396 1 9.9868471414662 2.961575369776784 12.560299776178907 0 0 0
425 1 13.142476819283516 6.340804418602716 13.239638324418417 0 0 0
400 1 11.182400545999815 4.8958230389303266 14.555772186131753 0 0 0
419 1 9.459561653692942 6.43056081784545 16.10431030996705 0 0 0
408 1 17.40217087942544 4.494486930185469 14.048130820853421 0 0 0
413 1 2.0474759962893976 8.048038189749114 14.215961502797432 0 0 0
421 1 8.139142701194714 7.947153410953616 14.446443934434573 0 0 0
429 1 14.633967367774032 8.15822174721625 14.354529010995936 0 0 0
1849 1 18.85970450571749 31.96908501537117 6.456729027795146 0 0 0
416 1 5.083483119160238 10.94767106688634 14.194958643944117 0 0 0
441 1 6.715961434990864 12.505940310729839 12.971104887478006 0 0 0
424 1 11.635076189167918 11.370578313356038 14.202951776228621 0 0 0
432 1 17.45313835943398 11.153637318646116 14.085573482096024 0 0 0
437 1 1.61865722384886 14.386945694990054 14.379693474582213 0 0 0
436 1 3.132933542168568 15.950483665805152 12.375559563127034 0 0 0
445 1 8.239141756638793 14.331399665508409 14.51626342622947 0 0 0
443 1 10.04282271169323 12.544414567664933 15.856120725042024 0 0 0
449 1 12.90159314580316 12.931823742440953 12.501954886107017 0 0 0
453 1 14.09315576439081 14.566801827757153 14.18377621478365 0 0 0
242 1 0.21516768358956556 15.368169583607823 9.42128442890964 0 0 0
440 1 4.812194100324722 17.17386755226212 14.288548562054714 0 0 0
459 1 3.4787817341188 19.187470023413482 15.62131624127996 0 0 0
448 1 11.301811893458677 17.583366233012374 14.34876881724554 0 0 0
450 1 12.7217456599775 16.103627149803796 15.986163692195003 0 0 0
456 1 17.50135523561953 17.067345716722436 14.180599491627564 0 0 0
2281 1 18.918019320927492 44.593871375582594 19.03646813491182 0 0 0
461 1 1.4170202805693872 20.696772337577016 14.056971918455625 0 0 0
469 1 8.384159344275838 20.50005673370985 14.240942941921228 0 0 0
466 1 6.650293097210636 22.35097232511762 15.340626467409189 0 0 0
467 1 9.472630911714385 18.91872500792714 16.035368352511973 0 0 0
476 1 15.613392337383093 22.056481303640552 12.695593300362834 0 0 0
477 1 14.128189200279172 20.629369050880168 14.42657381898538 0 0 0
734 1 7.895781417423536 43.063292108905266 23.752862671286035 0 0 0
464 1 4.931772087025095 23.88440135821731 13.846035480375436 0 0 0
472 1 10.94004747556053 23.89517206327172 14.194790795730647 0 0 0
480 1 17.234604869743933 23.45967634881796 14.467568032104378 0 0 0
485 1 1.86690160927882 27.253183608349513 14.479504979942343 0 0 0
493 1 8.178503234009522 27.02310493209965 14.297325317055854 0 0 0
491 1 9.590906846669542 25.322274084577725 16.071829683327294 0 0 0
501 1 14.308409864741694 27.205311980022277 13.994360838196071 0 0 0
484 1 3.3260662065115723 28.42776120498919 12.601709419995654 0 0 0
507 1 3.578857475436826 31.53569982118064 15.930672185999574 0 0 0
488 1 5.1263820478478594 29.906677400358475 14.131355666217296 0 0 0
490 1 6.534550697984233 28.341207936491287 15.99516049811497 0 0 0
496 1 10.95974796584798 30.624625892965604 13.925984874591697 0 0 0
515 1 9.319327091404817 32.18986465243152 15.859680309551852 0 0 0
498 1 12.174429746467963 28.613625344727765 15.452420033513562 0 0 0
746 1 0.10370706204259061 47.928255826332624 22.198818710916917 0 0 0
504 1 17.71692031477217 30.3182538263932 14.310788051987181 0 0 0
523 1 16.054497314557 31.509308126878967 15.788322558933219 0 0 0
509 1 1.5566352955885754 33.069724519645874 14.769228663112992 0 0 0
514 1 6.388232093004299 35.13402688950578 15.7057634784219 0 0 0
517 1 7.612972762107167 33.59269156038886 14.131488256333926 0 0 0
522 1 12.884374601267918 34.97551104528788 16.036333553759473 0 0 0
525 1 14.591414400922783 33.445843004519766 14.259884264456936 0 0 0