LAMMPS data file via write_data, version 29 Oct 2020, timestep = 100000

8524 atoms
1 atom types

-0.2278663905424878 104.49414557004428 xlo xhi
-0.23432648395771594 51.20484751153936 ylo yhi
-0.23432648395771594 51.20484751153936 zlo zhi

Masses

1 18.015

Atoms # atomic

7 1 0.044371029287601504 1.0602814870122588 1.5451368613440646 0 0 0
381 1 1.5020214242104324 51.10116328824513 -0.19710915749524877 0 -1 0
382 1 6.155226889894101 1.4203906085613798 1.5330380112793758 0 0 0
383 1 7.6936116769147445 51.084579039012645 0.10587817345482581 0 -1 0
484 1 12.769317584320243 1.2126550845732533 1.413463439721754 0 0 0
392 1 17.22623676704085 2.442833556363704 -0.07047684059734138 0 0 0
750 1 18.49132967544042 0.977998720519724 2.04925200068801 0 0 0
1102 1 24.9518859888445 1.227497718494102 1.6001758011842626 0 0 0
1094 1 26.39606429460638 51.13414510406648 -0.08299591156713243 0 -1 0
1097 1 31.382665960762782 1.1029284734792681 1.6006047528939593 0 0 0
387 1 4.573467773271779 2.854672584105064 -0.05760585337562585 0 0 0
487 1 3.0850883030624168 4.261987646791958 1.666264630108565 0 0 0
391 1 9.254364922169758 4.386040439137183 1.9932781436160778 0 0 0
390 1 10.983551196918846 2.8456482907545113 0.4390348062859748 0 0 0
491 1 15.891459607260082 4.116268126727614 1.8189942107020092 0 0 0
1184 1 21.802129464288733 4.276941539024383 1.6706774273350828 0 0 0
1101 1 23.22906185430721 2.7542439083716546 0.11400129136438852 0 0 0
1104 1 30.238263202090703 2.883702000600607 -0.08839379524614563 0 0 0
1106 1 28.42749205591218 4.740985420451513 1.210228786335964 0 0 0
393 1 1.8149712311663442 6.009477014490527 0.09797217282822629 0 0 0
250 1 0.004556499925490509 7.811398352831873 1.502964869535686 0 0 0
394 1 7.929081205989505 5.908220550171719 0.32930376113683657 0 0 0
489 1 6.236143929358339 7.309887119756604 1.987196743347198 0 0 0
395 1 14.447834480306403 6.120066516576762 0.23705019943405647 0 0 0
496 1 12.8189999199301 7.791504515823462 1.8459416137560414 0 0 0
1105 1 20.37687030998258 5.854082015863284 0.004983128140280846 0 0 0
753 1 18.871573197197012 7.679329710890553 1.7242968911443484 0 0 0
1113 1 24.96528450280274 7.475538106520654 1.5392638209439522 0 0 0
1764 1 -0.20631944917221917 49.04165775050439 11.56404210487425 0 -1 0
1108 1 33.56621201957852 5.827512135482243 0.4582056788562593 0 0 0
1115 1 31.689342142159894 7.452388927056872 1.7992328660726264 0 0 0
397 1 4.862163786633941 8.919792886360934 0.07689193402997335 0 0 0
494 1 3.094659505430479 10.475957019590226 1.593382107922776 0 0 0
399 1 11.437894613807208 9.34425823210614 0.08491451507309167 0 0 0
404 1 9.839774864210138 10.522419201665116 1.7441741643034046 0 0 0
400 1 17.27739202437843 9.126517970867814 -0.03289623094196778 0 0 0
497 1 15.630474187110664 11.039251352749497 1.5107745720918255 0 0 0
1112 1 23.590323633787662 8.892645307674236 -0.03853693606442096 0 0 0
1110 1 22.270741876055656 10.723720142017852 1.777198512196421 0 0 0
1118 1 28.303296063075283 10.844335391244735 1.9479488948936532 0 0 0
1114 1 29.926085756059557 8.989135155480234 0.3551017264306112 0 0 0
401 1 1.384572579864797 12.371738688468835 0.26230737538923565 0 0 0
725 1 0.3108749481827633 14.050563912938589 1.9027817987634585 0 0 0
403 1 8.02944868372245 12.315988013100263 0.39938048593081565 0 0 0
506 1 6.21429779071082 13.938928363179409 1.8415460453745012 0 0 0
406 1 13.905030387613039 12.552257457576617 0.06566830591891537 0 0 0
411 1 12.52856765497323 14.094744840136562 1.874696243258732 0 0 0
1116 1 20.570240086699652 12.236743653307673 0.14883163298522517 0 0 0
741 1 18.883840448403383 13.80217771511794 1.8482219480419904 0 0 0
1193 1 25.055403127476733 14.328304429206106 1.8216023370321066 0 0 0
1117 1 26.431983948257706 12.664638252026254 0.3894340735305569 0 0 0
1198 1 31.338092169745483 13.717176417727124 1.4450263587686776 0 0 0
1119 1 33.23915651784798 12.13934305465035 0.13579316842393746 0 0 0
408 1 4.589875269143985 15.168928284031937 0.17082666151643333 0 0 0
409 1 3.251550268170413 17.189949385577137 1.5085046003163687 0 0 0
417 1 9.267482330706041 16.92021424419867 1.9240821862237594 0 0 0
410 1 11.103402486552918 15.579935663446022 0.23126878364518538 0 0 0
412 1 17.325786543960646 15.06201399459919 0.06247987889626605 0 0 0
509 1 15.971214530813597 16.857856959021433 1.7120976371039036 0 0 0
1206 1 21.91634281293707 17.245266024568373 1.863630179886985 0 0 0
1121 1 23.648980614598145 15.926886419373435 0.22534815489401544 0 0 0
1123 1 29.97817296342538 15.835047647995317 0.31247683109039337 0 0 0
1201 1 28.510581589371245 17.44569028489423 2.073768142985915 0 0 0
414 1 1.18219275412599 18.704812358399863 -0.061603170113595285 0 0 0
415 1 8.17500055352173 18.50737200355755 0.12304565001063272 0 0 0
416 1 6.434746296398276 20.365106844970107 1.2267806929863212 0 0 0
518 1 12.208606366270544 20.297742592040986 1.6298431733312178 0 0 0
419 1 13.940192895707302 18.637160740625802 0.3093604390620178 0 0 0
1125 1 20.23729770690033 18.565704280304203 0.20808458257855617 0 0 0
936 1 18.932962420982676 20.228703650379327 2.0337052177992727 0 0 0
1126 1 27.068063140491404 19.02097202980627 0.3150355233828869 0 0 0
1130 1 25.355298047239017 20.132518065746922 2.0992219671438375 0 0 0
1127 1 33.5941651904579 18.666737350103066 0.30738850628829484 0 0 0
1209 1 31.71923044600873 20.441473363251898 1.7797502212130163 0 0 0
1872 1 14.205422823020315 43.86227992074325 25.141507148946832 0 0 0
5747 1 0.3838529494044759 17.8788900792642 23.511140477829024 1 -2 0
515 1 3.207468019235569 23.21109528500899 1.857627818930013 0 0 0
422 1 10.740305235314896 21.914995812887057 0.07672346742073965 0 0 0
426 1 9.386194024684222 23.34735564579346 1.960677849977352 0 0 0
525 1 15.483114844789572 23.30651292763132 1.9168727215244283 0 0 0
423 1 17.058053400998887 21.47789561999789 0.3505056854255022 0 0 0
1128 1 24.012816899990263 22.307650568487762 0.45454609576510696 0 0 0
1133 1 22.230603260725616 23.509723964994073 2.0119067794457366 0 0 0
1131 1 29.84098780686592 21.759454562114442 0.012496770343395885 0 0 0
1213 1 28.6766908165477 23.13357227952965 1.9606298271857026 0 0 0
424 1 1.6337315615813215 25.2853791378317 0.362486612055812 0 0 0
425 1 7.968586753149555 25.054452792448046 0.1796357523447178 0 0 0
431 1 6.31857747234727 26.37741202797307 1.8837261957305973 0 0 0
434 1 11.979235288600357 26.6508330921424 1.3389861353973254 0 0 0
427 1 14.121077539539206 25.237331138089555 -0.12444492572699918 0 0 0
1132 1 20.527670679533188 24.950375643949588 0.20993305617898267 0 0 0
893 1 19.171248143013457 26.779952681644325 1.6542191598187237 0 0 0
1136 1 27.58987601090119 24.958746534880845 0.30808169829887977 0 0 0
1135 1 25.73126277186169 26.421121645739902 1.6685309413336655 0 0 0
1138 1 32.986234074154034 25.203177565122356 0.33772389752316656 0 0 0
430 1 4.905220766029586 27.94864908475547 0.013054626543306025 0 0 0
429 1 3.351994714308371 29.583673243960593 1.8190002920548372 0 0 0
432 1 10.760078307285458 28.669242684618876 -0.19307280400142698 0 0 0
436 1 17.542145820415712 28.361741864404078 0.19314808746099965 0 0 0
437 1 15.873598025472717 29.5571843158563 1.676126212280231 0 0 0
1139 1 23.715677868041933 28.07948864251938 -0.07138112724929929 0 0 0
1142 1 30.279372667735558 28.321395529778822 0.49362907687665003 0 0 0
1220 1 31.780156560607843 26.994258518404024 2.3375411994268163 0 0 0
438 1 1.3223221468382587 31.123349684722523 0.6532777119346463 0 0 0
433 1 9.113613699617105 30.240248187021713 1.7477468632400364 0 0 0
440 1 7.400972721255951 31.648243470811 0.013187705155579599 0 0 0
442 1 14.40512473736006 31.50085388701974 0.14205675725975464 0 0 0
1143 1 20.584252291160016 31.501114446108943 -0.0010828548035029806 0 0 0
1027 1 19.242974122172935 32.639394739549886 2.027704232446603 0 0 0
1140 1 22.350084124756147 29.884496914239666 1.4601814286104513 0 0 0
1144 1 27.09290797153182 31.295444192852838 0.16070509220953744 0 0 0
1145 1 25.316775536295275 32.751408694059194 1.8876873180350104 0 0 0
1225 1 28.613717389803327 29.92260865633806 2.181887540734223 0 0 0
1148 1 33.457848577082004 31.57611773798917 0.047632515961103794 0 0 0
62 1 0.025443484981502673 33.05547126380004 1.9970704299813256 0 0 0
445 1 4.642134811521017 35.035045177111364 0.4407682515736199 0 0 0
439 1 6.17171979192134 33.19525747646937 1.5932629628414243 0 0 0
447 1 10.880639627264799 34.57780903564401 0.3861248673466904 0 0 0
441 1 12.691795763192182 33.036157619034945 1.9250509435220118 0 0 0
450 1 17.484338434296088 34.608719894024986 0.9269943379774879 0 0 0
1149 1 23.73536528249902 34.404656934267756 0.44304167619224055 0 0 0
1150 1 30.094756231630114 34.549701060508255 -0.10944772474735225 0 0 0
1234 1 31.670381577557613 33.077157076466655 1.6113138018550626 0 0 0
453 1 1.4396802682875671 37.80211235928381 0.45682008887317627 0 0 0
444 1 3.21102187368213 36.44424084269396 2.1864670189142825 0 0 0
454 1 7.738762983296735 37.745106177600945 0.2619583832276125 0 0 0
455 1 9.41721482578797 36.23224593224912 1.9020262232092073 0 0 0
456 1 14.01765057997341 37.69461562669812 -0.004301761882294419 0 0 0
544 1 15.673118619265853 36.32188379375862 1.9251524410544643 0 0 0
1152 1 20.571021934791485 38.02303399565718 0.2953335280240371 0 0 0
1236 1 22.007597809017078 36.3762542323502 1.7569645053600957 0 0 0
1154 1 27.08296099981993 37.66843499625438 0.25533150629190604 0 0 0
1151 1 28.836772619321327 36.132914590481434 1.9190910481443852 0 0 0
1156 1 33.17343849649126 37.95998383361748 -0.03052456709669854 0 0 0
451 1 -0.07163390051439092 39.597970766236564 1.7761610754769914 0 0 0
458 1 4.507355359950726 41.1617118218998 0.11780462884034532 0 0 0
548 1 6.371107349506477 39.817787177020115 1.8268415721366775 0 0 0
459 1 10.64626017824865 41.110582433279724 0.525215890080302 0 0 0
551 1 12.646563596106018 39.313251717614875 1.800763684849895 0 0 0
461 1 16.968882918184 41.01241849158071 0.0518255739922866 0 0 0
739 1 18.80318943630493 39.67126163148074 1.710389174219088 0 0 0
1158 1 23.7018994127261 40.90066029860479 0.217735500410771 0 0 0
1238 1 25.538760605254897 39.55539218250659 1.529106449359867 0 0 0
1159 1 30.228126989392027 41.005201686000945 0.08949406894835116 0 0 0
1155 1 31.96600349672312 39.704660077010146 1.6340381187571063 0 0 0
463 1 1.4595798460122371 44.55882997331189 0.5062710903641628 0 0 0
549 1 3.0202356558276016 42.6220068053303 1.669595375404601 0 0 0
555 1 8.87871711144727 42.8318215845293 1.8425904213686448 0 0 0
465 1 7.27975595416088 44.4727367122314 0.18269906096631028 0 0 0
468 1 15.404526960348633 42.9596541911249 1.828434384661763 0 0 0
467 1 13.641869970052689 44.43377398603248 0.08891438144331865 0 0 0
1245 1 21.774106099702642 42.46131112720591 1.8485696356064762 0 0 0
1160 1 20.10659653540468 44.23604676191036 0.023864234907331083 0 0 0
1162 1 27.110403460567728 44.4249983939516 0.3797704337290546 0 0 0
1163 1 28.55919741191136 42.75969611274357 1.6496782046307283 0 0 0
1165 1 32.94548619493301 44.17400387662536 0.3997932098691248 0 0 0
1685 1 17.517904121795382 50.97749585983236 22.35867910957822 0 -1 0
554 1 5.93279784428934 46.279504028900305 1.9547797366827409 0 0 0
469 1 4.2940911888719455 47.95482039407634 0.23095659388699868 0 0 0
472 1 10.743529041891685 47.31571108191106 -0.07205652657960923 0 0 0
557 1 12.323308312379796 46.10150929555969 1.6588629551689766 0 0 0
473 1 17.097928430310294 47.06203873128573 0.402671120815015 0 0 0
1308 1 18.939276078779276 45.508804508675766 2.083262059758561 0 0 0
1167 1 23.66774971656134 47.38652554778925 0.20140166054631975 0 0 0
1161 1 25.161819275730068 45.731295321407636 1.9765304625752242 0 0 0
1168 1 29.866470019569473 47.89797973745604 0.026866856839917352 0 0 0
1169 1 31.32009907543031 46.03485085836069 1.8183638857249296 0 0 0
561 1 2.6470990579801876 49.60967627690865 1.706859581015155 0 -1 0
475 1 9.450254633689495 49.41860666511328 1.728088330741634 0 -1 0
385 1 14.19297691595007 50.82531277291567 0.1069994641550735 0 -1 0
477 1 15.449348693116391 48.93771429040705 1.962035413659914 0 -1 0
1092 1 20.108122182981155 50.9474277864744 0.19277115239982012 0 -1 0
1093 1 21.993058641287078 48.896697698816034 1.7578974963002234 0 -1 0
1174 1 28.266276002522662 49.726494980585805 1.7305307716919682 0 -1 0
1096 1 33.06103405135589 50.700582651942355 0.29279676260684906 0 -1 0
480 1 1.443739812422026 2.4849867188071264 3.301233979708751 0 0 0
481 1 3.0174389946765587 0.8000031912857442 5.064367113920304 0 0 0
574 1 9.495724631071482 1.2158037077203645 4.4314306084425645 0 0 0
486 1 15.55438344176377 0.9456971580256972 5.2207096378901054 0 0 0
1172 1 22.044149742010653 1.2281298676392582 4.982594680692849 0 0 0
1173 1 23.719045485954837 51.10287038650325 3.463989276956068 0 -1 0
1179 1 28.103137947370534 1.406305840956727 4.529141222500986 0 0 0
1175 1 29.958655924449307 51.01253535395864 3.38729781381387 0 -1 0
482 1 7.703010945375854 2.6628067453612876 3.292218345323112 0 0 0
483 1 6.2898702868466705 4.49535722821144 4.769739566544354 0 0 0
576 1 12.319407051315101 4.4862898080805005 4.721105511992272 0 0 0
485 1 14.21374939059699 2.7815120206967596 3.4062595230221593 0 0 0
1176 1 20.41722143618341 2.767970649778414 3.366142663719054 0 0 0
793 1 18.98826211694044 4.460883659442759 5.069548556148723 0 0 0
1178 1 26.854778181077428 2.8704650197755397 2.6677125994437443 0 0 0
1177 1 25.291038609232952 4.4858111749392755 4.680711578855148 0 0 0
1181 1 33.16880199204301 2.743844168729483 3.370335140765783 0 0 0
1180 1 31.80207092850464 4.31921509191184 5.17472805038642 0 0 0
488 1 4.409492432683307 5.81016723407692 3.3095723599034974 0 0 0
580 1 2.940917964842292 7.492716314769305 4.955167677785126 0 0 0
490 1 10.985471853632113 6.246132471810295 3.1835803688378417 0 0 0
587 1 9.405650255421042 7.282017647460749 5.058472088741293 0 0 0
498 1 15.609130120186846 7.487262609308888 4.973205842972326 0 0 0
492 1 17.273342522511594 5.883188937513904 3.2100763965864316 0 0 0
1185 1 23.357969299904177 6.000885551142243 3.280696515961764 0 0 0
1183 1 22.198101960922358 7.845046349040427 5.278973100547388 0 0 0
1186 1 29.687815272978003 5.890598174173499 3.5284316923076178 0 0 0
1189 1 28.438636435439804 7.776950446268572 5.294271741431529 0 0 0
493 1 1.4535448278983476 9.156862524343707 3.3768382721197554 0 0 0
45 1 0.17659046463737432 10.885028818434842 4.938573216948125 0 0 0
594 1 6.09665972851785 10.585200273127192 4.770805741817023 0 0 0
495 1 7.809207240627311 8.91024496227789 3.3615165726834655 0 0 0
499 1 14.214887960171305 9.307223965675654 3.4408243957408122 0 0 0
596 1 12.448903312969541 10.737225914082764 5.106864041907956 0 0 0
1187 1 20.399534085452547 8.94025884901201 3.6091218316583538 0 0 0
703 1 18.81665192148446 10.837180668603843 4.842139279636417 0 0 0
1188 1 26.58625712669778 9.148351306679173 3.513796802642981 0 0 0
1195 1 25.255569449954436 11.101175249780926 4.899548308021647 0 0 0
1190 1 33.049940352142464 9.188097766701812 3.310035947331849 0 0 0
1273 1 31.695906942386763 10.587851741210917 5.017873953428174 0 0 0
501 1 4.528773637032995 12.12238782625145 3.3641364503650157 0 0 0
593 1 3.1138730988615575 14.13908469370798 5.0992607361840925 0 0 0
597 1 9.19510127621658 13.689811839296436 4.910170901762877 0 0 0
502 1 10.963524963629457 12.466275948212152 3.434703283451489 0 0 0
503 1 17.03314942425995 12.380525750290753 3.3596516722789094 0 0 0
504 1 15.630406932893091 13.909610808725814 5.187917639523767 0 0 0
1192 1 21.906206597360082 13.849308512860654 4.942528902980255 0 0 0
1194 1 23.394738275829738 12.609457290134852 3.1287952389846603 0 0 0
1196 1 30.01056228098471 12.188255235488892 3.701258797518563 0 0 0
1197 1 28.618117070425097 14.002752450319418 5.298053031492833 0 0 0
2475 1 19.87315834451066 50.66633081165249 25.274594934530988 0 -1 0
505 1 1.927308286795626 15.79392981314805 3.372901998323504 0 0 0
605 1 5.856811513893767 17.22229259009907 5.1742168991207045 0 0 0
507 1 7.648797403267928 15.620750553000894 3.6410304003760836 0 0 0
607 1 12.271144363775567 16.5915769273689 4.944708953712876 0 0 0
508 1 14.4655059172427 15.570481877558793 3.495304888560115 0 0 0
1199 1 20.41624239162891 15.50101628450939 3.2980935752918916 0 0 0
731 1 18.902214868475372 16.85013267169836 5.113462625405776 0 0 0
1202 1 25.02203497408766 17.155536856418863 5.122063741215327 0 0 0
1200 1 26.712240264168646 15.51028095226733 3.4924605791293217 0 0 0
1203 1 33.38809399149704 15.007944655440477 3.1233137723715427 0 0 0
1204 1 31.821581221765868 17.004999808405437 4.465883778467543 0 0 0
604 1 2.796643661629544 20.344771424430512 5.1660131001576275 0 0 0
511 1 4.691878417032635 19.018794715794634 2.982648127444489 0 0 0
512 1 10.874047023827536 18.331452147175188 3.501556252833502 0 0 0
517 1 9.412269052118127 19.704488696241626 5.354813547534794 0 0 0
521 1 15.372696551367511 19.868087666706803 4.935396263681177 0 0 0
513 1 17.173865428562866 18.47652603628229 3.3603519047602624 0 0 0
1280 1 21.95635314112828 20.21382768058909 5.272481656904162 0 0 0
1207 1 23.471363811175298 18.8631061862162 3.306353091618431 0 0 0
1208 1 30.19554737136404 18.7994901065157 3.412545446655518 0 0 0
1283 1 28.635389933743838 20.42395157795175 5.205563213859 0 0 0
514 1 1.1573622002065767 21.90281711104842 3.3655385483438374 0 0 0
516 1 8.056164540569414 21.49115928432927 3.4657807947203354 0 0 0
523 1 6.205277251160321 23.094050237625773 5.088383889058725 0 0 0
520 1 14.03592066487249 21.685513705677668 3.3902953371228883 0 0 0
519 1 12.47293478018607 23.499276608656846 4.905831327713338 0 0 0
1211 1 20.460474865055957 21.813817138356118 3.554418243436743 0 0 0
1267 1 18.976747209346666 23.291991270114092 5.003034597655813 0 0 0
1214 1 26.758234282884985 21.86548885113524 3.458336777140522 0 0 0
1212 1 25.29361684524814 23.397809520631817 4.888109887588192 0 0 0
1215 1 33.30551124428076 21.741320614711587 3.3745956079344666 0 0 0
1289 1 31.85948246222167 23.374780005673987 5.109519908185621 0 0 0
1784 1 7.767854677765193 51.06191136129913 25.332660411591633 0 -1 0
522 1 4.781458630703339 24.767948063455687 3.7916927957258713 0 0 0
620 1 2.9779108473284563 26.708225077251555 4.841778117509269 0 0 0
524 1 10.834092514141835 25.123197103407396 3.1849319200190425 0 0 0
530 1 9.44230807970665 26.497493641936746 5.029480384065403 0 0 0
526 1 17.643678266271348 25.171675801062868 3.257170649361489 0 0 0
623 1 15.822448023732694 26.52171072742962 4.811626321060831 0 0 0
1217 1 23.86633932379089 25.14663535473447 3.379692227678005 0 0 0
1216 1 22.26468683348008 26.57160280847031 4.798931561098565 0 0 0
1218 1 30.198543320345703 24.846279489664063 3.716504331547609 0 0 0
1219 1 28.89163766185702 26.495896500045504 5.478988111748156 0 0 0
527 1 1.2973530782989857 28.28595660933049 3.324686484970219 0 0 0
528 1 7.799346161287238 28.221718235150476 3.6211287495364255 0 0 0
531 1 14.044772403917362 27.961095249529247 2.9010567668879914 0 0 0
532 1 12.488413738928767 29.491866582373063 4.745292846732601 0 0 0
1222 1 20.997057060280195 28.315689702878533 3.3830116919564417 0 0 0
818 1 19.352929119590783 29.735851506241808 4.82936487510007 0 0 0
1223 1 27.5128980369825 27.758237170962865 3.630865097543407 0 0 0
1224 1 25.85988550816517 29.440831427033014 5.051299203338889 0 0 0
1226 1 33.583186869812764 28.60199138276757 3.546808175713677 0 0 0
74 1 -0.041405799053038234 30.013975243441877 4.645061795245459 0 0 0
533 1 4.553143678171474 31.780154086635456 3.3778425655381685 0 0 0
529 1 6.0803248143815 29.818298125346168 5.186582957056665 0 0 0
535 1 10.906309395103682 31.36475132284868 3.368610568955497 0 0 0
536 1 17.489581881452406 31.022281225038213 3.423732576837995 0 0 0
1228 1 23.84953857059088 31.094581704519836 3.459335605189802 0 0 0
1229 1 30.296054439588296 31.539108770225372 3.7019628389966863 0 0 0
1230 1 32.09445161365248 29.944458125880473 5.423050020354771 0 0 0
537 1 1.4722079876823058 34.940310718487616 3.7432737269141048 0 0 0
625 1 3.0760668356272483 33.283194916203406 5.114710837433993 0 0 0
534 1 9.154894229236826 32.858599874172384 5.021125292305911 0 0 0
538 1 7.560694246274208 34.83618140081009 3.246992986828539 0 0 0
540 1 14.07207041654501 34.750346911569395 3.4953326074333484 0 0 0
637 1 15.633570873703636 32.834499665567655 4.623271522343081 0 0 0
1232 1 20.581775395143378 34.389785398307446 3.5929010971692934 0 0 0
1300 1 22.389921856072487 33.038155563102634 4.981502855491993 0 0 0
1233 1 27.102588353257016 34.516578761321576 3.402951842371479 0 0 0
1302 1 28.685527230348015 32.96227816621703 5.28702141143971 0 0 0
1235 1 33.28962595694532 34.677648840051674 3.2387348664244846 0 0 0
541 1 4.803965196043262 38.20771689746554 3.5675719262676724 0 0 0
542 1 6.153300984450113 36.62106509877423 5.178700649890422 0 0 0
543 1 10.836917811664339 37.924968951043645 3.436848071829607 0 0 0
539 1 12.601301234526328 36.23793698772193 5.009984676563216 0 0 0
545 1 17.441755478680953 37.844863388069115 3.4168622400835327 0 0 0
816 1 19.06107307681351 36.18489138411356 5.013023760251057 0 0 0
1237 1 23.966872227198667 37.80305667851923 3.171000830696268 0 0 0
1305 1 25.752814770224816 36.337263741291665 4.852030702948585 0 0 0
1239 1 30.509089894775016 37.90751750938583 3.043590744876979 0 0 0
1241 1 31.97263284880573 36.29572824292071 5.025925163289499 0 0 0
639 1 2.826577134910846 39.63099417869705 5.076305520555984 0 0 0
547 1 1.4362633925996668 41.282154195352234 3.425824649259493 0 0 0
550 1 7.7803593245321725 41.3097891425848 3.5459754480521184 0 0 0
646 1 9.517427376971185 39.786652445807064 5.072626378714485 0 0 0
552 1 14.041681002208156 41.41546503481419 3.407584375883072 0 0 0
649 1 15.914412219266211 39.53368538057167 4.951580670065321 0 0 0
1242 1 20.35312655986189 40.871017794371014 3.516357264177816 0 0 0
1312 1 22.404846124285857 38.95863834400967 4.919795661688043 0 0 0
1243 1 27.090917938974666 40.89400487181163 3.037991499680961 0 0 0
1240 1 29.041193424632453 39.77405868325423 4.849864956999554 0 0 0
1244 1 33.309316530772215 41.045058742590655 3.5448272392458375 0 0 0
1522 1 -0.2019832180000582 10.218073137881772 23.682101170914983 0 0 0
645 1 5.895556180906976 42.784984126239195 4.780330574253334 0 0 0
553 1 4.491473470568396 44.55186984700305 3.3682330287865443 0 0 0
556 1 10.592086756585863 44.43654932443121 3.20291247431494 0 0 0
558 1 12.208426552673629 42.976613636748375 4.90912903238461 0 0 0
559 1 16.99863469506146 44.25572484139485 3.607092891357204 0 0 0
413 1 18.74766998482443 42.68995446736085 4.936238793582343 0 0 0
1246 1 23.60985123328578 44.02620733953012 3.703198405991904 0 0 0
1320 1 25.50321060205459 42.308274720649784 5.043427777412129 0 0 0
1247 1 29.78773752821426 44.384636637158586 3.573432571023485 0 0 0
1316 1 31.557625570867728 43.009841998109984 5.01021922143487 0 0 0
560 1 1.3161568028686528 47.71201369165073 3.3506745396582533 0 0 0
658 1 2.864150351791388 46.313568794874605 5.0589311878383985 0 0 0
562 1 7.9640927626056435 47.689419311769385 3.1804186938189734 0 0 0
563 1 9.163948138156233 46.164686520960096 5.024144492675462 0 0 0
564 1 14.002856706171455 47.57464623365539 3.663289016004212 0 0 0
565 1 15.773911588848453 45.91657317388132 5.216652110789968 0 0 0
1248 1 20.520086298030876 47.32905820476843 3.3301304169545665 0 0 0
1249 1 21.9457331386551 45.8026130454364 5.238647536368853 0 0 0
1250 1 26.80724851445921 47.76642955276084 3.2073597708082846 0 0 0
1251 1 28.066779302954917 46.04638749144913 4.944343538607459 0 0 0
1252 1 32.923583742626725 47.399605513949574 3.585696010990327 0 0 0
1833 1 14.07888539208868 25.041879269056743 25.461725931950898 0 0 0
474 1 4.526321522995674 50.92434892188392 3.0518309474885745 0 -1 0
567 1 6.451364499298355 49.804725208733934 4.864634064034941 0 -1 0
476 1 11.624282312614678 50.906031026308916 2.995798182395247 0 -1 0
660 1 12.730931960100586 49.866852523071266 5.0287447380127555 0 -1 0
478 1 17.105759703081127 50.79762822756651 3.850471780131003 0 -1 0
981 1 19.047320898126976 49.39919197544237 5.288164635853788 0 -1 0
1254 1 25.427646190938066 49.383509370339794 5.037832828089935 0 -1 0
1327 1 31.459448440213308 49.47889004920742 5.060464502647191 0 -1 0
1801 1 4.604514058682642 8.973116322801706 25.444600502543537 0 0 0
665 1 6.123441482581024 0.9607901036161228 8.232382027245555 0 0 0
568 1 7.994718167218268 0.1680368519875972 6.445115306001038 0 0 0
671 1 12.604724220335685 1.2329407691530248 8.30138069116238 0 0 0
569 1 14.097371349044877 51.00635310775109 6.857685613246306 0 -1 0
577 1 17.193112866018865 2.5026668441990676 6.678205384675009 0 0 0
1253 1 20.433862168192032 -0.16962813661362253 6.770386043864511 0 0 0
802 1 19.122905112737282 1.4128622173969576 8.385111958457463 0 0 0
1259 1 25.51314836562997 1.3132652529858495 8.198440500160018 0 0 0
1255 1 26.904595473688616 -0.23036149390003507 6.437701865777866 0 0 0
1338 1 31.678612587432394 1.1056191238375803 8.147172580732775 0 0 0
573 1 2.8010288663969805 4.41541529559641 8.0191234085653 0 0 0
572 1 4.745058194288996 2.6830325750306545 6.484760591285663 0 0 0
582 1 9.233322561145993 4.4694371667621455 8.23229271466417 0 0 0
575 1 10.785833729007095 2.800720942931495 6.395560948505911 0 0 0
584 1 15.93714413396479 4.56162070408651 7.9797120942582325 0 0 0
1258 1 23.956527583090256 2.967977098202699 6.504020400015555 0 0 0
1341 1 22.151942321273808 4.407983929090145 8.113453810037683 0 0 0
1260 1 29.91057342295343 2.6663030509068326 6.39908402070424 0 0 0
1264 1 28.557936768994878 4.170842486214235 8.168145407193595 0 0 0
579 1 1.2208340562455433 5.810403225616155 6.341168940046796 0 0 0
2509 1 20.602593442430265 24.83932437856586 25.374653872324508 0 0 0
681 1 5.8393657959358904 7.455869325417427 7.912570926775887 0 0 0
581 1 7.658669697239317 5.902712323660861 6.667128758791041 0 0 0
583 1 13.822319759559711 5.751104991016261 6.617851875468696 0 0 0
677 1 12.759370986481134 7.501057473482209 8.269003282977396 0 0 0
1261 1 20.62178931866127 5.980794153183422 6.574254428433605 0 0 0
840 1 18.9733530950267 7.5400262054771545 7.861290450143358 0 0 0
1263 1 26.835431282880247 5.894379614869389 6.5516246973861465 0 0 0
1262 1 25.29609443852138 7.574272973075675 8.305209202784102 0 0 0
1265 1 33.295073245808666 6.09271365365844 6.586390707764729 0 0 0
1349 1 31.605114587082074 7.203223793212576 8.213584862059509 0 0 0
586 1 4.49757704191403 9.097982607608742 6.358560126140097 0 0 0
592 1 3.091651892236696 10.564982249337184 8.00514184268387 0 0 0
588 1 11.015641571337087 8.937004744702076 6.65628664202503 0 0 0
686 1 9.531833715358498 10.768848200862804 8.135317795524486 0 0 0
589 1 17.267733089740467 8.95552205386965 6.396439018456599 0 0 0
683 1 15.685774715525486 10.437488293277482 8.189630150430741 0 0 0
1346 1 21.945896342426064 10.6296335540271 8.18383537299605 0 0 0
1268 1 23.871442166281472 9.38950409314644 6.944925605088759 0 0 0
1269 1 28.16732074678716 10.599073474068282 8.119715734383185 0 0 0
1270 1 30.120368685930167 9.172838225686304 6.741570352237626 0 0 0
591 1 1.4179858962664058 12.406816809950682 6.7842185903592105 0 0 0
1780 1 15.659964863215937 45.65213086108736 23.560729031454223 0 0 0
595 1 7.657585170611517 12.078697729695127 6.382759262132163 0 0 0
692 1 6.120901606545904 13.867061064887787 8.063482135805765 0 0 0
688 1 12.202036467183024 13.88517790297277 8.383448609188813 0 0 0
598 1 14.009484899080917 12.23814805282367 6.977599778717526 0 0 0
734 1 18.691957185821284 13.899630617796776 8.012117170885253 0 0 0
1271 1 20.565083935411966 12.360281872507402 6.588802188144977 0 0 0
1272 1 26.979693078887742 12.431679059626168 6.685572479059223 0 0 0
1276 1 25.430306129410297 14.107526509421918 8.526382637490507 0 0 0
1274 1 33.389155640801846 12.241682975395884 6.546489798448114 0 0 0
1356 1 32.0506909355106 13.770207297013203 8.407702824430757 0 0 0
693 1 2.699547243948022 17.184055581215073 8.48727799594568 0 0 0
600 1 4.532603406256224 15.77010106381449 7.015409189576778 0 0 0
601 1 10.649023073013947 15.054509366255266 6.590106930936403 0 0 0
694 1 9.366525905471645 17.04997961118487 8.505793962818819 0 0 0
697 1 15.230959197385836 17.17782817309758 8.158518671763135 0 0 0
602 1 17.008114099806544 15.769048597484588 6.491965996057371 0 0 0
1277 1 23.617843733840818 15.451141562177867 6.547749817086565 0 0 0
1275 1 22.168323112438085 16.621085752756738 8.414458602427112 0 0 0
1279 1 30.673297934708213 15.58628518589951 6.543826616788679 0 0 0
1278 1 28.937568552164674 17.148029171154594 8.185459793480907 0 0 0
603 1 1.3661052744656923 18.789143116279675 6.752024070328635 0 0 0
571 1 -0.1666027508147256 20.47327485087491 8.117952180876552 0 0 0
705 1 5.98675765577019 20.147079399411595 8.47105885459626 0 0 0
606 1 7.3872201306792284 18.50132779740295 7.03677919413006 0 0 0
608 1 13.344319364458116 18.324158112816818 6.522464546288945 0 0 0
708 1 12.650862654965016 20.394695650281506 8.254520308963881 0 0 0
743 1 18.784097667200722 20.177008092705474 8.197810382476131 0 0 0
1281 1 20.514028219454048 18.464683715764647 6.8542018126337405 0 0 0
1282 1 27.073615912092396 18.691404226307842 6.5016186928781705 0 0 0
1361 1 25.508540520639603 20.33495622163112 8.156040716540247 0 0 0
1284 1 33.36729034346295 18.69080497858169 6.48354903846261 0 0 0
1285 1 31.69908925065411 20.246237929112116 8.00337146765388 0 0 0
610 1 2.749398642369122 23.361561822808884 7.8533574748823956 0 0 0
611 1 4.535095769581624 21.645317316261444 6.685793142743402 0 0 0
612 1 10.966447385343315 21.668422419686905 6.748008072362861 0 0 0
615 1 9.426428878627618 23.384781625182033 8.030045011392424 0 0 0
613 1 17.313139479669466 21.49626713496033 6.297585892972249 0 0 0
709 1 15.791695527058739 23.457852527539853 8.257746718800073 0 0 0
1286 1 23.76626049932546 21.78571393450915 6.591611914608292 0 0 0
1290 1 22.16598214101189 23.396542558916888 8.222006347528085 0 0 0
1287 1 30.07414157849814 21.920377805465634 6.827430720640757 0 0 0
1288 1 28.484234996703165 23.295157603840686 8.642357775980386 0 0 0
614 1 1.407458476437811 25.21124131137413 6.563081311305846 0 0 0