
# Define the lattice
#
variable	    lattice_constant equal 6.36339
lattice		    diamond ${lattice_constant}
lattice		    diamond 6.36339
Lattice spacing in x,y,z = 6.3633900 6.3633900 6.3633900

# Define region
# multiples of lattice spacing
#
region 		    simbox block 0 9 0 8 0 8

# Create Atoms
#
create_box          1 simbox
Created orthogonal box = (0.0000000 0.0000000 0.0000000) to (57.270510 50.907120 50.907120)
  3 by 1 by 2 MPI processor grid
create_atoms        1 box
Created 4608 atoms
  create_atoms CPU = 0.000 seconds
mass                1 18.015

# Define potential
#
pair_style          sw
pair_coeff          * * /data/emrosky-sim/Freezing_Simulations/Melting/MLmW_fancy/ML_mW.sw mW
Reading sw potential file /data/emrosky-sim/Freezing_Simulations/Melting/MLmW_fancy/ML_mW.sw with DATE: 2019-02-27

# Add velocity/set timestep
#
velocity            all create ${TEMP} 120598 rot yes dist gaussian
velocity            all create 289 120598 rot yes dist gaussian
timestep            5.0

# Define output
#
compute	            1 all msd
thermo              100
thermo_style        custom step temp press vol etotal ke pe c_1[4]

# Neighbor lists
#
neigh_modify        delay 0 every 1 check yes

# Set fixes
#
fix                 1 all momentum 10 linear 1 1 1 rescale
fix                 2 all nve
fix                 3 all temp/csvr ${TEMP} ${TEMP} 500.0 928347
fix                 3 all temp/csvr 289 ${TEMP} 500.0 928347
fix                 3 all temp/csvr 289 289 500.0 928347
fix                 4 all press/berendsen iso ${PRES} ${PRES} 1000.0 modulus 20000
fix                 4 all press/berendsen iso -500 ${PRES} 1000.0 modulus 20000
fix                 4 all press/berendsen iso -500 -500 1000.0 modulus 20000

# Run 0.5 ns equilibration
#
dump		    1 all custom 1000 eq.${NAME}.dump id type x y z vx vy vz
dump		    1 all custom 1000 eq.ice_289K_-500atm_ML.dump id type x y z vx vy vz
run                 100000
Neighbor list info ...
  update every 1 steps, delay 0 steps, check yes
  max neighbors/atom: 2000, page size: 100000
  master list distance cutoff = 6.0032907
  ghost atom cutoff = 6.0032907
  binsize = 3.0016454, bins = 20 17 17
  1 neighbor lists, perpetual/occasional/extra = 1 0 0
  (1) pair sw, perpetual
      attributes: full, newton on
      pair build: full/bin/atomonly
      stencil: full/bin/3d
      bin: standard
Per MPI rank memory allocation (min/avg/max) = 4.779 | 4.779 | 4.779 Mbytes
Step Temp Press Volume TotEng KinEng PotEng c_1[4] 
       0          289   -639.94366    148418.52   -51928.465    3968.7191   -55897.184            0 
     100    191.41593   -361.18426    148340.79   -50312.617    2628.6369   -52941.254  0.094504969 
     200    221.60756   -398.77676    148658.27   -49352.922    3043.2462   -52396.168   0.10593391 
     300    244.41168   -446.98945    148862.84   -48744.658    3356.4059   -52101.064   0.12858148 
     400     259.8805   -464.34908    149003.24   -48341.673    3568.8329   -51910.505   0.13218728 
     500    275.13126   -446.64257    149103.74   -48059.756    3778.2653   -51838.021   0.13084005 
     600    282.49128   -461.36762     149185.7   -47788.739    3879.3374   -51668.076   0.14486895 
     700    284.93835   -522.87038    149242.93   -47742.988    3912.9421    -51655.93   0.13472372 
     800    282.96748   -538.14108    149259.03   -47647.709    3885.8769   -51533.586   0.14868238 
     900    290.22167   -521.29462    149258.77   -47628.983    3985.4958   -51614.479   0.14879198 
    1000    287.18259   -503.14922    149237.84   -47675.184    3943.7614   -51618.945   0.14057319 
    1100    287.52372   -522.62795    149264.93   -47617.719    3948.4459   -51566.164   0.13858324 
    1200    290.04986   -495.43636     149271.2   -47608.444    3983.1364   -51591.581   0.14520893 
    1300    289.48809   -526.02928    149263.99   -47530.511    3975.4219   -51505.933   0.14609026 
    1400    286.71764   -520.18559    149289.05   -47633.618    3937.3764   -51570.994   0.14601995 
    1500    285.71224   -506.39466     149236.9   -47657.185    3923.5696   -51580.755   0.13911829 
    1600    289.70485   -466.25336    149246.63    -47594.53    3978.3985   -51572.928   0.14505494 
    1700    289.50043   -463.83191    149245.65   -47619.915    3975.5913   -51595.506   0.14114929 
    1800    287.60212   -451.72663    149228.62   -47613.924    3949.5226   -51563.446   0.14375102 
    1900    290.77227   -524.96159    149263.41   -47522.158    3993.0569   -51515.215   0.14831067 
    2000    296.01832   -518.35516    149313.81   -47473.137    4065.0988   -51538.235   0.13879451 
    2100    282.35019   -568.53096    149280.12   -47641.882       3877.4   -51519.282   0.15032111 
    2200    291.92364   -483.80941    149274.65   -47568.067    4008.8682   -51576.936   0.13027223 
    2300    291.14107   -546.14233    149250.52   -47504.856    3998.1215   -51502.978   0.15426393 
    2400     296.1331   -486.02633     149262.8   -47533.333     4066.675   -51600.008   0.14314692 
    2500    292.10378   -481.15348    149279.75   -47581.369    4011.3421   -51592.711   0.13463918 
    2600    289.77435   -549.03134    149263.86   -47612.602    3979.3528   -51591.955   0.14934975 
    2700    290.20492   -437.79273    149273.43   -47583.541    3985.2657   -51568.807    0.1294605 
    2800    295.39998   -452.57265     149289.1   -47481.261    4056.6074   -51537.868   0.14567457 
    2900    288.23536   -509.03777    149283.83   -47503.018    3958.2186   -51461.237   0.14737517 
    3000    291.31211   -498.96193    149252.87   -47564.315    4000.4704   -51564.785   0.14694158 
    3100    289.86258   -519.57231    149277.12   -47541.665    3980.5645   -51522.229   0.14443356 
    3200    287.78374   -483.23639    149262.34   -47648.908    3952.0166   -51600.924   0.14154637 
    3300    286.83107    -471.4436    149236.37   -47713.307     3938.934   -51652.241   0.12968778 
    3400    281.55071   -494.43869    149230.99   -47641.084     3866.421   -51507.505   0.14539497 
    3500    292.21047    -525.8738    149232.05   -47609.101    4012.8071   -51621.908   0.14191399 
    3600     290.5069   -467.53709    149219.72   -47610.308    3989.4127   -51599.721   0.14207525 
    3700    283.38709   -518.42732    149237.95   -47571.688    3891.6393   -51463.327   0.14515579 
    3800    286.79442   -506.87975    149240.31   -47563.064    3938.4307   -51501.495   0.14871943 
    3900    286.31664   -516.27443    149258.06   -47566.419    3931.8696   -51498.288   0.14605621 
    4000    286.37964   -497.04062     149255.4   -47620.536    3932.7348   -51553.271   0.14161837 
    4100    284.80526   -521.05615    149234.96   -47629.819    3911.1144   -51540.933   0.14906945 
    4200    289.81266   -516.25857    149252.18   -47590.374     3979.879   -51570.253   0.13842139 
    4300    286.38268   -508.82879    149214.66   -47720.016    3932.7765   -51652.793   0.14887565 
    4400     291.4487   -524.08564    149230.64   -47615.315    4002.3461   -51617.661   0.13597113 
    4500    286.99727   -531.88561    149216.05   -47667.887    3941.2164   -51609.104   0.15183479 
    4600    287.29317   -483.49633    149214.34   -47699.442    3945.2799   -51644.722   0.13729353 
    4700    292.69122   -502.55924    149214.78   -47606.859    4019.4091   -51626.268   0.13796255 
    4800    295.74208   -447.32468    149229.53   -47500.758    4061.3053   -51562.064   0.13732415 
    4900     295.6789   -482.64011    149233.44   -47467.681    4060.4376   -51528.118    0.1459724 
    5000    284.78424   -488.01456     149240.8   -47595.841    3910.8257   -51506.667   0.14541915 
    5100    284.68397   -504.17027    149247.88   -47525.623    3909.4487   -51435.071   0.14563915 
    5200    291.59473   -541.25414    149243.98   -47595.596    4004.3515   -51599.947   0.14603624 
    5300    284.90396   -499.57256    149213.48   -47699.294    3912.4698   -51611.764   0.13837266 
    5400    287.50089   -512.38149    149228.27   -47660.134    3948.1323   -51608.267   0.14109046 
    5500    286.88765   -469.12484    149220.96   -47628.621     3939.711   -51568.332   0.13988016 
    5600    284.79793   -494.28023    149224.71    -47670.87    3911.0138   -51581.884   0.14529766 
    5700    288.33243   -522.20791    149242.19   -47660.233    3959.5516   -51619.785   0.13715699 
    5800    288.24466   -518.76126    149239.06   -47602.336    3958.3463   -51560.682   0.14611158 
    5900    286.28641   -458.25552    149238.18   -47677.056    3931.4544   -51608.511   0.13608052 
    6000    287.83035   -495.42023    149232.06   -47658.454    3952.6567   -51611.111   0.14292625 
    6100    285.54801   -508.73748    149230.25   -47739.859    3921.3143   -51661.173   0.13845984 
    6200    286.93205   -479.62747    149208.66   -47710.227    3940.3207   -51650.548   0.13536908 
    6300    287.08309   -519.86019     149242.7   -47593.871    3942.3949   -51536.265    0.1495291 
    6400    285.30824    -510.6523    149252.41   -47649.008    3918.0216   -51567.029   0.14049753 
    6500    281.88901   -509.69139    149236.57   -47666.287    3871.0667   -51537.354    0.1453888 
    6600    284.01083   -498.17195    149213.86   -47669.811    3900.2049   -51570.016   0.14173313 
    6700    287.02079   -521.16407    149218.55   -47727.654    3941.5394   -51669.193   0.14262246 
    6800    288.58905   -490.26558    149199.32   -47677.531    3963.0756   -51640.607   0.13752294 
    6900    293.23555   -492.23234    149244.66   -47604.315    4026.8841   -51631.199   0.14535666 
    7000    289.94674   -495.43077    149195.49   -47597.057    3981.7202   -51578.777   0.14837189 
    7100    288.67232   -503.20901    149205.14   -47605.236    3964.2192   -51569.455   0.13885791 
    7200    282.39267   -520.99296    149188.55   -47715.315    3877.9833   -51593.298   0.14796924 
    7300    281.39692   -498.37966    149180.88   -47767.134    3864.3091   -51631.443   0.13358132 
    7400    284.25049   -524.62999    149189.86   -47658.252    3903.4959   -51561.748   0.14643948 
    7500    286.57537   -452.55758       149207   -47585.738    3935.4226    -51521.16   0.13919167 
    7600    288.50018   -494.32746    149223.55   -47563.391    3961.8552   -51525.246   0.14378571 
    7700    287.46862   -495.57271     149213.6    -47659.73    3947.6893    -51607.42   0.14059984 
    7800    282.49256   -501.40535    149171.33    -47713.13    3879.3551   -51592.485   0.14990776 
    7900    284.71163   -506.17217    149178.93    -47654.08    3909.8287   -51563.909   0.14056286 
    8000     289.5036   -485.95096    149228.28   -47563.468    3975.6348   -51539.103   0.14566145 
    8100    290.55251   -490.76946    149210.29   -47518.672     3990.039   -51508.711   0.14362466 
    8200    292.48453   -501.86025    149218.67   -47541.785    4016.5707   -51558.356   0.14149135 
    8300    288.91466   -522.02449    149231.42   -47502.848    3967.5471   -51470.395   0.15650732 
    8400    290.54534   -501.81665    149276.12   -47487.888    3989.9406   -51477.828    0.1413147 
    8500    288.52333   -488.59752    149236.82   -47570.433    3962.1732   -51532.606   0.15026033 
    8600     292.0554   -468.10003    149246.07   -47585.738    4010.6776   -51596.415   0.13489545 
    8700    290.92659   -481.36953    149227.77   -47551.631    3995.1761   -51546.807    0.1470105 
    8800    288.73443   -505.90087    149219.81   -47595.547    3965.0721   -51560.619   0.13998456 
    8900    286.99683   -520.57739    149216.52   -47666.156    3941.2104   -51607.366    0.1514868 
    9000    292.88714   -507.74235    149222.72   -47588.465    4022.0996   -51610.565   0.14061144 
    9100    290.46148   -502.71852    149227.06   -47645.681     3988.789    -51634.47   0.14136034 
    9200    293.34614    -487.8901    149256.73   -47534.006    4028.4028   -51562.409   0.14814831 
    9300    290.22381   -496.50279    149236.37    -47687.34    3985.5251   -51672.865   0.13559837 
    9400    285.12661   -497.61187    149222.41   -47646.235    3915.5274   -51561.762   0.14827639 
    9500    285.25416   -507.74132    149200.41   -47684.949    3917.2789   -51602.228   0.14302189 
    9600    289.29589   -515.42943    149198.83   -47681.024    3972.7824   -51653.807   0.14200034 
    9700    288.67601   -497.31458    149236.65   -47554.124    3964.2699   -51518.394   0.14468808 
    9800    296.16787   -538.01098    149275.19   -47515.115    4067.1524   -51582.267   0.14529508 
    9900    292.63987   -517.21413    149247.83   -47540.552    4018.7039   -51559.256   0.14231855 
   10000    285.99713   -524.27215    149238.41   -47595.561    3927.4818   -51523.043   0.14997612 
   10100    293.49494   -506.71945    149249.35   -47550.014    4030.4463    -51580.46   0.13852644 
   10200    289.30283   -520.55157    149258.91   -47522.803    3972.8777    -51495.68   0.14885893 
   10300    295.54302   -518.28321    149266.43   -47516.397    4058.5716   -51574.969    0.1508706 
   10400    293.77231    -523.4825    149281.44   -47532.965    4034.2553    -51567.22    0.1433001 
   10500    283.40627   -517.82063    149252.02   -47576.241    3891.9026   -51468.144   0.15056979 
   10600    289.04328   -488.97446    149261.34   -47601.022    3969.3134   -51570.336    0.1412647 
   10700    291.10865   -485.07475    149242.58    -47621.45    3997.6762   -51619.126   0.14106339 
   10800    285.97529   -501.37994    149220.89   -47755.418    3927.1819     -51682.6   0.13538645 
   10900    284.67647   -498.97101    149180.44   -47733.762    3909.3457   -51643.107   0.14261803 
   11000    281.73917    -510.9246    149204.72   -47744.157    3869.0091   -51613.166   0.14472681 
   11100    286.48366   -500.36517    149232.74   -47654.452    3934.1632   -51588.616   0.14670905 
   11200    288.39042   -497.87977    149216.53   -47763.843    3960.3479   -51724.191   0.14015484 
   11300    289.83554   -491.95735     149225.2   -47680.029    3980.1932   -51660.222   0.13409863 
   11400    286.92717    -496.9369    149220.05   -47655.551    3940.2538   -51595.805   0.14971594 
   11500    291.08476   -488.32981    149241.16   -47554.755    3997.3482   -51552.103   0.14308658 
   11600    289.60345   -507.00595    149265.01   -47551.042     3977.006   -51528.048   0.15162861 
   11700    299.06823   -512.06499    149276.06   -47418.388     4106.982    -51525.37   0.14871651 
   11800    290.31762   -521.35346    149261.64   -47487.826    3986.8134   -51474.639   0.14763744 
   11900    292.19731   -489.21978    149264.97   -47535.276    4012.6264   -51547.902   0.14025829 
   12000     294.3305   -494.26285    149284.73   -47497.785    4041.9206   -51539.706   0.14815542 
   12100    290.53825   -502.32267    149230.61   -47551.953    3989.8432   -51541.797   0.14379756 
   12200    290.52966   -487.31449    149214.11   -47555.985    3989.7252   -51545.711   0.14610082 
   12300    291.18017   -491.37851    149210.56   -47614.386    3998.6585   -51613.045   0.14570012 
   12400    288.04191   -504.59082    149226.82   -47608.536     3955.562   -51564.098   0.13877124 
   12500    289.61692   -552.82332     149231.6   -47542.513    3977.1909   -51519.704   0.15361228 
   12600    295.75424   -479.60163     149241.7   -47503.715    4061.4722   -51565.187   0.14060375 
   12700    282.31478   -540.64362    149232.06   -47581.933    3876.9137   -51458.847   0.15396488 
   12800    286.73189    -496.7437    149228.87   -47564.788     3937.572    -51502.36   0.14168778 
   12900    286.27144   -483.78888    149228.35   -47629.261    3931.2488    -51560.51   0.14947022 
   13000    288.45064   -498.24059    149235.58   -47599.842     3961.175   -51561.017    0.1406572 
   13100    287.53317   -506.59926    149201.98   -47672.361    3948.5756   -51620.937   0.14603596 
   13200    286.96469   -533.66958    149209.93   -47706.668    3940.7689   -51647.437   0.13990813 
   13300    280.99862   -537.72363     149189.1   -47789.324    3858.8394   -51648.163   0.13943753 
   13400    284.79692    -493.0904    149164.18   -47774.758    3910.9999   -51685.758   0.14051337 
   13500    279.43556   -533.66012    149202.64   -47682.076    3837.3745    -51519.45   0.14656822 
   13600    285.84529   -485.38176     149217.7   -47627.569    3925.3966   -51552.966   0.14712571 
   13700    285.80814   -487.23877    149231.93   -47665.196    3924.8866   -51590.083   0.13962447 
   13800    291.97476   -490.71049    149234.78   -47614.595    4009.5703   -51624.166   0.14467846 
   13900    294.06565   -474.90007    149224.39   -47603.506    4038.2835   -51641.789   0.13841039 
   14000     294.6699    -494.5345     149270.7   -47491.324    4046.5815   -51537.906   0.14843178 
   14100    289.03362   -508.10241    149234.13   -47579.927    3969.1807   -51549.108   0.14276035 
   14200    286.23426   -555.37963    149232.18   -47593.459    3930.7382   -51524.198   0.15047176 
   14300    293.98334    -520.4124    149240.07    -47625.56    4037.1532   -51662.713   0.14469308 
   14400    284.32352   -485.52609    149222.47   -47680.786    3904.4988   -51585.285   0.14328799 
   14500    286.05218   -474.53582    149217.69   -47696.499    3928.2378   -51624.737   0.13725773 
   14600      289.274   -491.98799     149199.3   -47647.454    3972.4818   -51619.936   0.14348167 
   14700    287.28423   -470.70463    149219.12   -47599.219     3945.157   -51544.376   0.14640732 
   14800    290.81702   -491.69912    149249.99   -47578.728    3993.6714   -51572.399   0.14210692 
   14900    284.30838   -535.37789    149231.19   -47584.324     3904.291   -51488.615    0.1506462 
   15000    289.73519   -500.05576    149238.37   -47652.575    3978.8151    -51631.39   0.14130055 
   15100    284.87235   -463.34043     149233.2   -47668.012    3912.0358   -51580.048   0.14232689 
   15200    287.18391   -487.51453    149235.68   -47590.485    3943.7795   -51534.265     0.144071 
   15300     287.5317   -526.60118    149237.72   -47683.836    3948.5555   -51632.392   0.14306047 
   15400     290.3683   -522.92923    149226.89   -47679.092    3987.5094   -51666.602   0.14698248 
   15500     287.5135   -506.39947    149236.17   -47611.932    3948.3055   -51560.237   0.14390484 
   15600      295.571   -496.17706    149257.25    -47486.01    4058.9559   -51544.966   0.14855119 
   15700    293.44794   -525.48703    149296.68   -47501.319    4029.8008    -51531.12   0.14841801 
   15800    293.71749   -478.24386    149259.77   -47503.238    4033.5024    -51536.74   0.15058418 
   15900    291.75193    -461.4654    149259.75   -47527.604    4006.5101   -51534.114   0.13731424 
   16000    289.27373    -512.1182    149256.29   -47574.802    3972.4781    -51547.28   0.14941156 
   16100    287.65884   -520.83295    149226.53   -47606.062    3950.3014   -51556.364   0.14368643 
   16200    289.28222   -542.69896    149252.51   -47619.667    3972.5947   -51592.262   0.14323422 
   16300    290.12278   -534.96757    149214.26   -47632.107    3984.1377   -51616.245   0.14981385 
   16400    287.54347   -525.64179    149223.72   -47645.396    3948.7172   -51594.114    0.1473818 
   16500    288.54139   -499.47707    149268.96   -47564.786    3962.4212   -51527.207   0.14351994 
   16600    297.25039   -444.96718    149272.17   -47489.587    4082.0183   -51571.605   0.13917646 
   16700    292.76011   -516.81984    149237.19   -47531.243    4020.3551   -51551.598   0.14545211 
   16800    288.75075   -529.98336     149231.9   -47587.359    3965.2962   -51552.656   0.14544088 
   16900    292.46995   -513.67537    149219.58   -47611.599    4016.3704   -51627.969   0.14857413 
   17000    291.63795   -498.52542    149215.22   -47661.738    4004.9449   -51666.683   0.13710582 
   17100     290.7209   -510.81746    149232.76   -47611.748    3992.3515   -51604.099   0.15119705 
   17200    288.66072   -489.28898    149208.61   -47669.086    3964.0599   -51633.146   0.13918975 
   17300    284.51305   -514.90168    149192.32   -47761.751    3907.1016   -51668.853   0.14068684 
   17400    280.60242   -529.53323    149186.09   -47750.678    3853.3985   -51604.077   0.14446171 
   17500    279.76024   -503.74532    149196.08   -47647.902    3841.8332   -51489.735   0.14930837 
   17600    288.88399   -501.75962    149205.55   -47658.808    3967.1259   -51625.934   0.14114769 
   17700    285.86669   -496.32416    149211.31   -47719.213    3925.6907   -51644.903   0.14164373 
   17800    288.29246      -490.58    149193.07   -47665.144    3959.0027   -51624.147   0.14435133 
   17900    290.36303   -508.27768    149225.68   -47613.263    3987.4369     -51600.7   0.14366778 
   18000    292.47704   -497.25304     149229.3   -47518.994    4016.4678   -51535.462   0.14891204 
   18100    292.82047   -521.02319    149263.55   -47534.345     4021.184   -51555.529   0.14248562 
   18200    291.85302   -509.36586    149247.47   -47581.968    4007.8984   -51589.867   0.14398487 
   18300    291.46128     -517.411    149228.08   -47580.229    4002.5188   -51582.748   0.14451304 
   18400    282.04045   -501.94343    149205.64   -47676.378    3873.1463   -51549.525   0.14374963 
   18500    286.86264   -495.26298    149198.48   -47613.844    3939.3676   -51553.212   0.14733266 
   18600    292.43569   -534.00285    149234.22   -47574.191    4015.8999   -51590.091   0.14778513 
   18700    290.45744   -485.82596    149209.51   -47584.835    3988.7335   -51573.568   0.14017613 
   18800    289.00268   -493.21293    149208.27   -47606.844    3968.7559   -51575.599   0.14347247 
   18900    290.70656   -497.40638    149219.95   -47562.903    3992.1545   -51555.057    0.1449994 
   19000    287.52309   -479.03043    149233.14   -47595.263    3948.4373     -51543.7   0.14454681 
   19100    290.75977   -524.97268    149240.52   -47505.787    3992.8852   -51498.673    0.1517023 
   19200    291.31819   -464.49701    149211.91   -47528.459    4000.5538   -51529.013   0.13989379 
   19300    298.99602   -489.08225     149247.7   -47426.227    4105.9904   -51532.218   0.14533961 
   19400    293.76357   -469.27002    149231.72   -47489.369    4034.1353   -51523.504   0.14632959 
   19500    290.17738   -495.63003    149231.08   -47491.699    3984.8875   -51476.586    0.1468205 
   19600    290.36737   -526.19177    149232.88   -47482.438    3987.4966   -51469.935    0.1505923 
   19700    290.27964   -511.54949    149228.94   -47532.905    3986.2918   -51519.197   0.14577176 
   19800    295.16315   -490.23129    149226.55   -47486.086    4053.3551   -51539.441   0.14719209 
   19900     289.5379   -488.86012    149221.34   -47569.385    3976.1058   -51545.491   0.14318427 
   20000    287.40682   -519.32129    149190.82   -47595.285    3946.8406   -51542.125   0.15426119 
   20100    290.59829   -486.13217    149173.35   -47635.127    3990.6677   -51625.794   0.13887056 
   20200    288.25552   -502.87568    149178.81   -47612.739    3958.4955   -51571.235   0.14871695 
   20300    291.85708    -502.4191    149212.21   -47576.332    4007.9542   -51584.287   0.14155888 
   20400    287.20739   -521.12858    149219.42   -47641.481    3944.1018   -51585.583   0.14763166 
   20500    280.62447   -520.24369    149198.14   -47676.803    3853.7013   -51530.504   0.14663178 
   20600    285.19517   -510.87132     149186.8    -47694.59    3916.4689   -51611.059   0.13996622 
   20700    288.69362   -500.68803    149195.75    -47641.72    3964.5117   -51606.232    0.1451075 
   20800    292.63885   -496.39904    149230.23   -47505.759    4018.6899   -51524.449   0.14531968 
   20900    290.83314   -510.53392    149205.76   -47610.817    3993.8929    -51604.71   0.14403979 
   21000    286.88638   -469.37525    149201.92    -47621.01    3939.6936   -51560.704   0.13958415 
   21100    292.42233   -514.89955    149221.11   -47500.029    4015.7166   -51515.745   0.15587142 
   21200     293.4804   -536.05489    149226.29   -47523.712    4030.2466   -51553.959    0.1450347 
   21300    294.27931   -494.63403    149229.94   -47512.181    4041.2176   -51553.399   0.14862929 
   21400    293.01216   -468.76309    149215.36   -47553.635    4023.8164   -51577.451   0.14303336 
   21500    291.78931   -473.01176    149225.65   -47459.482    4007.0235   -51466.505   0.15162923 
   21600    292.82689   -465.93858    149227.42   -47461.956    4021.2722   -51483.228   0.14824307 
   21700    287.49521   -514.63281    149201.12   -47595.319    3948.0543   -51543.373   0.15038133 
   21800    287.39047   -536.80083    149189.06   -47629.201    3946.6161   -51575.817   0.14724361 
   21900     291.7304   -531.07577    149193.92   -47607.812    4006.2145   -51614.026   0.14508741 
   22000    284.92132    -495.0585    149180.38   -47633.793    3912.7082   -51546.501    0.1464582 
   22100     281.2387   -494.31223    149154.29   -47677.662    3862.1363   -51539.798   0.14523362 
   22200    290.92655   -508.98773    149132.81   -47762.451    3995.1756   -51757.627   0.14352907 
   22300    291.50254   -484.40734     149155.8   -47646.579    4003.0854   -51649.664   0.14024649 
   22400    292.31167   -487.76549     149188.4   -47594.489    4014.1969   -51608.686   0.14654502 
   22500    293.55067   -466.75562    149213.78   -47547.994    4031.2115   -51579.205   0.14510994 
   22600    287.96389   -485.80878     149175.3   -47584.504    3954.4906   -51538.994   0.14923311 
   22700    285.87285   -510.54586    149175.01   -47648.774    3925.7752   -51574.549   0.14718194 
   22800    289.48718   -523.77157    149194.65   -47570.853    3975.4092   -51546.262   0.15465985 
   22900    287.17817   -489.50819    149180.15   -47606.884    3943.7006   -51550.584    0.1480409 
   23000    289.76657   -523.22461     149195.5   -47681.756     3979.246   -51661.002   0.14237532 
   23100    286.78955   -447.15539    149197.34   -47617.332    3938.3639   -51555.696   0.14706648 
   23200    289.47451   -486.18958     149217.6   -47566.196    3975.2353   -51541.431   0.14924212 
   23300    291.69525   -513.12338    149239.21   -47566.214    4005.7319   -51571.946   0.14825445 
   23400    287.39915   -513.98005    149219.27   -47617.237    3946.7353   -51563.973   0.14720018 
   23500    294.38911    -488.1415    149224.76   -47502.759    4042.7255   -51545.485    0.1477393 
   23600    290.92051   -509.96508    149228.97   -47522.597    3995.0926    -51517.69   0.14878645 
   23700    295.15312    -485.3387    149223.05   -47512.681    4053.2173   -51565.898    0.1488917 
   23800    298.97127   -501.85347    149217.23   -47523.529    4105.6505   -51629.179   0.14792222 
   23900    291.82988   -524.59945    149207.57    -47615.26    4007.5807   -51622.841    0.1468896 
   24000    288.95912   -473.01726    149202.91   -47555.731    3968.1577   -51523.889   0.15138132 
   24100    292.00707   -481.74897    149211.35   -47487.464    4010.0139   -51497.478   0.14462597 
   24200    291.36517   -493.78227    149187.33   -47617.082    4001.1989   -51618.281   0.14888787 
   24300    288.09431   -489.68328    149174.86   -47655.726    3956.2816   -51612.008   0.14513401 
   24400    285.93891   -521.39202    149169.33    -47680.93    3926.6824   -51607.613   0.14763007 
   24500     285.0477   -537.83635    149182.47   -47634.365    3914.4437   -51548.809   0.14884286 
   24600    287.19523   -462.66143    149186.92   -47680.292    3943.9349   -51624.227   0.14511921 
   24700     285.6022   -524.22606    149175.89   -47680.859    3922.0585   -51602.918   0.14139447 
   24800    293.75004   -480.16836    149203.74   -47630.139    4033.9494   -51664.088   0.14509885 
   24900    287.63015   -445.68934       149169    -47681.07    3949.9074   -51630.977   0.14305888 
   25000    285.09755   -497.69863    149172.33   -47671.123    3915.1282   -51586.251   0.14597426 
   25100    282.37786   -509.50379    149137.87   -47720.195    3877.7799   -51597.975    0.1518137 
   25200    276.88064   -524.53233    149146.39   -47853.243    3802.2889   -51655.532   0.13813351 
   25300    286.83289   -515.83943    149153.44    -47686.83     3938.959   -51625.789   0.15010002 
   25400    286.01921   -508.95289    149178.24   -47731.635    3927.7851    -51659.42   0.14399242 
   25500    290.29965   -487.12445    149182.78   -47619.643    3986.5666    -51606.21   0.15053988 
   25600    290.88738   -474.67913    149201.21   -47536.504    3994.6377   -51531.141   0.14449649 
   25700    287.17484   -531.04681    149180.15    -47630.68    3943.6549   -51574.335   0.15195374 
   25800    292.52759   -485.52148    149207.48   -47482.913     4017.162   -51500.075   0.14506804 
   25900    289.25687   -534.05036    149235.47   -47513.954    3972.2466   -51486.201   0.15528781 
   26000    289.30789   -465.03128    149223.06   -47558.262    3972.9472   -51531.209   0.14934171 
   26100    288.07263   -525.41727    149215.54   -47542.296    3955.9839    -51498.28   0.14938826 
   26200    286.91706   -509.89693     149229.8   -47647.654    3940.1149   -51587.769   0.14652146 
   26300    289.23777   -455.50699    149209.88    -47607.62    3971.9843   -51579.604   0.13825715 
   26400    284.67792   -506.23663    149195.55   -47668.718    3909.3656   -51578.083   0.14514658 
   26500    290.60245    -494.1389    149210.73   -47581.311    3990.7249   -51572.036   0.14951169 
   26600    290.61148   -438.87866    149213.37   -47524.065    3990.8489   -51514.914   0.14586367 
   26700    293.50786   -496.26355     149213.7   -47525.595    4030.6237   -51556.219   0.14105774 
   26800    287.88624   -535.81734    149193.35   -47575.767    3953.4243   -51529.191   0.15258786 
   26900    287.17615   -481.12263    149222.22    -47514.94    3943.6729   -51458.613   0.14468436 
   27000    291.25257   -550.95554    149215.95   -47547.153    3999.6527   -51546.806   0.15361636 
   27100    292.31213   -490.87328     149213.6   -47494.551    4014.2031   -51508.754   0.14897421 
   27200    288.54616   -526.18136    149194.47   -47559.663    3962.4866   -51522.149   0.14837372 
   27300    297.20887   -469.60307    149238.28   -47392.581    4081.4481   -51474.029   0.15172675 
   27400    290.93535   -485.19261    149251.14   -47518.427    3995.2964   -51513.723   0.14741993 
   27500    286.96787    -512.6772    149228.05   -47629.571    3940.8126   -51570.384   0.14677424 
   27600     284.7518   -510.62863    149200.33   -47681.607    3910.3802   -51591.987   0.14611635 
   27700    291.75623    -508.7535    149204.05   -47573.875    4006.5692   -51580.444   0.14814985 
   27800    295.59443   -483.15639    149220.87   -47551.249    4059.2777   -51610.527   0.14185146 
   27900    289.99242    -521.3455    149200.33   -47609.172    3982.3476    -51591.52   0.15200156 
   28000    288.37353   -525.96197     149181.6   -47681.308    3960.1161   -51641.424     0.144939 
   28100    286.46909   -519.34575    149183.28   -47658.988    3933.9631   -51592.951   0.14664021 
   28200    287.10899   -486.33605    149199.17   -47623.774    3942.7506   -51566.525   0.15203283 
   28300    286.86836   -482.41357    149206.84   -47650.319    3939.4462   -51589.765   0.14138336 
   28400    286.40412   -513.10666    149236.84   -47579.028    3933.0708   -51512.099   0.15316809 
   28500    287.78613   -478.06673    149226.93   -47607.873    3952.0495   -51559.922   0.14258003 
   28600      293.356   -489.41325    149217.89   -47622.395    4028.5382   -51650.933   0.14846377 
   28700    291.88683   -503.90518    149227.57   -47618.746    4008.3627   -51627.109   0.14500502 
   28800    286.11251   -504.83455    149213.16   -47663.072    3929.0663   -51592.139   0.14604143 
   28900    291.09017   -481.65184    149223.68   -47629.432    3997.4226   -51626.854   0.14311515 
   29000    287.61493   -522.26567    149225.67   -47573.922    3949.6985   -51523.621   0.15289538 
   29100    285.53249   -495.07253    149232.22    -47569.59    3921.1012   -51490.692   0.14908134 
   29200    290.93588   -528.40601    149246.93   -47503.618    3995.3037   -51498.921    0.1520457 
   29300    292.50949   -506.99676    149242.64   -47504.263    4016.9134   -51521.177   0.15463935 
   29400    295.46368   -528.88079    149253.29   -47523.772    4057.4821   -51581.254   0.14625825 
   29500    292.40513   -497.47599    149247.65   -47571.406    4015.4803   -51586.886   0.15179652 
   29600    293.19355   -463.97225    149251.81   -47539.553    4026.3074   -51565.861   0.14470891 
   29700    289.71027   -533.76248    149185.71   -47615.121     3978.473   -51593.594   0.15336312 
   29800    288.13841   -489.96904    149152.61   -47701.679    3956.8871   -51658.566   0.14055029 
   29900    281.63828   -519.79352    149159.45     -47679.4    3867.6236   -51547.024   0.15368987 
   30000    286.31213    -484.2131    149159.21   -47640.749    3931.8077   -51572.556   0.14776523 
   30100    285.94592   -497.43988    149164.41    -47610.32    3926.7786   -51537.099   0.15404587 
   30200    285.30102   -490.31592     149166.9   -47625.864    3917.9224   -51543.786   0.14975801 
   30300    283.98163   -515.21741    149165.62   -47613.232    3899.8038   -51513.036   0.15136528 
   30400     292.0361   -505.02278    149165.64   -47649.769    4010.4126   -51660.182   0.15145471 
   30500     285.8698   -497.61098    149141.15   -47748.265    3925.7333   -51673.998   0.14478373 
   30600    287.60694   -492.37773    149147.38    -47622.83    3949.5887   -51572.419   0.15367219 
   30700    288.46096   -516.79422    149155.95   -47653.832    3961.3166   -51615.148   0.14688179 
   30800    290.20601   -477.09725    149146.72   -47580.282    3985.2807   -51565.562   0.14980266 
   30900    289.58734   -520.15116     149169.1   -47564.803    3976.7848   -51541.588   0.15294455 
   31000    291.09301   -493.05322    149154.98   -47598.537    3997.4615   -51595.998    0.1477433 
   31100    285.89395   -508.96232    149145.88   -47608.479     3926.065   -51534.544   0.15430048 
   31200    288.02515   -499.47227    149149.08   -47553.052    3955.3318   -51508.384   0.15594967 
   31300    293.37165   -518.44021    149171.91    -47488.25    4028.7532   -51517.004   0.15381647 
   31400    290.17321   -516.03847    149177.37   -47611.391    3984.8303   -51596.221   0.15360249 
   31500    291.91123   -501.28223     149155.8    -47554.49    4008.6978   -51563.188   0.15411827 
   31600    293.76385   -512.52489    149182.19   -47579.493     4034.139   -51613.632   0.15001858 
   31700    290.46894     -517.215     149199.2   -47550.509    3988.8914     -51539.4   0.15276113 
   31800    290.74095   -522.53574    149219.75   -47616.357    3992.6268   -51608.983   0.14949404 
   31900    290.07416   -500.22423       149205    -47609.26    3983.4701    -51592.73   0.14922914 
   32000    287.38845   -541.78992    149202.71   -47560.135    3946.5883   -51506.723   0.15570297 
   32100    288.71601   -520.13888    149211.53   -47598.477    3964.8192   -51563.296   0.14441207 
   32200    287.99849   -507.63482    149173.02   -47719.869    3954.9658   -51674.835   0.15076417 
   32300    289.79466   -448.54353    149188.66   -47662.154    3979.6318   -51641.786   0.14037243 
   32400    284.22061   -497.19631    149177.09   -47754.549    3903.0857   -51657.635   0.14672903 
   32500    286.44293   -511.73093     149203.1   -47613.663    3933.6038   -51547.266   0.15018236 
   32600    288.62419   -517.78546    149202.51   -47562.989    3963.5582   -51526.547   0.15769311 
   32700    287.32335   -525.63747    149218.25   -47661.005    3945.6944   -51606.699   0.14438145 
   32800     292.3797   -529.66031    149220.92   -47529.372     4015.131   -51544.503   0.15457336 
   32900    290.59017    -492.7074    149209.02   -47597.795    3990.5562   -51588.351   0.14648577 
   33000    293.99754   -505.97824    149206.64   -47589.254    4037.3482   -51626.603   0.14904807 
   33100    286.52115   -467.73289    149198.83    -47615.42     3934.678   -51550.098   0.14749479 
   33200    290.06376   -484.65012    149226.27   -47602.396    3983.3272   -51585.724   0.14269856 
   33300    292.04458   -456.51947    149224.16   -47597.569     4010.529   -51608.098    0.1494139 
   33400    290.51404   -468.04881       149200   -47615.691    3989.5107   -51605.202   0.14411295 
   33500    283.80257   -511.61249    149212.04   -47640.283    3897.3449   -51537.628   0.14974667 
   33600    286.52904   -491.16339    149232.01   -47655.913    3934.7863   -51590.699   0.14804404 
   33700     289.5567    -524.5806    149249.39   -47558.448    3976.3641   -51534.812   0.15117595 
   33800    291.33975   -467.32221     149282.8   -47448.672    4000.8498   -51449.522   0.14406765 
   33900    293.35481   -513.49855    149276.34   -47475.584    4028.5218   -51504.106   0.15536004 
   34000    285.54369   -482.94637    149242.47       -47622    3921.2549   -51543.255   0.14312239 
   34100    286.55703   -489.10192    149215.47   -47636.985    3935.1708   -51572.155   0.14984237 
   34200    285.54811   -524.05617     149182.9   -47633.147    3921.3156   -51554.462    0.1469455 
   34300    283.37136   -516.82024       149199    -47669.67    3891.4233   -51561.093   0.15154531 
   34400    288.85522   -506.60609     149196.7   -47594.035    3966.7309   -51560.766   0.14895038 
   34500    291.27405   -488.65748    149233.78   -47521.129    3999.9477   -51521.077   0.15264906 
   34600    286.13599   -528.94133    149239.27   -47517.473    3929.3887   -51446.862   0.15091504 
   34700    290.64589   -491.00837    149225.96   -47636.874    3991.3214   -51628.195   0.14566654 
   34800     290.6256   -475.29625    149207.64   -47623.972    3991.0428   -51615.014   0.14540262 
   34900    285.50705   -497.24358    149206.53   -47606.587    3920.7519   -51527.339   0.14665038 
   35000    287.29738    -491.8346    149218.89   -47581.173    3945.3377    -51526.51   0.15163489 
   35100    291.84955   -511.12691    149238.86   -47606.775    4007.8508   -51614.626   0.14647341 
   35200    291.21195   -509.38812    149258.75   -47543.919    3999.0949   -51543.014   0.15000007 
   35300     289.9711   -516.87861    149245.67   -47624.578    3982.0548   -51606.633    0.1447014 
   35400    288.63056   -486.89147    149231.77   -47625.431    3963.6457   -51589.077   0.14409518 
   35500    287.92673   -502.33208    149238.29   -47607.526    3953.9803   -51561.506   0.14782064 
   35600    291.59318   -496.05747    149266.22   -47587.527    4004.3302   -51591.857   0.14509961 
   35700    294.48023   -532.31299    149262.75   -47604.149    4043.9768   -51648.126   0.14471474 
   35800    292.55637   -512.78258    149270.39   -47431.506    4017.5572   -51449.063   0.15655552 
   35900    293.27751   -496.14484    149266.32   -47551.395    4027.4604   -51578.855    0.1450912 
   36000    292.57639   -487.98735    149225.21    -47608.52    4017.8322   -51626.352   0.14643199 
   36100    284.72982   -493.36206    149216.08   -47650.765    3910.0784   -51560.843   0.14619666 
   36200    284.97367   -519.88798    149215.49    -47683.71    3913.4272   -51597.137    0.1506614 
   36300    287.71799   -492.61272    149226.05   -47616.414    3951.1137   -51567.528   0.14580734 
   36400    289.41225   -511.60131    149209.24   -47668.884    3974.3803   -51643.264   0.14650276 
   36500    285.67941   -516.10643    149222.87   -47640.728    3923.1188   -51563.847   0.14630023 
   36600     285.9418   -489.71467       149235   -47644.339    3926.7221   -51571.061   0.14769067 
   36700    288.33216   -515.61641    149241.54   -47680.813    3959.5479   -51640.361   0.14406536 
   36800     283.7102   -477.47334    149214.75   -47754.505    3896.0764   -51650.581   0.14250516 
   36900    287.78644   -507.30105     149218.4   -47669.401    3952.0537   -51621.454   0.14472565 
   37000    285.91304   -518.29579     149229.6   -47660.978    3926.3271   -51587.305   0.15163047 
   37100    285.61443   -486.17556    149207.17   -47703.314    3922.2264    -51625.54   0.14026562 
   37200     283.1072   -504.57891     149228.4   -47708.615    3887.7956    -51596.41   0.14647845 
   37300    287.32249    -477.0587    149222.51   -47700.698    3945.6826   -51646.381   0.14089693 
   37400    282.95046   -531.71154    149214.75   -47714.947    3885.6432   -51600.591   0.14608294 
   37500    288.38543   -523.59173    149207.97   -47685.561    3960.2794    -51645.84   0.14824898 
   37600    282.86626   -508.06432    149201.97    -47735.38    3884.4868   -51619.867   0.14673738 
   37700    278.54953   -489.19605    149163.13   -47808.217     3825.207   -51633.424     0.150166 
   37800    281.60492    -497.6671     149178.5   -47835.035    3867.1654   -51702.201   0.14003973 
   37900    289.89504   -477.15458    149187.69   -47735.178    3981.0102   -51716.189   0.14240491 
   38000    289.40922   -493.00634    149235.89   -47675.616    3974.3388   -51649.955   0.14569312 
   38100    284.84595    -493.2645     149234.7   -47606.831    3911.6732   -51518.504   0.14728063 
   38200    293.35224    -495.0374    149249.82   -47573.637    4028.4866   -51602.123   0.14373563 
   38300    284.84937   -532.49275    149237.08   -47624.641    3911.7201   -51536.362   0.15131352 
   38400    290.69888   -476.84485    149253.88   -47557.749    3992.0491   -51549.798     0.139222 
   38500    288.57456   -520.16179    149245.09   -47620.021    3962.8766   -51582.898   0.15577062 
   38600    292.04088   -533.47089    149241.07   -47584.365    4010.4783   -51594.843   0.14661697 
   38700    293.50166   -474.01122     149239.8    -47548.06    4030.5386   -51578.599   0.15213788 
   38800    289.49619    -484.7247    149240.69   -47583.652     3975.533   -51559.185   0.14577291 
   38900    286.67798   -494.79201     149239.4    -47522.65    3936.8317   -51459.482   0.15020704 
   39000     288.8946   -492.26243    149230.06   -47579.999    3967.2717    -51547.27   0.15016531 
   39100    289.01966   -490.30014    149216.54   -47607.051     3968.989    -51576.04   0.15008223 
   39200    284.95919     -530.848    149188.94   -47730.078    3913.2282   -51643.306     0.146189 
   39300     288.8275   -487.45342    149173.98   -47742.381    3966.3502   -51708.732   0.14535255 
   39400    287.84524   -491.72183    149199.49   -47615.071    3952.8612   -51567.932   0.15367951 
   39500    290.79397   -502.32643    149209.68   -47600.115    3993.3549    -51593.47   0.14938306 
   39600    289.88208   -501.25738    149203.55   -47594.222    3980.8322   -51575.054   0.14932396 
   39700    290.39339    -481.2666    149204.69   -47576.821    3987.8539   -51564.675   0.15257186 
   39800     290.4931   -512.35408    149201.41   -47603.114    3989.2232   -51592.337   0.14935311 
   39900    288.42342   -499.35114    149208.44   -47562.898    3960.8011   -51523.699   0.15234148 
   40000    291.00277   -499.21398    149185.76   -47633.096    3996.2222   -51629.318   0.15048553 
   40100     288.9768   -496.96606    149202.62   -47647.143    3968.4005   -51615.543    0.1468073 
   40200    289.41271   -486.80667    149209.01   -47617.175    3974.3866   -51591.562   0.15362155 
   40300    288.89078   -469.70207    149224.28   -47632.276    3967.2192   -51599.495   0.14399936 
   40400    290.60543   -476.86248    149206.85   -47718.174    3990.7658    -51708.94   0.14232174 
   40500    290.38667   -483.47117    149223.36   -47581.619    3987.7616    -51569.38   0.14962471 
   40600    287.51226   -513.82558    149219.22   -47647.916    3948.2886   -51596.204   0.14472138 
   40700    280.00563   -503.79213    149170.58   -47646.839    3845.2031   -51492.042    0.1537196 
   40800    286.85319   -520.81219    149198.17   -47625.638    3939.2378   -51564.876   0.15467459 
   40900    288.15047   -499.49196    149199.75   -47609.483    3957.0528   -51566.536   0.14353624 
   41000     286.0862   -540.15444    149210.64   -47683.125    3928.7051    -51611.83    0.1568372 
   41100    295.43866   -470.25472    149209.43   -47647.659    4057.1385   -51704.798    0.1369052 
   41200    291.68788   -447.07593    149241.43   -47536.861    4005.6306   -51542.491   0.15463691 
   41300    290.14832   -533.20822    149257.66    -47625.68    3984.4885   -51610.168   0.14569136 
   41400    289.00657   -526.28909    149245.44   -47570.009    3968.8093   -51538.818    0.1501158 
   41500    285.50588   -510.39728    149214.13    -47579.19    3920.7358   -51499.925    0.1487389 
   41600    289.25931   -491.13935    149215.25   -47589.758      3972.28   -51562.038   0.15182517 
   41700    287.88721   -497.95228    149195.42   -47698.413    3953.4375    -51651.85   0.14513819 
   41800    290.73309   -511.47436    149215.38   -47615.762    3992.5189   -51608.281   0.15303202 
   41900    286.70345   -519.13213    149182.68   -47690.717    3937.1814   -51627.899   0.15045084 
   42000    287.91418   -503.10463    149201.93   -47663.959     3953.808   -51617.767   0.14407859 
   42100    283.07663   -496.93204    149197.78   -47737.835    3887.3758   -51625.211   0.14891711 
   42200     288.4101   -510.60462    149195.78   -47694.768    3960.6182   -51655.386   0.14345909 
   42300    288.07454   -509.44993    149200.64   -47654.644      3956.01   -51610.654   0.14907247 
   42400    288.47582    -507.5425    149223.78   -47685.746    3961.5207   -51647.267   0.14455497 
   42500    287.11056   -515.15423    149221.06   -47643.466    3942.7721   -51586.238   0.15084277 
   42600    290.45501   -502.10985    149222.96   -47684.936    3988.7001   -51673.636   0.14280731 
   42700    280.74241   -517.79755    149200.49   -47749.863    3855.3209   -51605.183   0.15315562 
   42800    288.26462   -515.71076    149244.55   -47673.397    3958.6204   -51632.018   0.13945151 
   42900    285.75821   -497.90742    149206.74   -47681.531    3924.2009   -51605.732   0.15130305 
   43000    289.26392   -479.67145    149225.58   -47706.803    3972.3433   -51679.146   0.14198962 
   43100    290.14268   -479.96187    149230.39   -47623.499     3984.411    -51607.91   0.14498915 
   43200    290.00566   -524.51276    149209.95   -47637.287    3982.5293   -51619.817   0.14658082 
   43300    289.92487   -503.89862    149201.17   -47630.175    3981.4199   -51611.595   0.14714104 
   43400    292.63351   -495.02923    149216.04    -47563.07    4018.6166   -51581.687   0.14982984 
   43500    287.95833   -540.69152    149222.72   -47621.156    3954.4142    -51575.57   0.15353215 
   43600     285.9195   -546.36239    149195.12   -47659.826    3926.4158   -51586.241   0.14639206 
   43700    285.23278   -505.04765    149179.26   -47705.075    3916.9853   -51622.061   0.14626069 
   43800    284.17834   -523.12281    149177.23   -47737.713    3902.5052   -51640.218   0.14643017 
   43900    288.14774   -477.94396    149205.12   -47653.806    3957.0153   -51610.821   0.14477784 
   44000    281.14724   -510.60821    149192.08   -47738.556    3860.8804   -51599.437   0.14712151 
   44100    288.39162    -479.2162    149199.95    -47695.67    3960.3644   -51656.034   0.14625011 
   44200    284.53911   -476.33074    149216.84   -47656.337    3907.4594   -51563.796   0.14554617 
   44300    289.83472   -470.12556    149232.87   -47660.791    3980.1819   -51640.973   0.14422123 
   44400     285.8702   -482.04097    149216.16   -47668.932    3925.7388    -51594.67   0.14510309 
   44500     291.9212   -478.77744    149235.79     -47681.9    4008.8347   -51690.735   0.14184313 
   44600    281.92986   -502.25166     149235.7   -47683.855    3871.6277   -51555.482   0.15000943 
   44700    288.69127   -475.50538    149239.79   -47672.996    3964.4793   -51637.476   0.13955744 
   44800    286.82522   -484.33223    149227.26   -47626.374    3938.8538   -51565.227   0.14740576 
   44900    289.72208   -505.72466    149242.74   -47616.636    3978.6351   -51595.272   0.14099567 
   45000    285.33791   -501.48768    149211.44    -47656.88    3918.4291   -51575.309   0.14639714 
   45100    294.75644   -482.32667    149253.77   -47545.827    4047.7699   -51593.597   0.14670763 
   45200    290.31152   -488.32173    149247.86   -47579.414    3986.7296   -51566.144     0.147159 
   45300    285.77994   -519.12545    149222.65   -47601.893    3924.4993   -51526.392   0.14351547 
   45400    286.03169   -510.78762    149213.87   -47665.726    3927.9565   -51593.683   0.14866935 
   45500    290.35577   -479.29245     149223.1   -47601.347    3987.3373   -51588.685   0.14015974 
   45600    286.86517   -499.98833    149232.74   -47596.245    3939.4024   -51535.647   0.15515317 
   45700    290.48966   -480.63593    149238.57   -47546.506     3989.176   -51535.682   0.14412883 
   45800    290.46317   -490.52033    149238.37   -47630.087    3988.8122   -51618.899   0.14739247 
   45900    293.15941   -470.50044    149232.24   -47488.418    4025.8385   -51514.257   0.14791267 
   46000    291.54137   -499.95418    149215.05   -47549.554    4003.6186   -51553.172   0.14812089 
   46100    290.25566     -537.922    149226.53   -47457.747    3985.9626    -51443.71   0.15342655 
   46200    294.70158   -478.93857    149217.47   -47517.325    4047.0165   -51564.341   0.14851903 
   46300    293.21005   -511.50576    149235.91    -47509.44     4026.534   -51535.974   0.15066174 
   46400    293.98774   -462.22088    149208.21    -47549.74    4037.2137   -51586.954   0.14136878 
   46500    287.85502   -516.36212    149205.02   -47510.569    3952.9955   -51463.565   0.15580755 
   46600    290.98526   -482.96059    149198.05   -47572.033    3995.9818   -51568.014   0.14398337 
   46700     289.5068   -513.80053    149202.98   -47505.993    3975.6787   -51481.672   0.15477513 
   46800    290.53231   -498.46055    149220.83    -47523.73    3989.7616   -51513.492   0.14770663 
   46900    286.57513   -494.15156    149198.18   -47577.261    3935.4193   -51512.681   0.14862526 
   47000    291.49401   -504.39988    149226.55   -47612.623    4002.9683   -51615.591   0.14672815 
   47100    290.66814   -477.65529    149191.77   -47616.608    3991.6269   -51608.235   0.15006185 
   47200    286.21866   -502.51956    149205.95   -47589.262     3930.524   -51519.786   0.14474375 
   47300     282.8278   -530.70552    149168.49   -47708.804    3883.9588   -51592.763   0.15213999 
   47400    288.17584   -492.72131    149179.01   -47640.188    3957.4012    -51597.59   0.14322879 
   47500    290.28212   -494.25258    149175.64   -47650.338    3986.3259   -51636.664   0.14231176 
   47600    288.40311   -523.78594    149187.11   -47645.175    3960.5222   -51605.697   0.15021394 
   47700    293.89059   -436.08756    149208.66   -47566.017    4035.8795   -51601.897   0.14239048 
   47800    287.23893   -466.48553    149186.98   -47620.907     3944.535   -51565.442   0.14936937 
   47900     287.3404   -467.53592     149179.6   -47670.478    3945.9284   -51616.407    0.1470399 
   48000    286.81265   -514.42582     149195.2     -47628.9    3938.6811   -51567.581   0.14374533 
   48100     286.3877   -484.93226    149173.36   -47672.247    3932.8454   -51605.092   0.15080432 
   48200    291.67932   -493.87744    149190.67   -47662.614    4005.5131   -51668.127   0.14360088 
   48300    288.85702   -471.12429    149204.84   -47618.843    3966.7555   -51585.599   0.14400066 
   48400    287.52622    -480.7078    149203.71   -47659.372    3948.4803   -51607.853   0.14687179 
   48500    286.83414   -527.90337    149178.26   -47744.511    3938.9762   -51683.487   0.14475537 
   48600    282.59315   -503.46957    149175.49   -47737.815    3880.7364   -51618.552   0.14316398 
   48700    285.27075   -525.32704    149198.14    -47631.99    3917.5068   -51549.497   0.15002585 
   48800    289.44043   -486.17693    149183.69   -47618.289    3974.7673   -51593.056   0.14597525 
   48900    287.24893   -501.21745    149191.11   -47645.386    3944.6723   -51590.058   0.14498031 
   49000    290.33052   -494.23795    149185.23   -47678.102    3986.9906   -51665.093   0.14618148 
   49100    289.60101   -510.79674    149208.13   -47590.953    3976.9725   -51567.926   0.14524976 
   49200    285.08986   -485.66777    149214.16   -47625.578    3915.0227     -51540.6    0.1492756 
   49300    284.06221   -546.06956     149201.9   -47693.222    3900.9104   -51594.132   0.14820927 
   49400    286.04566   -503.05732    149193.45   -47712.951    3928.1483     -51641.1    0.1440666 
   49500    288.16017   -470.13851    149211.67   -47652.176     3957.186   -51609.362   0.14390156 
   49600    290.40578   -493.79148    149207.96   -47647.845    3988.0241   -51635.869   0.14589584 
   49700    286.49846   -486.27639    149200.38   -47652.392    3934.3665   -51586.759   0.13852521 
   49800    285.03335   -467.77618     149199.2   -47659.658    3914.2467   -51573.905    0.1499821 
   49900    290.10774    -508.2776    149224.84   -47645.888    3983.9312   -51629.819   0.14055168 
   50000    288.32005   -496.25546    149206.14   -47650.505    3959.3816   -51609.887    0.1437798 
   50100     291.2889   -533.92453    149213.84    -47508.21    4000.1516   -51508.361   0.15171181 
   50200    294.40924   -521.42873    149235.81   -47586.715     4043.002   -51629.717   0.14505156 
   50300    293.58823   -510.00489    149234.53    -47601.34    4031.7274   -51633.068   0.14495158 
   50400    286.90326   -533.33559    149204.27   -47622.337    3939.9254   -51562.263   0.14837999 
   50500    291.52553   -495.51824    149206.77    -47527.91    4003.4011   -51531.312   0.14355247 
   50600    295.80583   -475.82627    149232.41   -47455.739    4062.1807    -51517.92   0.14978751 
   50700    288.06659   -510.64493    149194.86   -47694.876     3955.901   -51650.777   0.14662313 
   50800    290.66667   -507.18599    149176.36    -47677.09    3991.6068   -51668.697   0.14015419 
   50900    286.27317   -511.85693    149171.35   -47698.573    3931.2726   -51629.845   0.15031007 
   51000    287.65796   -488.14642    149181.74   -47655.395    3950.2894   -51605.685   0.14243058 
   51100    286.38561   -523.74848    149170.11   -47668.701    3932.8167   -51601.518   0.15040318 
   51200    286.83203     -481.032    149150.38   -47721.506    3938.9471   -51660.453   0.14516236 
   51300    286.45888   -496.32563    149155.23   -47733.132    3933.8229   -51666.955   0.14632383 
   51400     288.9996   -494.81794    149167.82   -47670.068    3968.7136   -51638.782   0.14777591 
   51500    282.74398   -545.87018    149179.36   -47730.515    3882.8077   -51613.323   0.15009719 
   51600    287.88109   -492.54807    149186.22   -47645.902    3953.3536   -51599.256   0.14416691 
   51700    289.26135   -495.86444    149209.82   -47545.118    3972.3081   -51517.426   0.15524922 
   51800    290.05621   -483.64005    149231.74   -47592.814    3983.2236   -51576.037   0.14627746 
   51900    286.38739   -516.58215    149216.68   -47655.454    3932.8411   -51588.295   0.14554245 
   52000    287.99695   -511.18874    149209.21   -47641.463    3954.9446   -51596.408   0.14926498 
   52100    287.17324   -498.14191    149187.63   -47719.999    3943.6328   -51663.632   0.14512905 
   52200    282.98361   -513.89207    149178.38   -47777.567    3886.0985   -51663.666    0.1426656 
   52300      283.949   -478.36533    149157.33   -47746.293    3899.3558   -51645.649   0.14484074 
   52400    281.65393   -521.46204    149146.46    -47833.03    3867.8385   -51700.868   0.14255242 
   52500    286.62519    -506.0551    149168.28   -47686.048    3936.1067   -51622.155   0.14745735 
   52600    288.93004   -521.11776    149185.34   -47650.976    3967.7584   -51618.734   0.14935484 
   52700    292.84288   -470.43962    149226.03   -47591.408    4021.4918     -51612.9   0.14574004 
   52800    288.84625   -519.21356    149220.62    -47558.18    3966.6077   -51524.788   0.15231773 
   52900    295.77409   -490.94024    149224.04   -47584.975    4061.7449    -51646.72   0.14563286 
   53000    290.41815    -517.2591    149217.67   -47532.003    3988.1939   -51520.197   0.15087171 
   53100    286.89897   -516.99006    149186.25   -47670.949    3939.8665   -51610.816   0.15095226 
   53200    287.36218   -482.66786    149186.62   -47719.338    3946.2275   -51665.565   0.14329109 
   53300     291.1471   -473.73721    149208.23   -47683.423    3998.2043   -51681.628    0.1425601 
   53400    287.69785   -497.26986    149228.95   -47612.056    3950.8372   -51562.893   0.15064337 
   53500    293.62749   -487.51554    149245.78   -47605.529    4032.2665   -51637.796   0.14049264 
   53600    287.95209   -518.62758    149227.82   -47669.535    3954.3285   -51623.864   0.14760113 
   53700    286.64571   -501.48771    149233.31   -47650.892    3936.3886    -51587.28   0.14497173 
   53800    288.27951   -448.19933     149226.3    -47676.88    3958.8248   -51635.705   0.14261741 
   53900    289.89237   -472.83777    149240.25   -47685.197    3980.9736   -51666.171   0.14368634 
   54000    285.22575    -548.5628    149240.03   -47697.363    3916.8888   -51614.252   0.15049293 
   54100    285.86221   -523.09283    149238.87   -47668.872    3925.6291   -51594.501   0.14270581 
   54200    288.33395   -478.24298    149250.82    -47618.81    3959.5724   -51578.383   0.15216566 
   54300      292.347   -496.01578    149282.38    -47547.57     4014.682   -51562.252   0.13985258 
   54400    292.25672   -487.07264    149280.53   -47469.902    4013.4423   -51483.344   0.14939781 
   54500    290.72457   -532.17068    149255.52   -47531.855    3992.4018   -51524.257   0.15148869 
   54600    289.53494   -539.93857    149272.09   -47554.947    3976.0652   -51531.012   0.14700037 
   54700    289.87895   -495.76931    149246.73   -47618.108    3980.7893   -51598.898   0.15131284 
   54800    291.51967   -491.26155    149244.87   -47543.177    4003.3207   -51546.497   0.14593536 
   54900    292.16505   -479.32826    149249.57   -47556.484    4012.1834   -51568.667   0.14304682 
   55000    292.11475    -491.6752    149251.72   -47591.989    4011.4927   -51603.481   0.14994164 
   55100    289.35656   -521.14956    149219.35   -47604.605    3973.6155   -51578.221   0.14902283 
   55200    288.15532   -482.19125    149200.26   -47718.771    3957.1194   -51675.891   0.14009884 
   55300    285.09273   -518.44002    149177.79    -47764.09    3915.0621   -51679.152   0.14818502 
   55400    287.29417   -494.30966    149183.14   -47728.563    3945.2936   -51673.856    0.1395049 
   55500     286.0971   -493.50309    149167.87   -47689.148    3928.8547   -51618.003   0.14859006 
   55600     293.8937    -489.9376    149214.47    -47583.13    4035.9222   -51619.052   0.14576119 
   55700    289.72794   -493.38361    149249.35   -47545.647    3978.7156   -51524.363   0.14714063 
   55800    290.45331   -500.83809    149259.65   -47532.696    3988.6768   -51521.373   0.14948259 
   55900    291.45102   -509.86493    149238.32   -47539.464     4002.378   -51541.842    0.1489292 
   56000     287.9757     -495.792    149257.37   -47553.527    3954.6528    -51508.18   0.14664966 
   56100    292.47726    -517.8943    149227.51   -47541.033    4016.4708   -51557.504   0.15348209 
   56200    287.00329   -500.98449    149247.44   -47581.836    3941.2991   -51523.135   0.14701466 
   56300    287.65425   -485.88282    149229.05   -47649.543    3950.2384   -51599.781   0.14172244 
   56400     288.4081   -494.18322    149200.09   -47699.806    3960.5907   -51660.396   0.14616037 
   56500    280.32215   -545.61203    149192.58   -47748.847    3849.5497   -51598.397   0.14902647 
   56600    281.40046   -513.79229    149170.68   -47802.941    3864.3577   -51667.299   0.14310499 
   56700    283.51569   -518.77919    149186.32   -47778.318    3893.4052   -51671.723   0.14890367 
   56800    284.05844   -481.40807    149211.27   -47665.251    3900.8586   -51566.109   0.14161831 
   56900    282.58336   -506.78238    149219.16   -47758.263     3880.602   -51638.865   0.14342767 
   57000    282.74941   -521.39182     149192.5   -47737.279    3882.8823   -51620.161   0.14599611 
   57100    290.43663   -472.89189    149212.94   -47655.864    3988.4476   -51644.312    0.1442444 
   57200    292.16563   -512.39499    149206.26   -47608.838    4012.1914   -51621.029   0.14874951 
   57300     281.2293   -551.30665    149204.26    -47751.18    3862.0073   -51613.187   0.14801387 
   57400    292.10939   -508.56575    149209.34    -47632.74    4011.4191   -51644.159   0.14483549 
   57500    290.59622   -459.66424    149220.75    -47594.37    3990.6393    -51585.01   0.15105401 
   57600    285.06808    -511.1212    149198.77   -47709.592    3914.7237   -51624.316   0.14529962 
   57700    289.89694   -474.23485     149222.1   -47621.877    3981.0364   -51602.913   0.14282107 
   57800    290.52264   -469.25966    149213.88   -47567.283    3989.6289   -51556.911   0.15212335 
   57900    293.19707   -499.73364    149246.44    -47612.05    4026.3557   -51638.406   0.13719439 
   58000    292.33761   -486.30201    149221.59   -47568.333    4014.5531   -51582.886   0.15138027 
   58100    288.48642   -492.90324    149212.64   -47613.198    3961.6663   -51574.865   0.14639197 
   58200    291.12551   -509.41721    149229.72   -47514.358    3997.9079   -51512.266   0.14852744 
   58300    289.97988   -532.16314    149226.05     -47583.8    3982.1753   -51565.975   0.15229805 
   58400    287.67353   -507.69982    149217.65   -47624.125    3950.5032   -51574.629   0.14861204 
   58500    286.30738   -515.86417    149195.85   -47625.778    3931.7424   -51557.521   0.14782919 
   58600    283.78261   -526.76795    149211.39    -47668.23    3897.0708     -51565.3   0.15203241 
   58700    288.04485   -485.94307     149214.1   -47616.935    3955.6024   -51572.538   0.14539372 
   58800    291.89682   -483.34996    149207.92   -47658.607    4008.4999   -51667.107   0.14187693 
   58900    292.59315   -495.03634    149252.86   -47579.453    4018.0624   -51597.516   0.14604861 
   59000    288.08382   -505.97262    149266.98   -47544.323    3956.1375   -51500.461   0.14700939 
   59100    285.62607    -504.7576    149262.15   -47509.317    3922.3863   -51431.703   0.15518219 
   59200    291.60584   -487.91567     149236.3   -47629.752     4004.504   -51634.256   0.14444907 
   59300    292.35927   -506.09479    149243.57   -47615.251    4014.8506   -51630.101    0.1471423 
   59400    285.17105    -503.9399    149217.71   -47591.751    3916.1376   -51507.889   0.14870394 
   59500    285.32491   -484.15677    149191.76   -47697.668    3918.2505   -51615.918   0.14514421 
   59600    287.15087   -505.82277    149199.81   -47675.274    3943.3257     -51618.6   0.14127624 
   59700    290.84243   -498.38987    149208.71   -47605.817    3994.0204   -51599.837   0.15035141 
   59800    287.94473   -508.28418    149219.54   -47724.183    3954.2275    -51678.41   0.14133989 
   59900    282.90212   -498.45494       149203   -47713.317    3884.9793   -51598.296     0.146226 
   60000    286.63415   -483.01672    149193.01   -47677.611    3936.2298   -51613.841   0.14506733 
   60100    284.10886   -500.38295    149209.18   -47635.955     3901.551   -51537.506   0.14710679 
   60200    289.41628   -482.55892    149209.65   -47607.404    3974.4356   -51581.839   0.14743681 
   60300    290.26178   -492.52531    149215.39   -47565.749    3986.0466   -51551.796   0.14828863 
   60400    295.38902   -478.73893    149251.52    -47518.27    4056.4569   -51574.726   0.14320735 
   60500    290.63547   -511.89237    149263.99   -47551.257    3991.1783   -51542.435   0.15058585 
   60600    286.34356   -516.61228    149247.81   -47610.925    3932.2393   -51543.164   0.14718944 
   60700    294.57852    -462.7197    149285.81   -47437.474    4045.3266     -51482.8   0.15061511 
   60800    289.45754   -477.00722     149255.8   -47459.868    3975.0023    -51434.87   0.15561392 
   60900    290.82713   -492.47973    149261.12    -47558.44    3993.8103   -51552.251   0.14388917 
   61000    290.40773   -467.39514       149240   -47596.631    3988.0508   -51584.682    0.1460513 
   61100    291.74092   -562.75271    149210.89   -47580.316     4006.359   -51586.675   0.15047816 
   61200    297.55077    -455.1726    149243.87   -47521.571    4086.1433   -51607.714   0.14088243 
   61300    286.05958   -528.79585    149223.43     -47614.3    3928.3395    -51542.64   0.15227273 
   61400    283.82383   -517.32279    149206.34   -47662.934    3897.6368    -51560.57    0.1449277 
   61500    288.75209   -511.35248    149213.26   -47603.533    3965.3146   -51568.847   0.14860505 
   61600    288.89249   -476.66354    149196.73   -47642.487    3967.2427    -51609.73   0.15084435 
   61700    287.53588   -511.42062     149187.5   -47707.805    3948.6128   -51656.418   0.14432725 
   61800    286.89858   -521.52415     149204.4   -47697.281    3939.8611   -51637.142   0.14901264 
   61900    290.09046   -497.34253    149233.01   -47594.259    3983.6939   -51577.953   0.14772102 
   62000    288.99472   -510.94348    149225.08   -47610.322    3968.6465   -51578.969    0.1463575 
   62100    288.47079   -489.56855    149211.42     -47678.3    3961.4516   -51639.752   0.13984712 
   62200    292.54207     -492.414    149247.51   -47573.628    4017.3608   -51590.989   0.15067517 
   62300     289.7886   -486.07945    149246.98   -47614.206    3979.5486   -51593.755   0.13707499 
   62400    289.61346   -530.26477    149236.38   -47667.657    3977.1435   -51644.801   0.14945471 
   62500    286.76427   -496.30465    149238.65   -47654.032    3938.0167   -51592.049   0.14097999 
   62600    289.15675   -512.01618    149219.43   -47682.347    3970.8716   -51653.218   0.14608235 
   62700    281.07484    -528.6402     149184.4   -47717.354     3859.886    -51577.24   0.15350916 
   62800    287.35852   -493.38157    149198.62   -47690.368    3946.1773   -51636.545   0.14403069 
   62900    286.37999   -491.76192    149237.59   -47600.224    3932.7395   -51532.963    0.1475082 
   63000     287.5692   -506.07024    149215.53    -47625.01    3949.0705    -51574.08    0.1488188 
   63100    289.23794   -475.00421    149209.13   -47690.019    3971.9866   -51662.005   0.14321361 
   63200     289.4566   -495.52678    149231.11   -47575.857    3974.9894   -51550.846   0.14764642 
   63300    284.52594   -517.48967    149216.18   -47673.525    3907.2786   -51580.803   0.14674337 
   63400    280.13251   -541.86864    149213.39   -47768.872    3846.9455   -51615.817   0.14260315 
   63500    287.34018   -508.74939    149210.68   -47741.868    3945.9254   -51687.794   0.14632766 
   63600    277.67939   -486.09484    149183.95   -47783.638    3813.2577   -51596.895   0.14069894 
   63700    283.05498   -488.75427    149184.42   -47751.377    3887.0785   -51638.455   0.14359299 
   63800    283.16273   -471.24956    149183.72   -47820.834    3888.5582   -51709.392     0.140984 
   63900    290.49449    -483.1743    149198.23   -47715.492    3989.2423   -51704.735   0.14349464 
   64000     288.2057   -509.27844    149230.56   -47630.923    3957.8113   -51588.734   0.14649189 
   64100    285.14259   -504.55862    149235.33   -47582.096    3915.7468   -51497.843   0.15381285 
   64200    291.40586   -473.68853    149227.73   -47574.086    4001.7577   -51575.844   0.14153269 
   64300    285.78951   -519.59568    149248.53   -47615.216    3924.6308   -51539.847   0.14351676 
   64400    286.04755   -505.34217    149226.06   -47670.866    3928.1743    -51599.04   0.14620455 
   64500     284.9182   -497.91523    149202.77   -47657.642    3912.6654   -51570.308   0.14153728 
   64600    286.04206   -466.24369    149205.23   -47691.048    3928.0988   -51619.147   0.14530915 
   64700    282.54942   -532.14693    149188.08   -47697.074    3880.1359    -51577.21   0.14820791 
   64800     288.8807   -466.02288    149215.36   -47645.256    3967.0808   -51612.337   0.14203285 
   64900    293.10011   -460.13989     149219.1   -47557.769    4025.0242   -51582.793   0.15146973 
   65000    290.04766   -529.49175    149231.24   -47543.932    3983.1061   -51527.038   0.14288938 
   65100    290.79764   -491.76715    149221.32   -47614.481    3993.4054   -51607.887   0.14792911 
   65200    286.85814   -512.79993    149219.46   -47632.246    3939.3058   -51571.552   0.14766369 
   65300    289.08324   -472.35512    149239.86   -47566.654    3969.8621   -51536.516   0.14269769 
   65400    288.97664   -513.44046    149232.03   -47608.087    3968.3983   -51576.485    0.1465872 
   65500    290.12077   -525.21395    149246.65   -47540.841    3984.1102   -51524.951   0.14781668 
   65600    283.17749   -494.22748       149263   -47564.045    3888.7609   -51452.806   0.14696699 
   65700    291.89915   -502.55581    149258.44   -47520.351    4008.5319   -51528.883    0.1493496 
   65800    291.45997   -492.12667    149248.23   -47589.888    4002.5008   -51592.389   0.14280567 
   65900    287.36661   -497.49289     149249.5   -47599.131    3946.2884    -51545.42   0.14487055 
   66000    286.10818   -474.87988    149244.68   -47607.671    3929.0069   -51536.677   0.14589154 
   66100    288.04088   -523.89049    149225.28   -47575.871    3955.5479   -51531.419   0.14540642 
   66200    284.39628   -505.15341    149196.13   -47706.012     3905.498    -51611.51   0.14933799 
   66300    285.06536   -496.54398    149210.32   -47640.232    3914.6863   -51554.919   0.14296639 
   66400    283.63028   -532.30233    149209.32   -47648.587    3894.9789   -51543.566   0.14960181 
   66500    286.34988    -506.6224    149234.32    -47683.37    3932.3261   -51615.696   0.14499698 
   66600    286.44349   -529.40348    149222.71   -47685.634    3933.6115   -51619.245   0.14789801 
   66700    287.94033   -488.92543    149219.79   -47668.292    3954.1671   -51622.459   0.13919279 
   66800    281.86457   -501.59014    149224.71   -47692.612    3870.7311   -51563.343   0.14436326 
   66900    290.97991   -495.23188    149224.19   -47705.068    3995.9083   -51700.977    0.1388741 
   67000    286.22646   -462.63534    149200.22   -47808.556    3930.6312   -51739.187   0.13777955 
   67100    285.31393   -536.47589     149213.9    -47642.75    3918.0998    -51560.85   0.14845753 
   67200    281.78362   -545.58337    149195.03   -47747.297    3869.6195   -51616.917   0.14692622 
   67300    290.33237   -472.92483    149238.12   -47668.789    3987.0159   -51655.805   0.14315721 
   67400    291.67668   -468.50466    149250.76   -47647.526    4005.4768   -51653.003    0.1413623 
   67500    286.60596   -476.75881    149265.23   -47634.752    3935.8427   -51570.595   0.13909367 
   67600    294.13343   -445.39835    149301.25   -47494.053    4039.2143   -51533.267   0.14348784 
   67700    290.62192   -480.05682     149288.3    -47568.03    3990.9922   -51559.022   0.14407558 
   67800    286.56918    -512.0454    149255.62   -47613.088    3935.3376   -51548.426    0.1442209 
   67900    284.67548   -538.55204    149231.63   -47640.769    3909.3323   -51550.101   0.14836321 
   68000     288.7651    -515.1452    149238.88     -47671.6    3965.4933   -51637.093    0.1412807 
   68100    288.91868   -504.10431    149230.44   -47682.277    3967.6024   -51649.879   0.14443743 
   68200    288.20103   -474.41827    149230.88   -47641.522    3957.7471   -51599.269   0.14383725 
   68300    288.63227   -481.07298    149262.89   -47591.363    3963.6692   -51555.032   0.14242099 
   68400    293.60583   -468.57419    149280.79   -47555.139    4031.9691   -51587.108   0.14304618 
   68500    289.04499   -502.76681     149284.5   -47559.671    3969.3368   -51529.007   0.14517013 
   68600    283.23146   -499.16787    149254.48   -47646.886    3889.5021   -51536.388   0.14282739 
   68700    288.71876   -489.12732    149237.55   -47622.502    3964.8569   -51587.359   0.14789574 
   68800    286.84802   -506.07204    149284.72   -47626.955    3939.1668   -51566.122   0.14391133 
   68900    290.16002   -488.04815    149253.79    -47622.14    3984.6491    -51606.79   0.14365915 
   69000    292.65438   -485.68695    149256.44   -47625.441    4018.9031   -51644.344    0.1435822 
   69100    289.26602   -491.05491    149231.73   -47685.295    3972.3723   -51657.667   0.14108997 
   69200    285.60306   -516.49755    149209.56   -47694.062    3922.0703   -51616.132   0.14698384 
   69300    282.50619    -489.6302    149202.64   -47726.258    3879.5422     -51605.8   0.14570205 
   69400    281.60145   -455.99185    149185.72   -47773.534    3867.1178   -51640.652   0.13686533 
   69500    289.65284   -468.39416    149189.21   -47637.087    3977.6842   -51614.771   0.14685206 
   69600    290.37866   -485.08343    149251.86   -47535.436    3987.6516   -51523.087   0.14463821 
   69700    288.34504   -523.37934    149235.54    -47628.17    3959.7247   -51587.895   0.14178584 
   69800    289.49053   -491.49517    149209.18   -47625.716    3975.4553   -51601.171   0.14888281 
   69900    285.73215   -535.76498    149208.64   -47723.209     3923.843   -51647.052   0.14515685 
   70000     281.4709    -540.4201    149221.32   -47650.018     3865.325   -51515.343   0.14927529 
   70100    281.48238    -516.8715    149190.39   -47772.218    3865.4827   -51637.701   0.14426352 
   70200    288.30874   -466.93848    149218.83   -47605.185    3959.2263   -51564.411   0.14365188 
   70300    292.96874   -476.00237       149219   -47620.658    4023.2202   -51643.878   0.14266088 
   70400    290.77456   -477.90881     149237.7   -47507.585    3993.0883   -51500.673   0.14862512 
   70500    288.88778   -514.02221    149209.71   -47582.242     3967.178    -51549.42   0.14696328 
   70600    291.16089   -512.66135    149210.33   -47638.231    3998.3936   -51636.625   0.15025863 
   70700    290.42421   -486.71993    149207.36   -47606.776    3988.2772   -51595.054   0.14549771 
   70800    290.41509   -495.99716    149213.66   -47646.102    3988.1519   -51634.254   0.14466329 
   70900    290.94971   -477.19116    149179.13   -47633.669    3995.4936   -51629.163   0.14491591 
   71000    291.31905   -517.87248    149201.71    -47658.53    4000.5656   -51659.096   0.14452323 
   71100    288.47004   -480.02922    149194.92   -47647.401    3961.4414   -51608.842   0.14155409 
   71200    286.21477   -514.43641    149184.49   -47686.113    3930.4707   -51616.584   0.14728513 
   71300    280.50022   -502.54089    149165.83   -47732.575     3851.995    -51584.57   0.14566411 
   71400     285.4215   -483.33225    149179.03   -47668.016     3919.577   -51587.593   0.14611088 
   71500    284.40182   -474.29877    149164.42   -47615.847    3905.5741   -51521.421    0.1487177 
   71600    288.01954   -479.49128    149184.69   -47636.524    3955.2548   -51591.778   0.14512646 
   71700    283.82956   -487.47961     149162.3   -47628.678    3897.7156   -51526.393   0.14698391 
   71800    281.26879   -498.79888    149134.33    -47798.32    3862.5495    -51660.87   0.14490909 
   71900    287.20178   -479.99399    149122.86   -47740.461    3944.0248   -51684.486    0.1436996 
   72000    288.96609   -503.46045    149142.73   -47712.193    3968.2534   -51680.447   0.14641054 
   72100    286.09457   -512.68146    149176.73   -47574.181      3928.82   -51503.001   0.15482224 
   72200    295.68109     -474.889    149208.38   -47465.678    4060.4678   -51526.146   0.14621432 
   72300    291.85117   -520.03964    149204.33   -47441.234    4007.8731   -51449.108   0.15911311 
   72400    288.11367   -496.46868    149206.74   -47563.151    3956.5475   -51519.699   0.14833815 
   72500    285.46885   -521.62473     149205.5   -47560.174    3920.2272   -51480.402   0.15326578 
   72600    290.12398   -482.91893    149207.46   -47501.868    3984.1542   -51486.022   0.15357705 
   72700    287.65215   -527.94091    149188.99   -47667.221    3950.2096   -51617.431   0.14368921 
   72800    287.99389   -489.46454    149190.01    -47587.98    3954.9026   -51542.882   0.14931533 
   72900    283.39479   -558.16737    149188.45    -47594.32     3891.745   -51486.065    0.1528431 
   73000    291.94368   -474.48959    149153.11   -47602.695    4009.1435   -51611.838   0.14547446 
   73100    290.84234   -491.85001    149172.82   -47562.495    3994.0192   -51556.515   0.15066236 
   73200    291.32584   -528.45499    149198.89   -47551.099    4000.6588   -51551.758   0.14663953 
   73300    294.21753    -484.6069    149206.48   -47526.278    4040.3693   -51566.648   0.15014909 
   73400    291.54767   -510.28294    149189.16   -47509.533    4003.7052   -51513.239   0.15314006 
   73500    293.66571   -538.50747    149196.03   -47515.012    4032.7913   -51547.803   0.15333024 
   73600    287.38599   -518.74515    149174.51   -47555.275    3946.5545    -51501.83   0.15143741 
   73700    290.27149   -521.65355    149177.04   -47614.904      3986.18   -51601.084   0.14719752 
   73800    284.39815   -529.30933    149159.24   -47708.458    3905.5237   -51613.981   0.14552142 
   73900      283.609   -502.54616    149164.28   -47689.408    3894.6866   -51584.095   0.14614569 
   74000    289.85723   -495.12851    149158.34    -47606.36    3980.4911   -51586.851   0.14805291 
   74100    295.23111   -452.65953    149214.42   -47447.242    4054.2884   -51501.531    0.1492206 
   74200     291.2066    -511.0035    149183.48   -47613.602    3999.0213   -51612.623   0.14796113 
   74300    291.83695   -488.07233    149132.85    -47607.02    4007.6778   -51614.697   0.15030723 
   74400    284.25768   -496.83237    149154.48   -47644.668    3903.5947   -51548.263     0.147152 
   74500    282.74768   -501.49031    149126.01   -47656.771    3882.8585   -51539.629   0.15320269 
   74600    284.88772   -525.09856    149161.91   -47663.952    3912.2467   -51576.199   0.15004865 
   74700    292.74118   -508.50379    149168.17   -47579.359    4020.0952   -51599.454   0.14729993 
   74800    288.46042   -499.49616    149148.92   -47629.756    3961.3092   -51591.065   0.15368434 
   74900    290.75535   -506.28946    149160.73   -47633.172    3992.8245   -51625.996   0.14560605 
   75000    287.97154    -492.6047    149143.03   -47611.104    3954.5957     -51565.7   0.15374907 
   75100    294.89317   -468.88885    149177.76   -47550.039    4049.6475   -51599.686    0.1489653 
   75200     290.5243   -514.96001    149177.16   -47594.113    3989.6516   -51583.765   0.14631833 
   75300    286.48425   -500.33828    149176.21   -47643.422    3934.1712   -51577.594   0.15010136 
   75400    288.98159   -487.17501    149192.61   -47658.656    3968.4662   -51627.122   0.14704625 
   75500    289.89178   -459.99471     149177.2   -47650.074    3980.9655   -51631.039   0.14629749 
   75600    286.24585      -487.37    149184.52    -47576.35    3930.8974   -51507.248   0.15156398 
   75700    292.40195   -476.29889    149221.53   -47539.819    4015.4366   -51555.255   0.14793845 
   75800    290.14562   -515.18717    149239.89   -47565.579    3984.4514   -51550.031   0.14930144 
   75900    287.47344   -496.40156    149199.02   -47580.919    3947.7554   -51528.675   0.14826119 
   76000    290.53577   -526.49756    149191.19   -47589.198    3989.8092   -51579.007    0.1490376 
   76100    285.62289   -547.61686    149179.65   -47678.016    3922.3425   -51600.358   0.15248009 
   76200    282.29098   -505.67759    149159.36   -47719.495    3876.5868   -51596.082   0.14613941 
   76300    284.87793   -479.02101     149169.7   -47657.358    3912.1123    -51569.47   0.14866594 
   76400    289.88003   -502.06188    149186.48   -47654.486    3980.8041    -51635.29   0.14846512 
   76500        286.8   -510.85855    149180.64   -47643.236    3938.5073   -51581.743   0.14871391 
   76600    281.88022   -511.18963    149189.31   -47683.051    3870.9461   -51553.997   0.14810709 
[...]
   81900    284.06891    -534.9007    149126.37   -47675.885    3901.0024   -51576.887   0.15171107 
   82000     294.3923   -479.48906    149163.27   -47594.425    4042.7693   -51637.194   0.14336196 
   82100    290.17308   -491.40746    149154.73   -47537.753    3984.8285   -51522.581   0.15460063 
   82200    285.63053   -482.03684    149166.22   -47553.484    3922.4476   -51475.931   0.15396297 
   82300    291.20352    -506.1828    149154.63   -47627.709    3998.9791   -51626.688    0.1463758 
   82400    292.51405   -516.26338    149174.62   -47508.371    4016.9761   -51525.347   0.15194932 
   82500    292.87631   -484.67596    149197.51   -47409.163    4021.9509   -51431.114   0.15438319 
   82600    291.43129   -518.51067    149192.23   -47510.602     4002.107   -51512.709   0.15392139 
   82700    287.65808   -471.17299    149152.67   -47590.317    3950.2911   -51540.608   0.15003907 
   82800    289.84327   -470.27665    149167.35   -47601.742    3980.2993   -51582.042   0.14695578 
   82900    292.12701   -455.23943    149183.05   -47560.329    4011.6609    -51571.99   0.15217139 
   83000    295.76836   -468.92695    149182.03    -47490.68    4061.6663   -51552.346   0.14904793 
   83100    289.37945   -508.92825    149189.02   -47538.579    3973.9299   -51512.509    0.1549526 
   83200    288.25525    -470.9687     149181.2     -47570.9    3958.4918   -51529.391   0.15248617 
   83300    291.03072   -510.67462       149185   -47560.432    3996.6061   -51557.038   0.14846638 
   83400     285.3348   -513.87709    149164.86   -47639.165    3918.3864   -51557.551   0.14960507 
   83500    286.36898   -502.09055    149159.35   -47745.535    3932.5883   -51678.123   0.14425287 
   83600    287.70912   -504.52299    149152.44    -47685.68    3950.9919   -51636.672   0.14857199 
   83700    287.66578   -520.68042    149154.56   -47716.148    3950.3967   -51666.545   0.14324533 
   83800      287.232   -449.80069    149180.82   -47677.119    3944.4399   -51621.559   0.14284699 
   83900    290.03933   -479.13433    149181.58   -47679.005    3982.9917   -51661.996   0.14273873 
   84000    284.00168   -522.59972    149170.43   -47695.253    3900.0792   -51595.332   0.14859242 
   84100    288.22465   -516.66397     149186.8   -47622.322    3958.0716   -51580.393   0.14831168 
   84200    292.97324   -480.76112    149198.46   -47578.774     4023.282   -51602.056   0.14642724 
   84300    290.20708    -514.9004    149178.88   -47629.166    3985.2955   -51614.462   0.14774084 
   84400    295.93511   -473.50251    149197.93   -47631.532    4063.9561   -51695.488   0.14013436 
   84500    290.00397   -481.26868    149206.53   -47686.165    3982.5061   -51668.671   0.14119866 
   84600    289.88532   -533.53086    149212.68   -47602.021    3980.8768   -51582.898   0.14907644 
   84700    287.18729    -515.4061    149203.83   -47611.883    3943.8258   -51555.709   0.14689571 
   84800    285.59174   -514.76849     149208.9   -47609.142    3921.9149   -51531.057   0.15110483 
   84900    293.12322   -518.66576    149217.35   -47528.454    4025.3416   -51553.795   0.14830396 
   85000    292.49048   -500.29054    149189.76    -47595.97    4016.6524   -51612.623   0.14872157 
   85100    288.48082   -519.59113    149201.48   -47619.413    3961.5893   -51581.002   0.14699185 
   85200    282.91007   -504.80247    149192.75   -47660.941    3885.0885   -51546.029   0.14738251 
   85300    286.42297   -503.66408    149200.01   -47669.108    3933.3298   -51602.437   0.14790811 
   85400    284.94265   -483.25269    149177.72   -47695.431    3913.0011   -51608.433    0.1451276 
   85500    289.67946    -503.7519    149199.89   -47645.054    3978.0498   -51623.104   0.14666036 
   85600     288.7634   -479.80696    149206.99   -47677.762    3965.4699   -51643.232   0.13861506 
   85700    288.75019   -462.98796     149204.3   -47613.775    3965.2885   -51579.064   0.14778706 
   85800    292.38111   -502.94374    149236.79   -47613.474    4015.1505   -51628.625   0.14213022 
   85900    287.78332   -503.95147     149248.5   -47581.529    3952.0109    -51533.54    0.1432396 
   86000    289.92196   -526.22858    149233.44   -47634.336      3981.38   -51615.716   0.14429298 
   86100    288.61645   -496.23875    149219.48   -47603.044     3963.452   -51566.496   0.14430389 
   86200    293.33495   -467.92695    149228.07   -47566.883    4028.2492   -51595.132   0.14176666 
   86300    289.83679   -476.92806    149222.28   -47612.852    3980.2104   -51593.062   0.14793109 
   86400    290.71745    -502.4562     149212.1       -47677    3992.3041   -51669.304   0.14045653 
   86500    289.16009   -481.85903    149209.47    -47708.98    3970.9175   -51679.897   0.14383173 
   86600    290.92756   -474.86339    149212.99   -47542.721    3995.1894    -51537.91   0.14243661 
   86700    288.41028   -538.11556    149212.61    -47544.22    3960.6207   -51504.841   0.15195435 
   86800    281.93888    -537.0673    149223.42   -47672.153    3871.7516   -51543.904   0.14959934 
   86900    290.29596   -505.97753    149210.92   -47653.057     3986.516   -51639.573   0.14054407 
   87000     286.7347   -510.57452    149213.84   -47622.867    3937.6106   -51560.478   0.14474272 
   87100    288.88502    -523.4577    149195.58   -47598.373      3967.14   -51565.513   0.14806389 
   87200    288.99835   -480.79094    149208.44   -47532.288    3968.6963   -51500.985   0.14952193 
   87300     287.2701   -514.22547    149222.06   -47546.458     3944.963   -51491.421    0.1508991 
   87400      288.685   -507.28957    149195.01   -47597.899    3964.3933   -51562.292   0.14742434 
   87500    291.73344   -497.06224    149197.68   -47573.093    4006.2563   -51579.349   0.14736404 
   87600     294.8977   -479.40264    149190.75   -47593.304    4049.7097   -51643.014   0.14243536 
   87700    290.67839    -460.2774    149204.41   -47561.598    3991.7677   -51553.366   0.14357278 
   87800    289.96746   -550.20891    149196.55   -47653.722    3982.0048   -51635.727   0.14650404 
   87900     284.7383   -519.62315     149194.3   -47676.034    3910.1949   -51586.229   0.14294098 
   88000    284.03953   -504.41931    149204.75   -47639.088    3900.5989   -51539.686   0.14634014 
   88100    288.48032   -517.71845    149232.33   -47611.205    3961.5826   -51572.787   0.14101942 
   88200    283.12886   -487.30521    149230.13   -47715.302    3888.0931   -51603.395   0.14579501 
   88300    290.64185   -459.15694     149214.3   -47655.367    3991.2659   -51646.633   0.14169502 
   88400    294.34851    -477.4419    149226.41   -47584.007     4042.168   -51626.175   0.14170896 
   88500    287.40197   -499.53939    149226.11   -47659.525    3946.7739   -51606.299   0.14485879 
   88600    290.41265   -526.44585    149228.76   -47652.718    3988.1184   -51640.837   0.14294376 
   88700    287.88964   -500.76338    149211.53   -47615.847    3953.4709   -51569.318   0.14510693 
   88800    287.85875   -524.37917    149212.55   -47683.415    3953.0467   -51636.462   0.14482481 
   88900     286.7554   -482.50516    149210.65   -47622.847    3937.8949   -51560.742   0.14139796 
   89000    296.05746   -478.31922    149196.17   -47585.119    4065.6363   -51650.755   0.14393331 
   89100    289.02248   -488.98865    149192.45   -47638.367    3969.0277   -51607.395   0.14322214 
   89200    289.02551   -490.64879    149217.03   -47590.968    3969.0694   -51560.037   0.14619019 
   89300    286.46815   -513.85081    149209.43   -47712.485    3933.9502   -51646.436   0.14386542 
   89400    281.53746   -512.09318    149212.71   -47616.247    3866.2391   -51482.486   0.14709348 
   89500    287.70886   -517.82962    149205.72   -47713.609    3950.9883   -51664.597   0.14333338 
   89600    287.22524   -468.86675    149168.65   -47733.138     3944.347   -51677.485   0.13976641 
   89700    288.01857    -488.1303    149199.75   -47647.532    3955.2415   -51602.773   0.14337279 
   89800     289.9831   -479.34694    149212.28   -47585.688    3982.2196   -51567.907   0.14279975 
   89900    289.52467   -505.81853    149231.71   -47569.309    3975.9242   -51545.233   0.14319582 
   90000    289.06648   -504.30144    149224.76   -47587.639     3969.632   -51557.271   0.14454107 
   90100    292.40359   -506.84471    149253.87   -47576.012    4015.4591   -51591.471    0.1433928 
   90200    287.57315   -550.50629    149224.26   -47649.424    3949.1248   -51598.549   0.14502478 
   90300    289.32131   -470.68647    149210.39   -47619.421    3973.1315   -51592.553   0.14450084 
   90400    287.19066   -494.97362    149242.81   -47616.071    3943.8721   -51559.943   0.14242948 
   90500    287.86475   -512.41387    149241.83   -47625.886    3953.1291   -51579.015   0.14421692 
   90600     287.1253   -488.44349    149252.23   -47651.536    3942.9746   -51594.511   0.13848307 
   90700    288.77688   -508.18319    149254.12   -47681.078     3965.655   -51646.733   0.14202555 
   90800    288.80096   -498.76227    149225.78   -47695.657    3965.9858   -51661.643   0.14019221 
   90900    283.60583   -518.11731    149246.25   -47673.226    3894.6432   -51567.869   0.14399225 
   91000    287.82492   -486.97052    149231.64   -47686.525    3952.5821   -51639.108   0.13652142 
   91100    282.15331   -497.74113    149200.84   -47792.066    3874.6963   -51666.762   0.14082025 
   91200    284.59814   -497.99031    149224.67   -47736.545    3908.2702   -51644.815   0.13710845 
   91300    290.30766   -478.92491    149232.01   -47671.884    3986.6766    -51658.56   0.14104817 
   91400    285.97929   -487.65434     149228.5    -47643.24    3927.2369   -51570.477   0.14278634 
   91500     295.3812   -482.54344    149265.05   -47482.914    4056.3495   -51539.263   0.14590473 
   91600     289.8627   -492.28969    149259.95   -47550.694    3980.5661   -51531.261   0.14642029 
   91700    287.83187   -499.41786    149236.21   -47618.255    3952.6777   -51570.933   0.14396305 
   91800    290.64573   -568.90122    149225.63   -47593.089    3991.3192   -51584.408   0.15021169 
   91900    291.50973   -483.04521    149225.22   -47585.762    4003.1842   -51588.947   0.14432527 
   92000    286.63928   -508.52971    149197.32   -47628.524    3936.3003   -51564.824   0.14523724 
   92100    288.82317   -498.16042    149216.57   -47616.911    3966.2908   -51583.202   0.14090007 
   92200    287.94765   -481.40698    149210.16   -47643.386    3954.2676   -51597.654   0.14525787 
   92300    296.16644   -509.73601    149231.54   -47521.756    4067.1328   -51588.889   0.14547533 
   92400    288.46357   -488.60953     149239.3   -47569.354    3961.3525   -51530.707   0.14654667 
   92500    289.42287   -457.84174    149212.52   -47555.484    3974.5261    -51530.01   0.14299254 
   92600    293.86805   -506.30889    149222.33   -47472.141      4035.57   -51507.711   0.15077787 
   92700    286.37841   -525.87151    149226.17   -47595.421    3932.7179   -51528.139   0.14491095 
   92800    290.10323    -513.1135    149214.63   -47608.966    3983.8693   -51592.835   0.14880298 
   92900    286.20228    -532.2056     149220.7   -47648.869    3930.2991   -51579.168   0.14667099 
   93000    288.57544   -520.77641    149213.96   -47656.103    3962.8887   -51618.992   0.14280509 
   93100    288.91951   -467.18179    149208.78   -47564.967    3967.6137   -51532.581   0.14666732 
   93200    283.34959   -496.99821    149247.21   -47626.016    3891.1242   -51517.141   0.14282819 
   93300    288.83903   -460.67816    149221.62     -47673.7    3966.5085   -51640.209   0.13958378 
   93400    281.04045   -487.49761    149214.22   -47734.618    3859.4138   -51594.032   0.14122379 
   93500    282.10831   -505.49856    149225.13    -47739.09    3874.0782   -51613.168   0.14008592 
   93600    283.88341   -537.51305    149209.48   -47688.087     3898.455   -51586.542   0.14638083 
   93700     288.4053    -500.9349     149231.8   -47662.674    3960.5522   -51623.226    0.1423565 
   93800    291.49775   -451.65344    149223.98   -47662.851    4003.0197   -51665.871   0.14078527 
   93900    287.27838   -498.13019     149209.6   -47736.409    3945.0768   -51681.486   0.14177068 
   94000    284.27824    -479.6989    149216.94   -47707.569     3903.877   -51611.446   0.14131297 
   94100    286.89707   -500.44779    149264.32   -47590.153    3939.8403   -51529.994   0.14146124 
   94200    289.55942   -514.57389    149274.43   -47585.634    3976.4014   -51562.036   0.14503742 
   94300    288.42597   -519.02744       149266   -47600.398    3960.8361   -51561.234   0.14139801 
   94400    286.85475   -544.65335    149250.35   -47590.635    3939.2591   -51529.894   0.14567632 
   94500    292.64768   -500.79962    149252.02   -47598.509    4018.8112    -51617.32   0.14239056 
   94600    289.28287   -472.08615    149228.63   -47601.137    3972.6036   -51573.741   0.14079621 
   94700    284.42858   -509.67162    149217.41   -47640.785    3905.9416   -51546.726   0.14495109 
   94800    291.68912     -520.736    149236.15   -47685.949    4005.6476   -51691.597   0.14081952 
   94900    285.43864   -495.49519    149220.64   -47706.593    3919.8124   -51626.406   0.14042534 
   95000    283.17984   -482.64045     149244.7   -47671.203    3888.7931   -51559.996   0.14175552 
   95100    283.19054   -488.17132    149245.29   -47628.256    3888.9401   -51517.196   0.14625854 
   95200    288.96102   -492.71538    149259.34   -47662.496    3968.1837    -51630.68    0.1373559 
   95300    290.07798   -457.31688     149240.4   -47612.804    3983.5225   -51596.326   0.14263272 
   95400    291.38885   -496.24699    149254.05   -47580.171    4001.5241   -51581.695   0.14159983 
   95500    288.97972   -543.19463    149256.01   -47602.591    3968.4406   -51571.031   0.14636992 
   95600    289.11296   -510.83644    149237.71   -47583.903    3970.2703   -51554.174   0.14576455 
   95700    287.08273   -527.90238    149242.11   -47623.937      3942.39   -51566.327   0.14096389 
   95800    290.89139   -497.49937    149251.93   -47561.993    3994.6927   -51556.686      0.14288 
   95900     290.2171   -484.74083    149250.96   -47586.636     3985.433   -51572.069   0.14244488 
   96000    294.26275   -463.61393    149260.85   -47551.058    4040.9903   -51592.048   0.14064895 
   96100    294.64601   -515.61068    149273.95   -47496.453    4046.2533   -51542.707   0.14293607 
   96200    292.09686    -529.9266    149261.18   -47520.429     4011.247   -51531.676   0.15056559 
   96300    286.95733   -511.68255    149272.82   -47536.167    3940.6679   -51476.835   0.14437234 
   96400    288.97049   -497.75328    149241.02   -47591.437    3968.3138   -51559.751    0.1454627 
   96500    290.43079   -503.30304    149242.13   -47591.886    3988.3675   -51580.253   0.14275675 
   96600    287.58267   -490.69121    149236.12   -47642.456    3949.2554   -51591.711   0.13910118 
   96700    296.87995   -482.65174     149228.3   -47611.993    4076.9312   -51688.924   0.13865978 
   96800    292.05906   -493.19018    149220.02   -47630.272    4010.7279       -51641   0.14150363 
   96900    290.41188   -486.09925    149201.82   -47637.505    3988.1078   -51625.613   0.14368391 
   97000     282.5571   -539.87458    149206.25   -47712.991    3880.2414   -51593.232   0.14425526 
   97100    287.90987   -497.86011    149199.59   -47681.496    3953.7487   -51635.244   0.14281538 
   97200    285.54696   -497.79215    149207.97   -47621.902    3921.2999   -51543.202   0.14571663 
   97300    291.00966   -512.87204    149230.16   -47506.262    3996.3168   -51502.579   0.14775109 
   97400    288.60736   -508.38456    149225.35   -47605.755     3963.327   -51569.082   0.14277033 
   97500    290.48087   -509.02023    149239.68    -47573.37    3989.0552   -51562.425   0.14524394 
   97600     295.1986   -498.99015    149236.64   -47513.954    4053.8419   -51567.796   0.14718159 
   97700    296.20688   -480.67238    149247.27   -47477.867    4067.6882   -51545.556   0.14486171 
   97800    287.21593   -516.22633    149226.06   -47582.015    3944.2191   -51526.234   0.14663449 
   97900    288.35055   -553.71434    149230.42   -47547.992    3959.8004   -51507.792   0.15017151 
   98000    287.99916   -524.48751     149217.5   -47639.568    3954.9749   -51594.543   0.14370122 
   98100    287.96809   -537.79715    149213.87    -47614.85    3954.5483   -51569.399     0.147324 
   98200    291.23743    -487.8143    149204.79   -47608.703    3999.4448   -51608.148   0.14479901 
   98300    292.88279    -494.2716    149230.53   -47549.327    4022.0398   -51571.367   0.14690554 
   98400    288.19463   -515.48325     149223.2   -47591.409    3957.6593   -51549.069   0.15091441 
   98500    289.32393   -492.98579    149234.41   -47567.244    3973.1674   -51540.411     0.142796 
   98600    289.13372   -501.16515    149220.88   -47578.359    3970.5554   -51548.914   0.14812088 
   98700    294.30523   -476.03576    149228.63   -47550.321    4041.5736   -51591.895   0.14413043 
   98800    293.03223   -529.18359    149207.57   -47556.184    4024.0921   -51580.276   0.14544124 
   98900    289.24136   -487.69771    149202.88   -47615.175    3972.0335   -51587.208   0.14759507 
   99000    285.30228   -503.48826    149164.66    -47606.72    3917.9397    -51524.66   0.14768725 
   99100    284.95896   -499.37438    149165.57   -47672.102    3913.2251   -51585.328   0.14485502 
   99200    284.69106   -486.18894    149186.88   -47679.073    3909.5461   -51588.619   0.13842803 
   99300    288.67764   -499.14654    149183.61   -47597.613    3964.2922   -51561.905   0.14613129 
   99400    289.47856   -464.48247    149191.11   -47639.375    3975.2909   -51614.666   0.14313999 
   99500     289.8473   -485.29043     149214.9   -47594.512    3980.3546   -51574.867   0.14496341 
   99600    287.11066   -495.92437    149202.21   -47580.665    3942.7735   -51523.438   0.14764768 
   99700      285.689   -530.16169    149224.65   -47637.866    3923.2505   -51561.117    0.1444173 
   99800    288.75596   -485.81053    149214.46   -47649.131    3965.3678   -51614.499   0.13982398 
   99900    277.74662   -531.63379    149206.09    -47709.22     3814.181   -51523.401    0.1458084 
  100000    289.95837   -533.77108    149192.89   -47620.195    3981.8799   -51602.075   0.14656852 
Loop time of 52.0325 on 6 procs for 100000 steps with 4608 atoms

Performance: 830.251 ns/day, 0.029 hours/ns, 1921.876 timesteps/s
97.9% CPU use with 6 MPI tasks x no OpenMP threads

MPI task timing breakdown:
Section |  min time  |  avg time  |  max time  |%varavg| %total
---------------------------------------------------------------
Pair    | 38.242     | 38.538     | 38.816     |   3.5 | 74.07
Neigh   | 6.1984     | 6.2774     | 6.4171     |   3.8 | 12.06
Comm    | 4.1725     | 4.5422     | 4.8636     |  10.4 |  8.73
Output  | 0.16734    | 0.16802    | 0.17074    |   0.3 |  0.32
Modify  | 1.8072     | 1.8697     | 1.9112     |   2.5 |  3.59
Other   |            | 0.6369     |            |       |  1.22

Nlocal:        768.000 ave         776 max         761 min
Histogram: 2 0 0 0 1 0 1 1 0 1
Nghost:        1392.83 ave        1402 max        1382 min
Histogram: 1 0 0 1 1 0 0 2 0 1
Neighs:        0.00000 ave           0 max           0 min
Histogram: 6 0 0 0 0 0 0 0 0 0
FullNghs:      21876.3 ave       22128 max       21615 min
Histogram: 1 1 0 0 0 1 1 1 0 1

Total # of neighbors = 131258
Ave neighs/atom = 28.484809
Neighbor list builds = 6220
Dangerous builds = 0

undump              1
unfix               2
unfix               3
unfix               4




################################################
#######         Run Simulation         #########
################################################

reset_timestep      0
log                 log.run_${NAME}
log                 log.run_ice_289K_-500atm_ML
