

read_data data.ice_${TEMP}K_${PRES}atm_ML group ice
read_data data.ice_289K_${PRES}atm_ML group ice
read_data data.ice_289K_-500atm_ML group ice
Reading data file ...
  orthogonal box = (-0.035663078 -0.031700514 -0.031700514) to (57.306173 50.938821 50.938821)
  3 by 1 by 2 MPI processor grid
  reading atoms ...
  4608 atoms
  reading velocities ...
  4608 velocities
  read_data CPU = 0.031 seconds
read_data data.liq_${TEMP}K_${PRES}atm_ML add append shift ${X_HI} ${YZ_LO} ${YZ_LO} group water
read_data data.liq_289K_${PRES}atm_ML add append shift ${X_HI} ${YZ_LO} ${YZ_LO} group water
read_data data.liq_289K_-500atm_ML add append shift ${X_HI} ${YZ_LO} ${YZ_LO} group water
read_data data.liq_289K_-500atm_ML add append shift 50.9388205137905 ${YZ_LO} ${YZ_LO} group water
read_data data.liq_289K_-500atm_ML add append shift 50.9388205137905 0.0317005137907103 ${YZ_LO} group water
read_data data.liq_289K_-500atm_ML add append shift 50.9388205137905 0.0317005137907103 0.0317005137907103 group water
Reading data file ...
  orthogonal box = (-0.035663078 -0.13991673 -0.13991673) to (104.30194 51.110438 51.110438)
  3 by 1 by 2 MPI processor grid
  reading atoms ...
  4608 atoms
  reading velocities ...
  4608 velocities
  read_data CPU = 0.019 seconds

write_data data.icewater_test
System init for write_data ...
WARNING: Communication cutoff is 0.0. No ghost atoms will be generated. Atoms may get lost. (../comm_brick.cpp:167)

# Define potential
#
pair_style sw
pair_coeff * * /data/emrosky-sim/Freezing_Simulations/Melting/MLmW_fancy/ML_mW.sw mW
Reading sw potential file /data/emrosky-sim/Freezing_Simulations/Melting/MLmW_fancy/ML_mW.sw with DATE: 2019-02-27

# Delete water and ice atoms that are overlapping
#
delete_atoms overlap 2.5 water ice
System init for delete_atoms ...
Neighbor list info ...
  update every 1 steps, delay 10 steps, check yes
  max neighbors/atom: 2000, page size: 100000
  master list distance cutoff = 6.0032907
  ghost atom cutoff = 6.0032907
  binsize = 3.0016454, bins = 35 18 18
  2 neighbor lists, perpetual/occasional/extra = 1 1 0
  (1) command delete_atoms, occasional, copy from (2)
      attributes: full, newton on
      pair build: copy
      stencil: none
      bin: none
  (2) pair sw, perpetual
      attributes: full, newton on
      pair build: full/bin/atomonly
      stencil: full/bin/3d
      bin: standard
Deleted 692 atoms, new total = 8524

# set timestep
#
timestep 10.0

# Define output
#
compute 1 all msd
thermo 50
thermo_style custom step temp press vol etotal ke pe c_1[4]

# Neighbor lists
#
neigh_modify delay 0 every 1 check yes

# Set fixes
#
fix 1 all momentum 10 linear 1 1 1 rescale
fix 2 all nph iso ${PRES} ${PRES} ${PCOUPL}
fix 2 all nph iso -500 ${PRES} ${PCOUPL}
fix 2 all nph iso -500 -500 ${PCOUPL}
fix 2 all nph iso -500 -500 10000.0
fix 3 all temp/csvr ${TEMP} ${TEMP} ${TCOUPL} 837492
fix 3 all temp/csvr 289 ${TEMP} ${TCOUPL} 837492
fix 3 all temp/csvr 289 289 ${TCOUPL} 837492
fix 3 all temp/csvr 289 289 5000.0 837492


# Fix ice atoms in place
#
velocity ice set 0.0 0.0 0.0
fix 4 ice setforce 0.0 0.0 0.0

# Run 1.0 ns equilibration of water
#
dump 1 all atom 1000 eq.all.${NAME}.dump
dump 1 all atom 1000 eq.all.coexist_289K_-500atm_ML.dump
run 100000
Neighbor list info ...
  update every 1 steps, delay 0 steps, check yes
  max neighbors/atom: 2000, page size: 100000
  master list distance cutoff = 6.0032907
  ghost atom cutoff = 6.0032907
  binsize = 3.0016454, bins = 35 18 18
  1 neighbor lists, perpetual/occasional/extra = 1 0 0
  (1) pair sw, perpetual
      attributes: full, newton on
      pair build: full/bin/atomonly
      stencil: full/bin/3d
      bin: standard
Per MPI rank memory allocation (min/avg/max) = 4.591 | 4.598 | 4.603 Mbytes
Step Temp Press Volume TotEng KinEng PotEng c_1[4] 
       0    133.73956   -1287.6265    274053.03   -84042.576     3397.713   -87440.289            0 
      50    158.15071   -849.35769     272685.2   -83693.421    4017.8889    -87711.31   0.85367347 
     100    167.41284    21.206419    270176.63   -83410.154    4253.1975   -87663.351    1.8137478 
     150    172.88874   -16.401122    269336.37   -83090.823    4392.3151   -87483.138    2.7916951 
     200    176.73305   -178.43303    270236.71   -82795.032    4489.9816   -87285.013    3.7424105 
     250    180.96558   -604.55922    271576.47   -82507.812    4597.5109   -87105.323     4.807311 
     300    185.34003   -741.60609    272396.77   -82206.999    4708.6458   -86915.645    6.0537761 
     350    188.56491   -606.09873    272079.87   -81899.604    4790.5753   -86690.179    7.5384812 
     400    194.67561   -303.18189    271436.74   -81714.176    4945.8204   -86659.997    8.9367871 
     450    203.55887   -234.24499    271393.65   -81495.823    5171.5034   -86667.327    10.398403 
     500    203.60551   -379.07585    271661.97   -81288.774    5172.6883   -86461.463     12.02084 
     550    206.46224   -309.59966    271918.39   -81101.483     5245.265   -86346.748    13.621619 
     600    207.28876    -725.9924    272418.03   -80888.863    5266.2629   -86155.126    15.518076 
     650    212.43684   -435.25278    272516.23   -80719.172    5397.0521   -86116.224     17.34887 
     700     214.6421   -332.74543    272522.27   -80490.511    5453.0779   -85943.589      19.1627 
     750    222.62868   -415.02443    272617.71   -80337.571    5655.9804   -85993.551    20.996564 
     800    220.86012   -769.07656    272913.78   -80159.778    5611.0494   -85770.827     22.97113 
     850    223.59131   -343.91661    273121.63   -80022.892    5680.4364   -85703.328    25.009118 
     900    232.29095   -842.43399    273662.13   -79881.934    5901.4547   -85783.389    27.244262 
     950    227.26449   -531.74797       273669   -79734.617    5773.7554   -85508.373    29.258117 
    1000    234.84343     -349.888    273492.74   -79556.877    5966.3015   -85523.178    31.302511 
    1050    233.49225   -465.00597    273425.13   -79439.109    5931.9742   -85371.084    33.434947 
    1100    235.26626   -663.12824    273518.93   -79275.426    5977.0438    -85252.47    35.946956 
    1150    240.79954   -535.32731    273596.67    -79111.63    6117.6192   -85229.249    38.264736 
    1200    248.06845    -502.7615    273825.82   -79035.444    6302.2891   -85337.733    40.404067 
    1250    238.57944   -519.45808    274207.75   -78919.437    6061.2166   -84980.654     42.97353 
    1300    244.39521   -215.87596    274620.07   -78850.948    6208.9689   -85059.917    45.278804 
    1350    248.50822   -448.56339    274977.01    -78686.53    6313.4618   -84999.992    47.689851 
    1400     251.4774   -528.66877    274791.18   -78584.981    6388.8949   -84973.876    50.197073 
    1450    249.11686   -499.85773    274533.68   -78458.692    6328.9245   -84787.616    52.494164 
    1500    256.11886   -405.94994    274271.06   -78433.311    6506.8134   -84940.124     54.83318 
    1550    255.38021   -419.06051    274409.12   -78310.951    6488.0478   -84798.999    57.010508 
    1600    254.31174   -743.17657     275132.8   -78225.402    6460.9026   -84686.305    59.711684 
    1650    259.00487   -721.90646    275510.78   -78160.754    6580.1337   -84740.887    62.381018 
    1700    261.91536   -683.74403    275362.58   -78091.811    6654.0761   -84745.887    65.097792 
    1750    257.75501    -495.1502    274975.79   -77985.414    6548.3804   -84533.795    67.729747 
    1800    261.02733   -258.06879    274714.44   -77950.897    6631.5153   -84582.412    70.368712 
    1850    261.09915   -307.72639    274949.09   -77840.442      6633.34   -84473.782    73.057502 
    1900    262.01254   -622.56992    275327.25   -77777.191     6656.545   -84433.736    75.867734 
    1950    265.49212    -528.3105    275452.21   -77707.615    6744.9452   -84452.561    78.753561 
    2000    269.57678   -449.90334    275556.55   -77609.321    6848.7178   -84458.039    81.985384 
    2050    270.19033   -401.02729    275873.93   -77573.126    6864.3053   -84437.431    85.166237 
    2100    272.06671     -941.249    276303.87   -77523.256    6911.9755   -84435.232    88.171663 
    2150    271.67495   -672.88448    276159.48   -77418.665    6902.0228   -84320.687    91.393586 
    2200    268.55002   -364.89308    275816.08   -77357.253    6822.6325   -84179.886    94.242176 
    2250    275.60074   -580.32744     275408.5   -77342.136    7001.7593   -84343.896    97.351841 
    2300    273.56828   -487.45173    275318.61   -77320.853    6950.1236   -84270.977    100.43038 
    2350     275.6929   -415.99389    275865.82   -77254.318    7004.1005   -84258.419    103.92234 
    2400    272.11944   -846.96614    276501.64   -77254.188    6913.3153   -84167.503    107.07706 
    2450    275.68378   -427.65519    276446.01    -77277.13    7003.8688   -84280.999    109.92222 
    2500    274.86583   -338.16579     276103.9   -77283.558    6983.0884   -84266.647    112.40068 
    2550    276.09843   -427.00419    275887.04   -77192.325    7014.4032   -84206.729    115.47097 
    2600    275.66257   -360.96137    275766.34   -77198.885    7003.3299   -84202.215    118.26465 
    2650    277.86891   -410.71198    275761.16   -77205.206    7059.3832   -84264.589    120.90869 
    2700    273.77235   -577.73176    275986.56   -77148.181    6955.3082   -84103.489    123.96434 
    2750    275.72487   -413.74982    276006.75   -77110.648    7004.9127   -84115.561    127.67667 
    2800    276.68087   -622.17308    276033.02   -77131.575    7029.2003   -84160.775    130.75426 
    2850    274.98675    -677.2193    276131.51    -77084.77    6986.1604   -84070.931    133.97553 
    2900    274.68466   -497.41538    276120.78   -77040.826    6978.4857   -84019.312    136.72869 
    2950    281.15742   -321.29464    275988.08   -77028.327    7142.9291   -84171.256    139.46652 
    3000    284.40799    -506.1526    276004.35   -77027.289    7225.5113     -84252.8    142.40021 
    3050    280.10179   -225.62644    276141.66   -76998.475    7116.1105   -84114.586    145.75589 
    3100    281.09885    -696.6135    276216.53   -76927.481    7141.4411   -84068.922    148.99837 
    3150    279.12452    -369.4467    275994.51    -76877.91    7091.2824   -83969.192    151.84161 
    3200    282.28075   -267.27422    276121.23   -76842.632    7171.4678     -84014.1     154.8828 
    3250    282.98218   -526.07028     276481.7   -76810.977     7189.288   -84000.265    158.40062 
    3300    282.39557   -492.41991    276607.43   -76824.998    7174.3848   -83999.383    162.19481 
    3350     283.1243   -519.93302    276663.02   -76845.917    7192.8985   -84038.816    165.39076 
    3400    279.24766   -398.66296     276770.3   -76853.446    7094.4109   -83947.857    168.43138 
    3450    280.99427   -206.30595    276488.76   -76910.791    7138.7843   -84049.575    171.44171 
    3500    281.09967   -635.66447    276183.62   -76906.199    7141.4621   -84047.661    174.30215 
    3550    283.83323   -494.61467    275969.73   -76893.209    7210.9092   -84104.119    177.32076 
    3600     277.9136   -540.18165    276372.35   -76866.373    7060.5184   -83926.891     180.2561 
    3650    281.90128   -464.40573    276750.62    -76833.46    7161.8272   -83995.287    182.84091 
    3700     286.9768   -683.37658    276619.93   -76783.978     7290.773   -84074.751    185.63482 
    3750    285.35991   -402.60409    276273.02   -76684.986    7249.6952   -83934.682    188.38414 
    3800    285.05629   -175.08861       276273   -76686.251    7241.9816   -83928.233    191.59626 
    3850    286.20583   -175.63513     276698.7   -76635.703    7271.1862   -83906.889     194.9533 
    3900    288.86431    -755.4745    277180.23   -76596.341    7338.7261   -83935.067    198.84439 
    3950    286.19918   -545.71515    277046.25   -76593.055    7271.0173   -83864.073     202.5774 
    4000    290.12167   -538.72658    276643.17   -76659.613    7370.6697   -84030.283     205.2194 
    4050    284.47284   -472.54013    276522.68   -76657.213    7227.1588   -83884.372    207.48209 
    4100    289.63029   -577.49522    276412.68   -76649.519    7358.1862   -84007.705    209.92253 
    4150    287.43275   -375.98733     276427.2   -76696.136    7302.3565   -83998.492    213.37839 
    4200     284.9161   -565.30387    276640.08   -76665.262      7238.42   -83903.682    216.15713 
    4250    287.48866   -469.94529     276397.4   -76644.517    7303.7771   -83948.294    219.93444 
    4300    286.88022    -285.6866    276470.99   -76628.295    7288.3194   -83916.615    222.93579 
    4350    285.00242   -600.40826    276786.46   -76621.739     7240.613   -83862.352     225.8216 
    4400    285.71945   -86.696556    276720.31   -76645.186    7258.8294   -83904.015    228.99738 
    4450    286.29487   -219.11132    276839.83   -76627.644    7273.4484   -83901.092    231.87499 
    4500    288.18805   -469.57531     277195.7   -76603.307    7321.5454   -83924.852    235.12489 
    4550    282.52568   -627.85811    276986.88   -76587.089    7177.6903   -83764.779    238.92675 
    4600    282.83387   -559.28521    276530.53   -76553.506    7185.5201   -83739.026    242.03888 
    4650    295.99154   -420.40844    276259.05   -76576.145    7519.7964   -84095.941    245.15189 
    4700    286.51024   -463.56727    276494.75   -76560.866      7278.92   -83839.786    249.55179 
    4750    282.29572   -467.42048    276827.19   -76581.326    7171.8481   -83753.175    253.12575 
    4800    294.50793   -497.78561    276876.08   -76553.914    7482.1046   -84036.019    256.48455 
    4850    292.72001   -714.48325    276726.04   -76510.308    7436.6818    -83946.99    259.23049 
    4900    292.03259   -348.29352    276618.64   -76522.373    7419.2176    -83941.59    262.48356 
    4950    285.88497   -399.98444    276718.08   -76523.329    7263.0345   -83786.364    265.45458 
    5000    290.41537   -412.06498    276735.41   -76520.179    7378.1315    -83898.31    268.28179 
    5050    290.41931    -450.4135    276715.54    -76533.63    7378.2314   -83911.861    271.01601 
    5100    289.48455   -357.67444    276756.56   -76516.978    7354.4837   -83871.461    273.99069 
    5150    284.66167    -349.3378    276733.77   -76535.617     7231.956   -83767.573    276.55301 
    5200    291.77601   -235.70792    276527.05   -76494.135     7412.699   -83906.834    279.66106 
    5250    288.95044   -671.86802    276622.63   -76469.795    7340.9141   -83810.709     282.3036 
    5300    292.11837   -471.82796    276808.99    -76421.48    7421.3969   -83842.876    286.03614 
    5350    293.88841    -768.8562    277220.98   -76416.075    7466.3655    -83882.44    288.83335 
    5400    292.18366    -803.8836    277292.35   -76421.355    7423.0555    -83844.41    292.36358 
    5450    292.05627   -433.04856    276846.01   -76411.872    7419.8191   -83831.691    295.21032 
    5500    290.46035   -273.64917    276571.68   -76421.148    7379.2741   -83800.422    298.17558 
    5550    290.87042   -643.78828    276764.11    -76458.16    7389.6922   -83847.852    301.06096 
    5600    290.44343   -595.33888    276975.34   -76426.099    7378.8443   -83804.943    305.31747 
    5650    291.64321   -358.44448    277020.71   -76417.076    7409.3252   -83826.401    309.20045 
    5700     291.1366   -762.39281    277064.86   -76369.421    7396.4546   -83765.875     312.0717 
    5750    291.02465   -571.15666    276916.12   -76400.612    7393.6105   -83794.223    314.98228 
    5800     287.6045   -522.24009    277124.02   -76412.908      7306.72   -83719.628     318.2293 
    5850    290.00317   -401.17685    277149.01   -76397.634    7367.6594   -83765.293    320.99212 
    5900    290.98651   -739.41543    277253.71   -76349.086    7392.6414   -83741.728    322.79933 
    5950    294.35076   -718.41136    277071.65    -76325.71    7478.1117   -83803.822    325.35731 
    6000     295.4802   -505.54404    276777.45   -76371.583    7506.8057   -83878.389    328.04992 
    6050    292.45093   -395.82898    276656.94   -76419.315    7429.8458    -83849.16     331.2465 
    6100    293.25762   -357.56608    276761.94   -76417.154      7450.34   -83867.494    335.25371 
    6150    291.65309   -597.54994     277111.6   -76385.521    7409.5761   -83795.097    339.49443 
    6200    295.51176   -671.47816    277230.05   -76378.779    7507.6075   -83886.387      343.159 
    6250    290.00108   -484.07567    277000.58   -76333.107    7367.6061   -83700.713    345.88595 
    6300    292.45622   -485.62074    276775.05   -76342.687    7429.9802   -83772.667     349.0983 
    6350    289.87121   -270.88782    276885.75   -76379.033    7364.3068    -83743.34    352.14189 
    6400    291.52418   -492.48813    277357.09   -76307.658    7406.3013   -83713.959    355.65425 
    6450    291.02111   -720.10428    277425.82   -76300.061    7393.5205   -83693.581    358.53297 
    6500    290.27316   -255.44322    277018.69   -76298.893    7374.5185   -83673.411    362.04859 
    6550    287.33163   -457.32057    277050.64   -76297.378    7299.7877   -83597.165    365.47722 
    6600    290.21237   -509.07155    277211.72   -76382.194    7372.9742   -83755.168    367.72657 
    6650    289.35659   -822.79688    277274.37   -76413.535    7351.2328   -83764.768    372.09118 
    6700    291.73288   -491.68085    276906.69    -76429.27    7411.6033   -83840.873     376.4638 
    6750    290.22016    -436.2979     276725.6   -76464.081    7373.1719   -83837.253    380.07431 
    6800    286.43313   -551.87128    276967.19    -76467.66    7276.9608    -83744.62    384.67398 
    6850    296.06951    -411.4352    277043.99   -76484.329    7521.7774   -84006.106    387.59719 
    6900    286.91323   -586.22064    277137.09   -76498.665    7289.1579   -83787.823    389.75506 
    6950    296.98397   -689.69224    277016.87   -76483.709    7545.0097   -84028.719    392.19079 
    7000    288.89608   -405.24753    276863.19   -76462.275    7339.5332   -83801.808    394.76693 
    7050     286.0939   -318.87668    276725.43   -76451.832    7268.3427   -83720.175    397.67869 
    7100    292.86638   -256.09983    276794.57   -76413.984    7440.4005   -83854.384    401.52499 
    7150    294.84333   -497.15269    276950.55   -76418.891    7490.6258   -83909.516    405.05814 
    7200    291.61428   -758.72697    277163.99   -76389.628    7408.5903   -83798.218     407.2189 
    7250    287.96081   -445.19876    277017.91   -76343.693    7315.7723   -83659.466    409.90235 
    7300    294.54145   -426.17476    276690.68   -76345.113    7482.9564   -83828.069     413.5635 
    7350    289.62814    -223.6187    276488.17   -76372.383    7358.1315   -83730.514    417.24856 
    7400    292.97095   -564.52593    276867.71   -76375.215    7443.0571   -83818.273    421.61985 
    7450    295.74153   -692.11018    277271.72   -76355.347    7513.4448   -83868.792       425.04 
    7500     294.0697   -579.02736    277185.28   -76385.919    7470.9713   -83856.891    429.00508 
    7550    285.55712   -152.79977    276872.04   -76428.928    7254.7054   -83683.633     431.7732 
    7600    290.49543   -479.80588    276944.77   -76433.754    7380.1653    -83813.92    435.04698 
    7650     287.9528   -657.94091    277094.59   -76402.548    7315.5687   -83718.117    437.65795 
    7700    289.62651   -540.71429     277035.3   -76402.288    7358.0902   -83760.378    439.71483 
    7750    290.99008   -318.22745    276776.63   -76424.631    7392.7323   -83817.364    441.88377 
    7800    291.44327   -568.07063    276377.95   -76474.009    7404.2456   -83878.254    444.14409 
    7850    287.71022   -300.18154    276145.15   -76461.021    7309.4058   -83770.426      448.021 
    7900    299.35024   -559.26378    276529.58   -76430.744    7605.1259    -84035.87    451.09938 
    7950    289.44223   -570.49842    277311.67   -76439.474    7353.4084   -83792.882    454.90977 
    8000    288.21185   -831.47764     277605.3   -76423.971    7322.1501   -83746.121    458.29471 
    8050    291.16012    -357.8332     277057.5   -76451.438    7397.0521   -83848.491    460.42315 
    8100    291.78361   -480.31495    276856.69   -76483.133    7412.8923   -83896.025    462.31173 
    8150    288.80833   -247.57729    276683.97   -76527.666    7337.3038    -83864.97    465.94265 
    8200    290.84991   -427.32418    276768.33   -76491.662    7389.1711   -83880.833    469.24902 
    8250    288.29689   -640.94156    276974.48   -76488.316    7324.3105   -83812.627    473.09144 
    8300    288.06539   -599.34021    277132.24   -76465.043    7318.4292   -83783.472    476.09586 
    8350    287.83402   -449.29442    276928.74   -76530.961     7312.551   -83843.512    478.91019 
    8400    288.29362   -548.25984    276696.37   -76537.026    7324.2275   -83861.253     481.8091 
    8450    285.94859   -174.08531    276565.99    -76533.44    7264.6509   -83798.091    485.20661 
    8500    291.81703   -582.78639    276862.29   -76482.108    7413.7411    -83895.85    489.19455 
    8550    287.00734    -632.7289    277030.87   -76433.527    7291.5489   -83725.076    492.64064 
    8600    290.87133   -500.14581    276739.18   -76444.986    7389.7152   -83834.702    495.19847 
    8650      293.646    -459.8158    276825.06   -76397.712     7460.207   -83857.919    497.34778 
    8700    289.02963    -595.9813    277051.44   -76364.946    7342.9262   -83707.873    500.51758 
    8750     290.0221   -479.70149    277116.74   -76349.625    7368.1401   -83717.765     503.3116 
    8800    288.65638   -310.43132    277161.97   -76324.301    7333.4434   -83657.744    506.78277 
    8850    294.49535   -495.18527    277068.21   -76303.093     7481.785   -83784.878    509.03289 
    8900     291.2436   -270.05287    277068.45   -76306.547     7399.173    -83705.72    512.67387 
    8950    296.34617   -707.17696    277283.57    -76287.97    7528.8059   -83816.776     515.9524 
    9000    288.56534   -602.74149    277249.01   -76301.542    7331.1306   -83632.673    518.34083 
    9050    292.44671   -430.91546    277083.05   -76282.198    7429.7385   -83711.937     521.8486 
    9100    294.04483   -522.29378     276850.4   -76295.947    7470.3396   -83766.287    523.73063 
    9150    294.75293   -437.53759    276462.12   -76324.927    7488.3291   -83813.257    525.22725 
    9200    295.11245    -321.4939    276527.56   -76284.164    7497.4628   -83781.627    526.45657 
    9250    291.62825   -453.89519    277061.02   -76257.454    7408.9452   -83666.399    529.35356 
    9300    290.42336   -707.85049    277416.08   -76320.671    7378.3343   -83699.006    532.39438 
    9350     289.3324    -655.6633    277349.38   -76323.843    7350.6181   -83674.461    535.29847 
    9400    294.85114   -517.14818    277117.54   -76375.439    7490.8243   -83866.263    537.36419 
    9450    290.47256    -505.9318    277104.87   -76379.494    7379.5844   -83759.079    539.23559 
    9500    293.84092   -380.00278    276896.13   -76374.526     7465.159   -83839.685    540.64042 
    9550    288.70575   -615.93241    276807.82   -76380.121    7334.6978   -83714.819    543.69675 
    9600    292.35593   -684.53066    276632.52   -76382.191    7427.4321   -83809.623    546.69921 
    9650    289.43531   -364.54643    276746.63   -76341.815    7353.2326   -83695.048    548.54124 
    9700    288.55359   -360.46734    277139.59    -76330.85     7330.832   -83661.682    551.89703 
    9750    291.44393   -513.22414    277670.21   -76411.276    7404.2624   -83815.539    556.50299 
    9800    290.47363   -669.48641    277589.35   -76387.361    7379.6115   -83766.972    559.75026 
    9850    292.32411   -838.98849    276936.12   -76394.606    7426.6238    -83821.23    560.35842 
    9900    295.26236   -93.069049    276161.03   -76356.446    7501.2714   -83857.717    561.73643 
    9950    292.27004   -452.08921    276457.52   -76363.253    7425.2501   -83788.503    563.43804 
   10000    288.96466   -700.95215    277344.12   -76381.515    7341.2754   -83722.791    567.89222 
   10050     292.9694   -961.30521    277909.23   -76374.525    7443.0177   -83817.542    571.62215 
   10100    289.45953   -777.15682    277309.22    -76364.59    7353.8478   -83718.438    573.39599 
   10150    289.79594   -359.45894    276352.23   -76368.629    7362.3944   -83731.023     573.5299 
   10200    292.19428   -429.27572    275981.81   -76405.466    7423.3255   -83828.791    574.82705 
   10250    294.22649   -65.179362    276368.04    -76362.79    7474.9545   -83837.745    577.07908 
   10300    291.75711   -589.90792     277286.9   -76319.904    7412.2189   -83732.123    579.86137 
   10350    290.46205   -844.89809    277648.82   -76341.725    7379.3172   -83721.042    583.71285 
   10400    287.98735   -639.23846    277091.85   -76359.216    7316.4465   -83675.663    585.12752 
   10450    292.84206   -142.53946    276270.71   -76347.839    7439.7825   -83787.622    586.44285 
   10500    295.74877   -154.67547    276208.81   -76334.587    7513.6289   -83848.216    589.52357 
   10550    295.31362   -402.06312    276814.53   -76309.069    7502.5736   -83811.643    594.57029 
   10600    292.62109   -495.81048    277795.48   -76296.874    7434.1688   -83731.043    597.97917 
   10650    297.41783   -918.33672     278201.7   -76323.156    7556.0319   -83879.188    602.04546 
   10700    297.86293   -863.23794    277375.07   -76376.805      7567.34   -83944.145    603.30572 
   10750    295.75827    -227.9445    276284.85   -76382.189    7513.8703   -83896.059    603.90025 
   10800    290.61073   -662.09008    276181.77   -76385.627    7383.0946   -83768.722    606.73474 
   10850    294.03799   -422.74341    276824.32   -76401.703    7470.1657   -83871.869    610.38972 
   10900    288.35286   -750.66929    277594.18   -76391.511    7325.7324   -83717.243    613.83541 
   10950    290.86891   -823.44709     277608.6    -76420.58    7389.6539   -83810.233    616.55265 
   11000    291.45709   -544.79981    276930.74   -76451.822    7404.5968   -83856.419    618.46068 
   11050    291.57169   -318.85175    276114.32   -76445.377    7407.5084   -83852.886    620.36586 
   11100    290.03405   -133.88102    276057.05   -76486.401    7368.4438   -83854.844    623.60336 
   11150    283.73397   -701.89635    276808.83   -76476.224    7208.3876   -83684.612    627.98134 
   11200    287.88671   -761.73805    277343.92   -76487.997    7313.8898   -83801.887    632.85637 
   11250    286.43949   -506.86294    277349.18   -76476.015    7277.1225   -83753.138    636.47853 
   11300    284.98514   -569.62676    276935.55   -76501.447     7240.174   -83741.621    639.12287 
   11350    292.58527   -506.36553    276517.87   -76516.105    7433.2588   -83949.364    640.44404 
   11400    292.51542   -339.22535    276231.89   -76542.378    7431.4843   -83973.862    642.63256 
   11450    289.46139   -315.63842    276088.86   -76503.861    7353.8951   -83857.756    644.22517 
   11500    291.30786   -510.60538    276455.08   -76433.612    7400.8056   -83834.418    646.94437 
   11550    289.00627   -698.99992    277229.17   -76414.928    7342.3327   -83757.261    651.29805 
   11600    287.02925   -723.00641    277604.09   -76443.985    7292.1054   -83736.091    655.18534 
   11650     286.0058   -764.54439    277191.66   -76534.753    7266.1043   -83800.858    658.34321 
   11700    289.83338   -441.31339    276406.26   -76510.579    7363.3456   -83873.925     660.2572 
   11750    289.90198   -385.22696     276182.3   -76553.029    7365.0885   -83918.118    662.03404 
   11800    288.60085    -571.5376    276414.07   -76591.759    7332.0327   -83923.791    664.60724 
   11850    283.94037   -558.58903    276780.98   -76593.969    7213.6311     -83807.6    667.93374 
   11900    287.73128   -715.02398    276951.47    -76576.56    7309.9411   -83886.502    671.03069 
   11950    288.25737   -589.99562    276893.71    -76560.29    7323.3064   -83883.597    674.31722 
   12000     288.3701   -445.51665     276848.1   -76577.833    7326.1705   -83904.003    676.55986 
   12050    285.07162   -636.63964     276901.4   -76600.522    7242.3712   -83842.893    679.68782 
   12100      290.673   -439.74044     276700.8   -76572.768    7384.6767   -83957.445    682.38899 
   12150    286.53506   -443.96629    276625.08   -76523.677    7279.5505   -83803.227    684.11216 
   12200    289.13084   -479.09924    276906.18   -76492.102    7345.4975     -83837.6    687.42741 
   12250    288.60135   -608.79386    277122.56   -76523.888    7332.0455   -83855.933    691.09774 
   12300    283.86286    -646.6813    277006.88   -76429.561    7211.6619   -83641.223    693.76492 
   12350    290.73349       -414.5    276641.66   -76474.587    7386.2133     -83860.8    694.79979 
   12400    288.14816   -525.86375    276604.01   -76443.576    7320.5319   -83764.108    696.36327 
   12450    290.99587   -320.81364    276606.77   -76419.705    7392.8792   -83812.584     700.1061 
   12500    289.69104    -478.9992    276955.39   -76442.863    7359.7296   -83802.593    704.08239 
   12550    287.65261    -575.0544    277080.93    -76428.75    7307.9423   -83736.693    706.09352 
   12600    289.70037   -464.72304    276980.08   -76454.083    7359.9667    -83814.05    707.80995 
   12650    293.56217    -334.2514    276695.68   -76474.622    7458.0773   -83932.699     710.3413 
   12700    290.39138   -231.13354    276540.16   -76491.393    7377.5218   -83868.915    712.43327 
   12750    290.19307   -422.72158    276772.52   -76488.423    7372.4839   -83860.907     715.3028 
   12800    291.62212   -421.89041    276969.05   -76508.957    7408.7895   -83917.746    717.62596 
   12850    288.24475   -714.30786    277091.49   -76543.189    7322.9859   -83866.175    721.88359 
   12900    291.66363   -514.86577    276876.97   -76523.048    7409.8439   -83932.892    724.23534 
   12950    294.22719    -642.0307    276736.99   -76522.528    7474.9725   -83997.501    725.90448 
   13000    289.57796    -566.5163    276798.02   -76489.036    7356.8567   -83845.893    729.72131 
   13050    294.53295   -365.04538    277081.83   -76464.905    7482.7404   -83947.645    733.95467 
   13100    290.26817   -506.43794    277241.64   -76419.241    7374.3917   -83793.633    738.32999 
   13150     288.7291   -503.54879    277211.08   -76434.495    7335.2909   -83769.786    740.91072 
   13200     288.3877   -576.40998    276862.21   -76454.861    7326.6177   -83781.479    742.24106 
   13250    289.10361    -500.1252    276663.61   -76431.759    7344.8056   -83776.565    744.27773 
   13300    288.40264   -255.50162     276989.8   -76428.042    7326.9972   -83755.039    747.28705 
   13350    293.59385   -649.27886    277449.05   -76422.552    7458.8822   -83881.434    750.70296 
   13400    290.18386   -767.71077    277246.74   -76469.869    7372.2499   -83842.118    752.28318 
   13450    288.01764   -358.20449    276523.66   -76437.593     7317.216   -83754.809    752.86799 
   13500    290.00522   -427.42878    276170.41   -76425.078    7367.7115    -83792.79    753.68112 
   13550    290.32958   -409.69792    276271.11   -76412.003     7375.952   -83787.955    757.23341 
   13600    292.90805   -398.50112    276807.89   -76433.588     7441.459   -83875.047    762.17323 
   13650    290.66201   -492.81464    277481.27   -76447.633    7384.3974    -83832.03    766.69421 
   13700    286.10311   -667.32091    277506.52   -76453.066    7268.5766   -83721.643    769.59172 
   13750     288.0821   -367.64378    276966.63   -76443.776    7318.8537    -83762.63     771.5021 
   13800    294.43153    -420.9878    276578.76   -76432.146    7480.1636   -83912.309    773.81362 
   13850    293.09216   -280.56962     276458.4   -76431.528    7446.1364   -83877.665    776.24165 
   13900    294.48237   -432.92728    276766.67   -76457.603    7481.4555   -83939.058    778.78641 
   13950    293.42246   -779.26683    277231.97   -76469.596    7454.5278   -83924.124    781.47096 
   14000    289.49137   -586.11162    277120.52   -76485.649    7354.6568   -83840.306    784.63491 
   14050     290.2744   -415.51406    276751.21   -76495.762      7374.55   -83870.312    787.56411 
   14100     291.2517   -376.26339    276577.09   -76464.425    7399.3787   -83863.804    790.43005 
   14150    292.04907    -489.7334    276577.49   -76476.794    7419.6362   -83896.431     792.4005 
   14200    285.79341   -488.64398    276666.36   -76510.715    7260.7085   -83771.423    795.58697 
   14250    285.64314   -816.89209    276964.19   -76545.918    7256.8909   -83802.809     799.2363 
   14300    284.85175   -438.53249    276879.49   -76549.088    7236.7853   -83785.874    803.05612 
   14350    287.09265   -481.01948    276823.52   -76574.739    7293.7162   -83868.455    805.82286 
   14400    291.53783   -607.17849    276607.62   -76573.114    7406.6481   -83979.762    807.94223 
   14450     285.8359   -366.91687    276346.87   -76561.173    7261.7878    -83822.96    809.36568 
   14500    285.04898    -244.8811    276550.72    -76521.76    7241.7959   -83763.556    812.73322 
   14550    286.50639   -559.55324    276874.44   -76536.981     7278.822   -83815.803    815.76928 
   14600    290.90522   -455.43526    276949.08   -76560.906    7390.5763   -83951.482    817.62165 
   14650    286.63506   -281.04485    276859.08   -76545.119     7282.091    -83827.21    818.96271 
   14700    287.95428   -413.06857    276691.44   -76492.507    7315.6064   -83808.113    821.49341 
   14750    290.10882   -529.36239    276694.29   -76516.295    7370.3435   -83886.638    823.82597 
   14800    287.16218   -529.93406    276586.74   -76513.283    7295.4827   -83808.766    826.47142 
   14850     287.4142    -485.0755     276547.6   -76516.916    7301.8854   -83818.801    828.26446 
   14900    287.35159   -241.92502     276582.5    -76513.94    7300.2946   -83814.235    829.61837 
   14950    286.93647   -453.23105    276709.57   -76570.492    7289.7486   -83860.241    832.67247 
   15000    290.59498   -647.46375    277073.88   -76572.249    7382.6944   -83954.944    835.84719 
   15050    289.10783   -611.79899    276830.08   -76615.671    7344.9129   -83960.584    836.77046 
   15100    287.46098   -609.59458     276493.4    -76615.94    7303.0739   -83919.014    838.91816 
   15150    286.33025   -445.52549     276351.1   -76635.146    7274.3471   -83909.493    842.70686 
   15200    286.07986   -628.50957    276460.02   -76676.795    7267.9859   -83944.781    847.34193 
   15250    287.34462   -619.54845    276790.74   -76654.568    7300.1177   -83954.686    850.58777 
   15300    286.31476   -804.61316    277357.22   -76653.424    7273.9536   -83927.377    854.22462 
   15350     284.2639   -710.66533    277260.45   -76648.107    7221.8507   -83869.957    855.88012 
   15400    286.74493   -357.70394    276661.76    -76673.99    7284.8822   -83958.872    856.33742 
   15450    283.78476   -272.72384    276171.25   -76773.729     7209.678   -83983.407    856.98116 
   15500    285.16398   -550.50911    276301.49    -76785.06    7244.7175   -84029.778    860.16805 
   15550    280.12575   -562.54019       276555   -76797.244     7116.719   -83913.963    864.80489 
   15600    283.45043   -831.85997    276741.98   -76739.633     7201.184   -83940.817    868.66577 
   15650    286.08142   -271.48313    276622.68   -76690.641    7268.0254   -83958.666    870.31882 
   15700     290.7308   -661.48014    276730.18   -76646.743     7386.145   -84032.888    872.98981 
   15750    286.19557    -415.3428    276856.04   -76603.902    7270.9256   -83874.827    875.08395 
   15800    290.45859   -650.46151    276841.37   -76616.454    7379.2295   -83995.683    878.72094 
   15850    288.80957   -616.38009    276593.44   -76621.314    7337.3354   -83958.649     880.8066 
   15900    282.99702   -364.36937     276290.7   -76632.297    7189.6649   -83821.962    881.36158 
   15950    286.43138   -290.79048    276154.05   -76659.717    7276.9164   -83936.633    885.68603 
   16000    284.09427   -519.19075    276504.14   -76617.287    7217.5411   -83834.828    888.37164 
   16050    283.45017   -572.62218    276970.69   -76629.083    7201.1775   -83830.261    892.34512 
   16100    286.74482   -459.92538    277036.41   -76633.898    7284.8794   -83918.777    895.25583 
   16150    284.84826   -561.18109    276814.88   -76610.491    7236.6966   -83847.188    897.41207 
   16200    288.95746   -409.01411    276429.87   -76529.294    7341.0926   -83870.386    899.28414 
   16250    286.92114   -568.16094    276293.53    -76518.07    7289.3591   -83807.429    901.88033 
   16300      290.163   -393.23847     276685.7   -76496.591    7371.7197   -83868.311    905.29794 
   16350    289.87712   -749.01072    277353.27   -76454.847     7364.457   -83819.304    909.30927 
   16400    290.49629   -594.78201    277587.43   -76499.286    7380.1871   -83879.473    912.69945 
   16450    287.03334   -738.01662    277426.09   -76477.995    7292.2095   -83770.204    914.18693 
   16500    291.26754    -527.8433    277089.83   -76488.325    7399.7812   -83888.106    915.75863 
   16550    292.43365   -588.59772    276801.07   -76570.363    7429.4066    -83999.77    917.45841 
   16600    291.78595   -345.85325    276549.63   -76552.468    7412.9517    -83965.42    920.36026 
   16650    284.73895   -472.01927    276693.69   -76588.349    7233.9196   -83822.269    922.71923 
   16700    285.15966   -531.51023    276929.55   -76553.005    7244.6077   -83797.612    925.83652 
   16750     286.3669   -255.60622    276642.77   -76525.165    7275.2783   -83800.443    926.88036 
   16800    290.49648   -626.52926    276387.63    -76499.31     7380.192   -83879.502    931.27282 
   16850    294.39016   -412.51589    276485.44   -76483.517    7479.1127    -83962.63    935.46884 
   16900     289.0196   -698.42051    276923.26   -76497.147    7342.6713   -83839.818    939.03921 
   16950    291.59328   -703.37778    277127.69   -76492.457    7408.0568   -83900.513    942.35729 
   17000    286.66141   -558.45536    277023.76   -76504.293    7282.7603   -83787.053    942.83088 
   17050    286.64401   -411.96474    276577.16   -76483.606    7282.3183   -83765.924    944.38394 
   17100    293.66804   -401.06839    276431.53   -76472.719     7460.767   -83933.487    945.98832 
   17150    289.05203    -626.9902    276717.87    -76494.33    7343.4951   -83837.825    947.68707 
   17200    287.06685   -366.37874    276970.96   -76508.089    7293.0607    -83801.15    950.92133 
   17250    287.52258   -545.78642     277096.3   -76511.594    7304.6387   -83816.233    955.01223 
   17300     289.2792   -428.88806    276916.94    -76535.14    7349.2667   -83884.407    957.44027 
   17350    289.76323   -583.69405    276704.77   -76567.188    7361.5636   -83928.751    958.13875 
   17400    289.19582   -454.82793    276663.24   -76576.168    7347.1483   -83923.316    960.90938 
   17450     281.3373   -564.15421     276819.4   -76562.743     7147.499   -83710.242    963.98165 
   17500    285.92119   -498.26115    276905.88   -76629.476    7263.9549   -83893.431    966.63908 
   17550    287.76474   -811.72761    277091.48   -76632.382    7310.7909   -83943.172    969.42868 
   17600    287.48702   -523.24625    276809.13    -76637.36    7303.7354   -83941.096    968.57454 
   17650     283.5375   -417.34042    276459.38   -76608.598     7203.396   -83811.994    967.98511 
   17700    293.06687    -436.0741     276323.6   -76638.268     7445.494   -84083.762    969.73567 
   17750      284.174   -514.68848    276361.21    -76652.24    7219.5666   -83871.807     971.3971 
   17800    282.11576   -671.57327    276576.09   -76668.428    7167.2762   -83835.704    972.72207 
   17850    283.47015   -552.91604    276651.99   -76697.571    7201.6851   -83899.256     974.7862 
   17900     285.0004   -266.38747    276306.45   -76650.001    7240.5617   -83890.563    975.16808 
   17950    282.61893   -343.32875    276055.19   -76682.962    7180.0593   -83863.022    976.05561 
   18000    285.66661   -460.61732    276188.64   -76677.209    7257.4871   -83934.696     980.0302 
   18050    287.57455   -310.16795    276631.22   -76718.105    7305.9591   -84024.064    981.83379 
   18100    280.18283   -823.93588    276993.22    -76706.98    7118.1693   -83825.149    983.19857 
   18150    285.64367   -740.26292    276756.18   -76720.168    7256.9042   -83977.072    985.91846 
   18200    284.05459   -721.41276    276272.75   -76727.613     7216.533   -83944.146    987.48755 
   18250    281.81368   -377.36982    275878.31   -76766.995    7159.6016   -83926.596    989.30437 
   18300    286.01471   -504.17099     275974.4   -76748.924    7266.3307   -84015.255    992.20369 
   18350     282.2998   -505.11957    276353.77    -76723.68    7171.9519   -83895.632    995.02564 
   18400    289.75378    -656.5301    276746.26   -76750.426    7361.3235    -84111.75    997.79259 
   18450    285.46642   -647.42468    277039.12   -76731.151    7252.4013   -83983.552    1002.0074 
   18500    285.40555   -206.56545    276864.04   -76692.305    7250.8548    -83943.16    1004.5657 
   18550    284.81366   -281.69967     276506.3   -76663.965    7235.8174   -83899.782    1006.1188 
   18600     287.6264   -516.75415    276308.94   -76665.345    7307.2763   -83972.622    1007.3312 
   18650    288.41542   -536.43051     276393.1   -76631.427    7327.3219   -83958.749    1009.0208 
   18700    289.21831   -70.202379    276665.97   -76572.699    7347.7195   -83920.418    1012.0418 
   18750    289.22596   -765.49342    277056.74   -76558.391    7347.9138   -83906.305     1014.248 
   18800    288.92378   -541.05273    277052.05    -76493.68    7340.2368   -83833.917    1014.7989 
   18850    288.49428   -473.00477    276905.38   -76502.189    7329.3253   -83831.515      1016.07 
   18900    285.86952   -370.63917     276692.6   -76538.921    7262.6421   -83801.563    1018.3556 
   18950    286.69602   -574.59315    276612.17   -76590.716    7283.6397   -83874.355    1020.4482 
   19000    285.55303   -439.49262    276766.55   -76564.863    7254.6014   -83819.465    1021.4494 
   19050    289.44628   -572.56303    276929.84   -76592.639    7353.5112    -83946.15    1025.3014 
   19100    286.63627   -539.59504    276887.76   -76574.097    7282.1217   -83856.219    1027.1594 
   19150    287.88279   -537.30447     276531.3   -76563.678    7313.7902   -83877.468    1027.5513 
   19200    287.83547   -325.53693    276081.44   -76552.124    7312.5879   -83864.712    1028.0018 
   19250    286.18864   -460.93039    276477.13   -76536.356    7270.7496   -83807.105    1031.7664 
   19300    290.23121   -713.47702    277288.58   -76537.383    7373.4527   -83910.836    1038.2701 
   19350    288.25487   -393.80771    277440.38   -76522.409    7323.2429   -83845.652     1041.543 
   19400     290.2993   -702.79569    277048.04   -76506.815    7375.1825   -83881.998    1043.5735 
   19450     288.3834   -453.29917    276350.35   -76478.033    7326.5084   -83804.542    1044.6628 
   19500    290.85946    -335.9303    275793.43   -76477.619    7389.4138   -83867.032    1045.6812 
   19550    293.01271   -365.30637    275907.39   -76522.092    7444.1179    -83966.21    1046.7158 
   19600      285.938    -318.9836    276651.41   -76529.654    7264.3819   -83794.036    1049.5229 
   19650    291.72144   -751.57012    277290.47   -76517.373    7411.3127   -83928.686    1052.1896 
   19700    288.32865     -544.172    277420.59   -76513.584    7325.1173   -83838.702    1054.7489 
   19750    287.25163   -519.33214    277031.96   -76499.304    7297.7551   -83797.059    1057.5565 
   19800    286.46667   -462.19919    276706.75   -76495.616     7277.813   -83773.429    1058.4062 
   19850    291.84787   -413.61612     276606.1   -76497.151    7414.5247   -83911.675    1060.8816 
   19900    290.17884    -391.9504    276756.34   -76484.042    7372.1224   -83856.164    1064.0782 
   19950    284.62004   -381.45893    277001.87   -76485.352    7230.8985    -83716.25    1068.6131 
   20000    289.89172   -716.66714    277326.05   -76500.347     7364.828   -83865.175    1072.0408 
   20050    288.90543   -443.95717    277013.96   -76522.084    7339.7707   -83861.855    1074.9479 
   20100    292.71062   -243.84731    276268.34   -76548.848    7436.4432   -83985.291    1075.6932 
   20150    288.36276   -287.25928    276035.07   -76610.697    7325.9839   -83936.681    1077.2956 
   20200    286.91099   -623.98549    276666.81   -76584.517    7289.1012   -83873.618    1080.2708 
   20250    288.13644     -817.812    277339.34   -76577.815    7320.2342    -83898.05    1086.0755 
   20300    288.91932   -494.95689    277463.61   -76571.353    7340.1236   -83911.476    1087.3761 
   20350    292.12353   -532.89737    277326.29   -76538.606    7421.5279   -83960.134    1090.6066 
   20400    292.40034   -495.28812     277052.2   -76542.229    7428.5605   -83970.789    1093.0619 
   20450    290.29205   -430.10035    276373.26   -76550.626    7374.9984   -83925.624    1094.4346 
   20500    285.37281   -483.86096    276068.56   -76575.141    7250.0231   -83825.164    1095.8265 
   20550    284.70408   -381.57204    276468.59   -76545.562    7233.0336   -83778.595    1097.6261 
   20600    293.79041   -444.82775    276932.62   -76536.367    7463.8759   -84000.243    1100.7825 
   20650    288.32466   -632.96305    277206.88   -76561.936     7325.016   -83886.952    1104.1045 
   20700    285.42976   -668.85891    277199.87   -76580.481    7251.4699   -83831.951    1106.4653 
   20750    292.52891   -333.26217     276847.4   -76543.687    7431.8269   -83975.514    1107.7244 
   20800    288.07888   -555.07767    276550.61   -76571.756    7318.7719   -83890.528    1109.2812 
   20850    291.55465   -318.82404    276399.26   -76545.404    7407.0754   -83952.479    1112.7104 
   20900    291.22164   -683.52922    276674.94   -76549.435     7398.615    -83948.05    1115.2242 
   20950    289.00772   -456.88731    277148.16   -76580.764    7342.3695   -83923.134    1119.6238 
   21000    287.76506   -655.93627    277710.01   -76545.166    7310.7991   -83855.965    1121.7339 
   21050    285.86637   -770.31281    277410.93   -76563.379    7262.5621   -83825.941     1125.048 
   21100     285.6894   -153.42428    276499.71   -76566.224     7258.066    -83824.29     1124.614 
   21150    288.47252    -125.8135    276482.89   -76564.456    7328.7723   -83893.228    1126.4988 
   21200    290.39371   -425.80591    276905.92   -76538.496    7377.5812   -83916.078    1130.8786 
   21250    287.90844   -649.37092    276990.75   -76542.794    7314.4418   -83857.235    1134.6323 
   21300    282.35548   -362.20641     276721.7   -76533.651    7173.3664   -83707.017    1137.5444 
   21350    289.85624   -591.48289    276432.14   -76540.896    7363.9266   -83904.823    1138.6602 
   21400    286.70134   -244.61786    276505.51   -76531.232    7283.7749   -83815.007    1141.9214 
   21450    289.44377   -588.91476    276880.94   -76488.122    7353.4475    -83841.57    1144.4128 
   21500     290.3283   -469.44524       277309   -76493.672    7375.9193   -83869.591    1146.4722 
   21550    286.80013   -530.46838    277450.04   -76471.553    7286.2847   -83757.838    1149.4288 
   21600    288.91538   -216.25631    277002.21   -76457.928    7340.0234   -83797.951    1150.8811 
   21650     294.0019   -376.24167    276933.81    -76427.44    7469.2489   -83896.689    1152.7988 
   21700    295.35028   -704.18725    276820.22   -76393.356    7503.5049   -83896.861     1152.483 
   21750    289.59198   -261.26816     276647.9   -76433.151    7357.2129   -83790.364    1154.8295 
   21800    288.43246   -660.99667    277050.55   -76401.646    7327.7548     -83729.4    1155.8975 
   21850    290.96617   -471.36582    277203.25   -76376.862    7392.1246   -83768.987    1157.7809 
   21900    291.72429   -790.39612       277336   -76389.445    7411.3851   -83800.831    1160.8092 
   21950    294.43441   -703.63186    277091.69   -76400.738     7480.237   -83880.975    1161.9398 
   22000     287.4457   -192.70358    276513.22   -76395.365    7302.6857    -83698.05    1162.1974 
   22050    292.30761   -526.19578    276440.69   -76373.459    7426.2046   -83799.664     1163.915 
   22100    290.48555   -812.72858    276802.27   -76358.442    7379.9144   -83738.356    1167.7382 
   22150    292.82515   -613.30147    276901.92   -76380.661     7439.353   -83820.014     1170.159 
   22200    292.94479   -312.31313    277212.08   -76327.159    7442.3926   -83769.551    1173.8218 
   22250    292.21772   -711.01332    277609.08   -76316.992     7423.921   -83740.913    1179.8338 
   22300     289.7127    -653.7337    277350.52   -76254.006    7360.2798   -83614.286    1182.6173 
   22350    294.61023    -276.9476     276855.1   -76272.557    7484.7037   -83757.261    1183.3634 
   22400    294.35568   -457.94111    276609.63   -76301.582    7478.2367   -83779.819    1185.0725 
   22450     290.6227   -57.517434    276511.24   -76308.827    7383.3987   -83692.226    1186.6173 
   22500    294.93692   -686.40426    277203.98   -76285.207    7493.0033    -83778.21    1191.4792 
   22550    289.30407   -709.16102    277803.45   -76287.916    7349.8984   -83637.814    1196.2742 
   22600    290.85265    -640.5702    277725.26   -76340.229    7389.2408   -83729.469    1198.7849 
   22650     290.1392   -251.20106    277072.94   -76312.165    7371.1153    -83683.28    1200.7613 
   22700    292.50136   -349.86288     276698.5   -76335.045    7431.1269   -83766.172    1201.5963 
   22750    293.67407   -493.68377    276682.84   -76329.862    7460.9201   -83790.782     1203.331 
   22800    291.11203   -442.33398    276766.62   -76338.932    7395.8304   -83734.763    1207.8377 
   22850     292.5279   -575.29336    277158.52   -76341.135    7431.8011   -83772.936    1211.6081 
   22900    291.85903   -744.21715    277253.59   -76369.203    7414.8083   -83784.011    1213.7901 
   22950    289.89371   -179.74669     276900.8   -76385.461    7364.8785    -83750.34    1214.0781 
   23000    291.29996   -709.43468    276826.79   -76414.666    7400.6047   -83815.271    1215.8969 
   23050    287.94498   -387.39682    276805.57   -76360.868      7315.37   -83676.238    1219.0146 
   23100    292.37004   -660.70939    277118.01   -76347.038    7427.7906   -83774.829    1223.5042 
   23150    296.20911   -628.24274    277455.94   -76351.328     7525.324   -83876.652    1225.8593 
   23200    290.75968   -577.13818    277570.14   -76352.995    7386.8787   -83739.874    1227.3194 
   23250    292.59001   -417.94439    277127.75   -76373.935    7433.3791   -83807.314    1226.3464 
   23300    289.57972   -153.95199    276626.19   -76393.045    7356.9015   -83749.947     1226.476 
   23350    284.92143   -301.78957    276589.86   -76400.465    7238.5554   -83639.021    1228.9529 
   23400    289.25872   -339.77242    276727.99   -76416.412    7348.7462   -83765.158    1230.4505 
   23450    294.11521   -550.64426    277036.03    -76420.76    7472.1274   -83892.887    1235.7156 
   23500     290.3401    -343.6844    277136.05   -76466.053    7376.2192   -83842.272    1237.8363 
   23550    292.12573    -575.2566    276935.08   -76464.774    7421.5839   -83886.357      1239.16 
   23600    286.92659   -329.54353     276482.2   -76433.933    7289.4974   -83723.431    1237.0683 
   23650    289.11634   -168.92727    276604.12   -76409.693     7345.129   -83754.822    1239.3816 
   23700    288.79279    -529.2602    277397.89   -76349.421    7336.9092    -83686.33    1245.3674 
   23750    288.00228   -723.55444    277665.25   -76343.146    7316.8259   -83659.972    1246.1423 
   23800     293.4218   -367.08168    277097.75   -76325.549    7454.5112    -83780.06    1243.7316 
   23850    292.36587   -387.05325    276430.86    -76355.02    7427.6848   -83782.704    1242.1739 
   23900    292.65729   -395.21897    276276.33   -76373.607    7435.0885   -83808.696    1243.5619 
   23950    292.32227   -455.68129     276824.7    -76427.18    7426.5772   -83853.757    1247.6281 
   24000    283.99759   -480.14741    277547.85   -76427.834    7215.0848   -83642.919    1250.4034 
   24050    290.27423   -528.86993    277768.76    -76389.66    7374.5458   -83764.206     1254.118 
   24100    290.65551   -382.68026    277340.08   -76354.564    7384.2324   -83738.796     1254.678 
   24150     292.9122   -418.71384    276801.08   -76380.654    7441.5645   -83822.218    1255.3991 
   24200    287.62162   -385.55323    276449.36   -76405.944     7307.155   -83713.099    1255.6495 
   24250    293.95023   -548.23503    277020.64   -76427.583    7467.9362   -83895.519    1261.1913 
   24300    289.70058   -733.65082    277842.05   -76399.014    7359.9718   -83758.986    1266.4883 
   24350    295.03589   -866.47545     277843.1   -76418.998    7495.5179   -83914.516     1271.709 
   24400     293.2965   -647.62284    276886.39   -76390.538    7451.3279   -83841.866    1271.7633 
   24450    289.87072    -284.5086    276174.67   -76459.605    7364.2943     -83823.9    1270.0323 
   24500    291.31442   -401.44355    276164.88   -76465.302    7400.9722   -83866.274    1271.9309 
   24550    294.55705    -530.0788     276706.5   -76444.976    7483.3526   -83928.329    1275.1697 
   24600    285.80954   -529.03142    277560.12    -76420.83    7261.1184   -83681.949    1281.4923 
   24650    288.36054   -988.83225    278293.89   -76399.129    7325.9276   -83725.056      1286.68 
   24700    292.12438   -725.72395    277802.99   -76354.656    7421.5495   -83776.206    1288.1608 
   24750    290.71973   -224.51201    276611.78   -76350.785    7385.8638   -83736.649    1284.4976 
   24800    290.12476   -164.85171    276043.02   -76286.185    7370.7483   -83656.933    1285.8268 
   24850    292.38496    -571.3139    276533.09   -76257.149    7428.1699   -83685.319     1289.135 
   24900    293.94499   -581.99568    277361.01   -76230.006     7467.803   -83697.809    1295.0279 
   24950    290.65133   -869.67159    277791.05    -76262.07    7384.1262   -83646.196    1296.4793 
   25000    294.69108   -405.24768     277131.7   -76305.444    7486.7578   -83792.202    1296.0312 
   25050    292.33487   -302.18799    276318.99   -76341.915    7426.8972   -83768.812    1296.5321 
   25100     297.5233    -369.7731    276272.31   -76302.718    7558.7116   -83861.429     1299.552 
   25150     291.7044   -396.77253    276989.97   -76329.073    7410.8799   -83739.952    1303.6823 
   25200    292.49594   -794.86382    278000.88   -76346.816    7430.9893   -83777.806      1310.15 
   25250    287.21045   -794.22267     278137.4   -76388.449    7296.7091   -83685.158    1311.7626 
   25300    290.64346    -597.6905    277246.01   -76440.076    7383.9263   -83824.002    1309.6595 
   25350    289.36055   -245.41288    276289.97   -76490.449    7351.3334   -83841.783    1308.6643 
   25400    291.63269   -284.42309    276240.18   -76517.675     7409.058   -83926.733    1309.0239 
   25450    292.95102   -490.11785    276710.51   -76458.339    7442.5508    -83900.89    1313.1292 
   25500    291.42217   -923.54076    277313.25   -76451.105    7403.7096   -83854.815    1319.3909 
   25550    287.72123    -647.4711    277227.71   -76487.453    7309.6857   -83797.138    1322.2527 
   25600    290.46584   -178.22394    276704.29   -76511.717    7379.4137    -83891.13    1322.4326 
   25650    283.77695   -157.36947    276471.08   -76518.224    7209.4794   -83727.703     1324.915 
   25700    292.61929   -532.54494    276580.08   -76502.858    7434.1229   -83936.981    1329.1476 
   25750    284.89092   -667.21816    277007.07   -76498.081    7237.7803   -83735.861    1332.7656 
   25800    288.05444   -650.79098    277428.59   -76488.664     7318.151   -83806.815    1334.8633 
   25850    289.50848   -801.06769    277435.79   -76485.135    7355.0914   -83840.226    1338.0319 
   25900    288.15261    -174.1902    276933.01   -76436.761     7320.645   -83757.406    1339.8349 
   25950    289.75009    -423.9531     276642.7   -76471.831    7361.2298   -83833.061     1342.001 
   26000    293.73326   -501.62952    276751.88   -76454.263    7462.4239   -83916.687    1344.0882 
   26050    291.83676   -465.21605    276958.08   -76538.111    7414.2424   -83952.354    1346.1502 
   26100    294.89244   -680.11938    277003.54   -76564.634    7491.8735   -84056.507    1347.4374 
   26150    289.58909   -502.54268    276908.99   -76565.491    7357.1395   -83922.631    1350.9861 
   26200    289.88052   -361.70305    276844.89    -76555.88    7364.5433   -83920.423    1354.8578 
   26250    287.40128    -742.1825    276982.21   -76543.412    7301.5572    -83844.97    1357.2025 
   26300    281.53941   -772.87611    276954.07   -76569.313    7152.6338   -83721.947    1360.9457 
   26350     286.0677   -435.60706    276742.04   -76586.905    7267.6768   -83854.582    1362.8986 
   26400    287.45338   -459.56376    276544.81   -76583.926    7302.8807   -83886.807    1364.0139 
   26450     290.5811   -136.13101    276443.22    -76543.44    7382.3418   -83925.782    1365.6998 
   26500    288.87273   -686.21226    276993.12    -76546.56      7338.94     -83885.5    1368.8157 
   26550    281.95012   -648.35135    277313.17    -76527.64    7163.0681   -83690.708    1373.6384 
   26600     287.8975   -631.53941    277215.11   -76544.473    7314.1638   -83858.637    1375.5424 
   26650    289.75773   -596.35365    276928.88   -76532.622    7361.4239   -83894.046    1378.0052 
   26700    287.94812   -382.25562    276343.05   -76499.197    7315.4499   -83814.647    1378.3558 
   26750     288.2867   -363.78669    276263.57   -76509.828    7324.0516    -83833.88    1380.4926 
   26800    289.92683   -435.92578    276788.05   -76557.491    7365.7198    -83923.21    1384.1685 
   26850    287.30071   -699.92892    277435.85   -76546.526     7299.002   -83845.528    1388.5527 
   26900    289.18031   -723.75193    277399.37   -76498.029    7346.7543   -83844.783    1390.9242 
   26950    287.49754   -473.32832    276972.23   -76523.166    7304.0027   -83827.169    1392.4241 
   27000    288.13683   -178.05679    276428.18   -76534.991    7320.2442   -83855.235    1393.7985 
   27050      291.677   -560.36291    276508.66   -76555.264    7410.1836   -83965.447    1396.3459 
   27100    289.46407   -504.56366    276851.29   -76519.414    7353.9632   -83873.378    1399.1471 
   27150    289.16448   -609.88556     276967.4   -76548.875    7346.3521   -83895.227    1402.2185 
   27200    290.68305   -544.36146    276777.15   -76538.177    7384.9319   -83923.109    1404.1559 
   27250    286.62065    -451.5162    276549.32   -76519.029    7281.7249   -83800.753    1407.2131 
   27300    284.91625   -410.08035    276490.06    -76519.66    7238.4238   -83758.084    1410.0833 
   27350     291.9533   -421.47865    276503.99    -76500.35    7417.2031   -83917.553    1412.2445 
   27400    290.70172   -422.69903     276680.7   -76458.393    7385.4063   -83843.799    1414.7565 
   27450    291.63588   -614.14335    277066.33   -76476.701    7409.1391    -83885.84    1419.8773 
   27500    288.39987   -565.48344     277321.8    -76463.25    7326.9269   -83790.177    1425.0347 
   27550    286.56595     -382.509    277401.57   -76465.736    7280.3352   -83746.071    1425.8926 
   27600     291.1926    -754.3055    277482.75    -76472.97    7397.8773   -83870.848    1426.9763 
   27650     285.4448   -651.48381    276891.33   -76498.433    7251.8519   -83750.285     1427.189 
   27700    289.42708   -257.29062    276191.74   -76517.032    7353.0235   -83870.055    1427.3727 
   27750    288.13271   -258.33019    276247.27   -76479.776    7320.1394   -83799.915     1429.898 
   27800    287.56433   -644.16673    276950.49   -76487.184    7305.6995   -83792.884    1435.0411 
   27850    289.52164   -598.82478    277543.53   -76439.879    7355.4258   -83795.305    1439.2715 
   27900    287.93215   -630.21784    277656.75   -76458.057    7315.0441   -83773.101    1441.1802 
   27950    287.40512   -779.89652    277264.88   -76469.791    7301.6548   -83771.446    1440.1953 
   28000    289.90414    -158.1744     276398.7   -76476.942    7365.1434   -83842.085    1438.6562 
   28050    292.68875   -331.37821    276197.34   -76468.527    7435.8877   -83904.415    1439.5907 
   28100    289.72681   -615.73264    276825.57   -76487.792    7360.6381    -83848.43    1445.4758 
   28150    289.90546   -538.70354     277294.1   -76466.608     7365.177   -83831.785    1450.3391 
   28200    285.91301   -784.62676    277134.75   -76473.746    7263.7471   -83737.493    1453.6787 
   28250    289.48274   -646.88881    276573.19   -76533.005    7354.4375   -83887.442    1452.3624 
   28300    286.29436   -67.481355    276134.46   -76527.153    7273.4354   -83800.588    1453.3621 
   28350    289.72304    -531.2724    276507.45   -76521.434    7360.5424   -83881.976    1459.0249 
   28400    290.53032   -844.75576    277168.51   -76473.631    7381.0518   -83854.683    1464.4276 
   28450    288.36607    -651.5843     277241.3   -76467.214     7326.068   -83793.282    1467.7384 
   28500    285.78929   -639.38452    277054.26   -76475.045    7260.6038   -83735.649    1469.2666 
   28550     293.0437   -489.82512    276684.87   -76498.255    7444.9054    -83943.16    1468.8986 
   28600    296.93866   -673.30341    276458.31   -76491.001    7543.8585    -84034.86    1469.9623 
   28650    289.11225   -314.27698    276278.95   -76510.421     7345.025   -83855.446     1470.504 
   28700    290.10344    -373.4238    276472.52   -76518.958    7370.2068   -83889.165    1474.9261 
   28750    287.94253   -477.34604     277037.8   -76514.517    7315.3078   -83829.825    1479.9605 
   28800    282.64091   -240.05165    277335.69   -76520.036    7180.6177   -83700.653    1484.7021 
   28850    288.97289   -706.66238     277342.6   -76499.532    7341.4847   -83841.017    1488.3529 
   28900    292.03823   -652.98241    276797.28   -76552.087     7419.361   -83971.448    1489.2682 
   28950    286.88965   -367.10159    276126.59   -76578.059     7288.559   -83866.618    1489.7818 
   29000    288.93482   -186.45806    275963.74   -76604.727    7340.5175   -83945.245    1490.2896 
   29050    288.09008   -435.67104    276416.19   -76598.525    7319.0564   -83917.582    1494.3206 
   29100    285.93141   -877.55023    277096.34   -76618.241    7264.2145   -83882.456    1498.4829 
   29150    290.89565   -970.65725    277373.13   -76612.946    7390.3331   -84003.279    1500.0172 
   29200    285.61554   -217.62057    276829.99    -76624.56    7256.1895    -83880.75    1502.1934 
   29250    288.26017   -416.19901    276176.71   -76635.683    7323.3776   -83959.061    1502.3402 
   29300     288.2742   -441.33874    276148.15   -76664.313    7323.7342   -83988.047    1505.2894 
   29350    283.79892   -233.72856    276550.21   -76655.174    7210.0377   -83865.212     1511.479 
   29400     288.7206   -520.38107    276930.02   -76635.744     7335.075   -83970.819    1517.2422 
   29450    285.29746   -463.68906    277239.14     -76598.1    7248.1087   -83846.209      1521.36 
   29500    291.31938    -667.8685    277051.08   -76581.119    7401.0982   -83982.217    1522.4076 
   29550    290.85541   -335.66368    276390.29   -76527.898    7389.3107   -83917.209    1522.1087 
   29600    289.35829   -464.25897     276263.3   -76530.301    7351.2759   -83881.577    1524.5286 
   29650    289.94039   -423.64285    276599.27   -76507.144    7366.0645   -83873.208    1530.6253 
   29700    290.15704   -632.65109    276944.53   -76503.972    7371.5684    -83875.54    1533.8618 
   29750    287.53823   -639.36969    277094.65   -76457.769    7305.0363   -83762.805    1537.7935 
   29800    288.12575   -673.96929    277333.49   -76434.452    7319.9625   -83754.415    1541.2206 
   29850    288.51509   -843.00802     277480.1   -76397.062    7329.8539   -83726.915    1544.7605 
   29900     291.6887   -930.05117    277101.59   -76405.128    7410.4808   -83815.609    1545.9874 
   29950    291.53421   -248.50487    276300.57   -76411.588     7406.556   -83818.144    1546.4048 
   30000    291.28874   -166.03393    276042.74   -76392.553    7400.3198   -83792.873     1547.469 
   30050    287.54215   -242.75664    276693.13   -76375.903    7305.1361    -83681.04    1551.5303 
   30100    289.22002   -562.99699    277670.27   -76378.033    7347.7632   -83725.797    1558.4341 
   30150    290.82095   -779.02786    277921.77   -76357.949    7388.4355   -83746.385    1565.5206 
   30200    287.18229   -568.07645    277464.64    -76385.42    7295.9936   -83681.413    1565.6087 
   30250    294.22667   -255.44393    276668.73   -76414.074    7474.9592   -83889.034    1564.8062 
   30300    285.90047    -475.4671    276299.73   -76465.217    7263.4284   -83728.645    1565.1581 
   30350    285.14322   -394.70964    276361.91   -76487.191    7244.1901   -83731.381     1568.151 
   30400    291.27975     -901.981    276948.89   -76513.154    7400.0914   -83913.246     1573.053 
   30450    283.20845   -1025.6831    277160.58   -76541.019    7195.0365   -83736.056     1575.812 
   30500    284.55245   -702.31536    276912.98   -76527.518    7229.1815   -83756.699    1575.5207 
   30550    290.27112   -367.43439     276405.3   -76467.566    7374.4667   -83842.033    1577.3599 
   30600    292.39683   -287.00967    276210.24   -76443.527    7428.4714   -83871.998    1579.9458 
   30650    286.64142   -292.84582    276636.03   -76398.757    7282.2525    -83681.01      1582.93 
   30700    291.95227   -656.67379    277080.15   -76395.773    7417.1772    -83812.95    1587.0059 
   30750    294.50615    -293.8091     277139.3   -76388.101    7482.0596   -83870.161    1590.2362 
   30800    291.01764   -535.04654    277050.37   -76400.309    7393.4323   -83793.741    1593.8831 
   30850    295.45253   -666.82655    277128.41   -76359.857    7506.1028    -83865.96    1595.3527 
   30900    296.17362   -505.09815    276954.34   -76348.791    7524.4222   -83873.214    1598.3096 
   30950    296.37616   -730.86459    276893.41   -76389.986    7529.5679   -83919.554    1600.4344 
   31000    297.47517    -549.7154    277074.04   -76401.023    7557.4888   -83958.512    1603.1748 
   31050    291.88812   -584.45968    277196.06   -76429.785    7415.5474   -83845.332     1604.466 
   31100    290.18402   -361.60552    276928.32   -76398.961     7372.254   -83771.215    1604.8277 
   31150    289.29261   -378.35962    276730.59   -76372.284    7349.6073   -83721.892    1608.0868 
   31200    297.79193   -402.36175    276625.07   -76410.741    7565.5361   -83976.277    1608.5433 
   31250    291.91987   -612.18322    276918.87   -76427.617     7416.354   -83843.971    1613.9282 
   31300     288.3859   -768.42881    277227.53   -76414.312     7326.572   -83740.884    1619.8027 
   31350     285.6808   -306.87241    277087.54   -76427.449    7257.8475   -83685.297    1621.8551 
   31400     292.0949   -608.51052     276958.9   -76435.585    7420.8007   -83856.386    1622.1376 
   31450     292.7962   -482.98647    276611.34   -76442.179    7438.6175   -83880.796     1623.383 
   31500    285.87839   -313.31332    276432.04   -76491.585    7262.8674   -83754.452    1624.0952 
   31550     289.8798   -488.55992    276818.45   -76562.207     7364.525   -83926.732    1628.7626 
   31600    283.02344   -590.11839    277383.72   -76500.455    7190.3362   -83690.791    1633.4046 
   31650    289.05555   -423.13895    277335.05   -76474.476    7343.5847   -83818.061    1634.7714 
   31700    289.49663   -685.26946    276883.87   -76441.185    7354.7905   -83795.976    1636.1819 
   31750    296.95645   -489.11707    276487.67   -76416.964    7544.3106   -83961.275    1637.8021 
   31800    293.70981   -573.41059    276524.92   -76469.956     7461.828   -83931.784    1641.4426 
   31850    291.40255   -480.80474    276778.04   -76453.022    7403.2111   -83856.233    1645.0827 
   31900    284.44575   -437.60606    277162.58   -76430.972    7226.4705   -83657.442    1649.9791 
   31950    290.52566   -676.42689    277316.07   -76412.222    7380.9334   -83793.155    1652.3829 
   32000    282.39527   -380.09053    277002.44   -76393.075    7174.3773   -83567.452    1653.8539 
   32050    294.36303   -725.44142    276910.33   -76422.369    7478.4236   -83900.792    1657.6109 
   32100    293.34223    -609.1756    276920.32   -76434.045    7452.4897   -83886.535    1660.4107 
   32150    287.10156   -482.24071    276894.89   -76471.058    7293.9425       -83765    1663.4915 
   32200    288.08117   -689.80924    276874.77   -76477.536    7318.8301   -83796.366     1666.792 
   32250    287.46112   -513.13354    277131.65   -76410.268    7303.0773   -83713.345     1673.365 
   32300    288.83719    -464.3252    277232.75   -76403.669     7338.037   -83741.706    1675.5196 
   32350    291.69244   -465.37899    277045.47   -76451.767    7410.5761   -83862.343    1673.8993 
   32400    289.77585   -510.65808    276915.05   -76494.173    7361.8841   -83856.057    1677.6513 
   32450    289.40491   -159.80458    276730.63   -76449.596    7352.4602   -83802.056    1680.2759 
   32500     288.5007   -546.33952    277039.32   -76424.251    7329.4885   -83753.739    1684.6662 
   32550    295.27907   -639.02313    277279.76   -76412.616     7501.696   -83914.312    1685.5746 
   32600    289.37517   -759.94656    277272.74   -76432.228    7351.7047   -83783.933    1688.1549 
   32650    290.84454   -585.79223    276991.61   -76422.573    7389.0348   -83811.607    1689.4942 
   32700    287.62947   -473.96112    276771.48   -76434.805    7307.3545    -83742.16     1691.167 
   32750    287.95859   -489.31056    276559.83   -76449.887    7315.7159   -83765.602    1692.2236 
   32800     292.6254   -337.15681    276498.54   -76427.634    7434.2782   -83861.912    1694.8797 
   32850    290.06525   -284.17373    276655.12   -76422.569    7369.2366   -83791.806    1697.8139 
   32900    289.50448   -468.20618    277039.53   -76402.147    7354.9899   -83757.137    1702.0869 
   32950    286.33841   -547.61652    277384.41   -76417.248    7274.5544   -83691.803    1708.0293 
   33000    287.70541   -722.31314    277296.78   -76422.897    7309.2836    -83732.18    1709.5369 
   33050    287.56989   -576.67598    276954.69    -76414.89    7305.8408   -83720.731    1712.0049 
   33100     288.9597   -397.44031    276727.13   -76422.465    7341.1494   -83763.614     1711.831 
   33150     293.9549   -238.29035    276608.08   -76407.111    7468.0547   -83875.166    1714.1093 
   33200    287.96932   -327.85952    277003.94   -76429.494    7315.9883   -83745.482    1720.1939 
   33250    288.59664   -739.42467    277537.31   -76389.585    7331.9258   -83721.511    1725.5194 
   33300    294.03836   -651.97692    277291.03   -76372.631     7470.175   -83842.806    1727.1312 
   33350     291.1043   -178.74124    276678.68   -76381.662    7395.6339   -83777.296    1727.4375 
   33400    295.25211   -512.29178     276601.1   -76390.306    7501.0108   -83891.317    1730.9073 
   33450    295.31382   -555.88507    277046.53   -76356.804    7502.5787   -83859.382    1737.3922 
   33500    293.46801   -538.60131    277502.36   -76320.861    7455.6852   -83776.546    1742.2375 
   33550    294.06996   -718.66206    277522.82   -76259.736     7470.978   -83730.714    1743.4504 
   33600    293.17106   -615.12129    277094.87   -76271.885    7448.1411   -83720.026    1743.6641 
   33650    291.64557   -412.75317    276679.75   -76274.457    7409.3851   -83683.842    1744.5661 
   33700    292.20283   -605.10639    276737.18   -76284.434    7423.5425   -83707.977    1747.8981 
   33750     293.4152    -379.1452    277091.33    -76322.07    7454.3435   -83776.413    1751.2827 
   33800    289.25848   -428.91232    277340.59   -76343.422      7348.74   -83692.162    1755.2147 
   33850    293.76317   -614.24333    277453.04   -76393.011    7463.1837   -83856.194    1758.3217 
   33900    292.21214   -601.89258    277723.59   -76379.929    7423.7792   -83803.708    1762.4254 
   33950    293.62487   -483.99811    277288.55   -76380.548    7459.6701   -83840.218    1762.7524 
   34000    290.56196   -344.82837    276416.93   -76383.152    7381.8556   -83765.008    1761.8093 
   34050    289.79583   -177.33414    276165.27   -76439.164    7362.3918   -83801.556     1762.731 
   34100    290.98676   -422.31052     276799.6   -76447.146     7392.648   -83839.794    1768.2051 
   34150    286.52145   -469.52077    277427.15   -76461.469    7279.2046   -83740.674    1774.5873 
   34200    289.38773   -736.27004    277363.93   -76443.195    7352.0239   -83795.219    1776.2261 
   34250    292.27384   -618.31982    276689.91   -76526.437    7425.3467   -83951.784     1773.748 
   34300    285.74049   -340.04098    276082.28   -76547.439     7259.364   -83806.803    1773.6302 
   34350     289.4887   -286.57365    276158.61   -76530.401    7354.5889   -83884.989    1778.1971 
   34400    287.60986   -498.93436    276870.09   -76572.559    7306.8563   -83879.415    1783.2042 
   34450    286.56255   -449.61734    277239.46   -76532.623    7280.2488   -83812.872    1787.8394 
   34500      286.887   -794.78965    277289.29    -76566.94    7288.4916   -83855.431    1789.8981 
   34550    288.29452   -611.39159    276916.24   -76524.836    7324.2504   -83849.086    1789.7525 
   34600    290.23327   -453.27734    276466.72   -76508.296     7373.505   -83881.801    1790.4711 
   34650      284.167   -240.60583    276145.28   -76506.783    7219.3889   -83726.172    1790.1854 
   34700    291.74822    -405.5281    276489.27   -76493.274     7411.993   -83905.267    1794.9025 
   34750    287.32242   -570.86105    277197.75   -76581.709    7299.5536   -83881.263    1801.3035 
   34800    288.92596   -664.23069    277303.56   -76561.079    7340.2923   -83901.372    1804.7512 
   34850    289.60639   -715.80777    276866.36   -76595.006    7357.5788   -83952.584    1802.6198 
   34900    293.60784   -204.58272    276301.77   -76579.682    7459.2376   -84038.919    1803.5581 
   34950    282.78697    -136.1742    276250.92   -76610.854    7184.3286   -83795.183    1804.4234 
   35000    285.41509   -436.71364    276498.26   -76591.305    7251.0972   -83842.402    1808.5739 
   35050     289.2742    -524.9832    276902.67   -76628.175    7349.1395   -83977.314    1812.5785 
   35100    287.05069   -608.22039    277304.88   -76615.617    7292.6503   -83908.267    1817.0517 
   35150    284.92812   -581.21656    277136.65   -76599.192    7238.7254   -83837.917    1818.3522 
   35200    286.79081   -390.08574    276981.74    -76578.56    7286.0478   -83864.607    1819.5846 
   35250    285.77655   -503.78489     277019.4   -76581.059    7260.2801   -83841.339    1821.2926 
   35300     289.2065   -581.55568    277094.98    -76520.14    7347.4196    -83867.56    1825.2908 
   35350    285.66774   -671.06089    276880.96   -76515.505    7257.5159    -83773.02    1826.0782 
   35400    290.91066   -275.71575    276336.65   -76492.619    7390.7146   -83883.334    1824.9633 
   35450    281.75393   -411.02575    276443.37    -76517.13    7158.0837   -83675.214    1826.9543 
   35500    287.11395   -423.53851    276819.33   -76517.643    7294.2574     -83811.9     1829.373 
   35550    286.42328   -473.74298    277284.37   -76519.099    7276.7106    -83795.81    1834.7303 
   35600    288.31942   -412.58418    277424.76   -76462.073    7324.8828   -83786.956    1837.7394 
   35650    289.47686   -337.08386    277112.96   -76465.554    7354.2882   -83819.842     1839.823 
   35700    288.35503   -348.61537    276696.58   -76485.716    7325.7876   -83811.504    1839.6993 
   35750     291.7522   -455.17039    276631.82   -76469.201    7412.0943   -83881.296    1843.8188 
   35800    286.51551   -592.49876     276921.1   -76460.253    7279.0538   -83739.307    1848.4687 
   35850     291.6021   -425.72384    276966.13   -76472.207    7408.2809   -83880.488    1850.0516 
   35900    289.36151   -381.21966    276706.61    -76424.84    7351.3577   -83776.197    1851.6241 
   35950    293.41637   -450.53974    276719.12   -76455.082    7454.3731   -83909.455    1853.4972 
   36000    292.39078   -555.26742    277010.24    -76446.09    7428.3175   -83874.408    1856.1973 
   36050    290.09055   -293.26015    277246.33   -76496.423    7369.8791   -83866.302    1860.7915 
   36100    286.00995    -592.4921    277376.86   -76444.573    7266.2098   -83710.783    1863.8309 
   36150     286.0908   -528.72163    277224.61   -76455.946    7268.2639    -83724.21    1868.0091 
   36200    290.65735   -514.94543    276958.84   -76492.018    7384.2791   -83876.297    1868.9846 
   36250    287.72246   -342.40223    276903.71   -76508.993    7309.7167    -83818.71     1871.728 
   36300    289.93802    -601.8055    277016.85   -76520.169    7366.0041   -83886.173    1875.0281 
   36350     286.4493   -485.04711    277039.85   -76537.428    7277.3716     -83814.8    1878.3402 
   36400    289.19552   -554.47382    276854.91   -76536.643    7347.1406   -83883.784     1880.465 
   36450    291.15045    -415.6815    276663.83   -76486.294    7396.8065     -83883.1    1880.9569 
   36500    292.26475   -427.59846    276715.32   -76430.139    7425.1158   -83855.255     1882.397 
   36550    287.36407    -337.1795    276978.49   -76436.532    7300.6119   -83737.144    1883.7065 
   36600    288.00592   -803.33609     277382.3   -76490.081    7316.9184   -83806.999    1886.4075 
   36650    285.89205   -753.24115    277278.09    -76497.08    7263.2145   -83760.294      1887.23 
   36700      287.944    -297.6779    276822.56   -76539.203    7315.3452   -83854.548    1886.8132 
   36750    292.05388   -425.50549    276484.46   -76534.526    7419.7584   -83954.284    1887.7375 
   36800    288.33592    -393.3368     276561.6   -76533.054     7325.302   -83858.356    1890.1986 
   36850    290.14029   -808.61365    276928.86   -76514.931     7371.143   -83886.074    1892.7943 
   36900    288.12818   -429.50866    277122.98   -76506.067    7320.0245   -83826.092    1894.3251 
   36950    289.68771   -582.73684    277027.49   -76520.475    7359.6449    -83880.12    1893.6279 
   37000    288.94924   -301.53687    276602.04    -76534.94    7340.8837   -83875.823    1893.4708 
   37050    289.73034   -304.68269    276757.75   -76532.526     7360.728   -83893.254    1895.4296 
   37100     292.4091   -360.21349     277229.7    -76468.17    7428.7829   -83896.953    1899.3393 
   37150     289.8889   -724.41294    277647.58   -76446.711    7364.7562   -83811.467     1902.176 
   37200    293.04899   -705.55467    277335.57   -76469.086    7445.0397   -83914.126    1904.1624 
   37250    284.68133   -324.51782    276726.87   -76490.631    7232.4557   -83723.086    1903.0467 
   37300    294.47075   -436.62482    276337.66   -76532.262    7481.1602   -84013.422    1902.7569 
   37350    284.65251   -438.69666    276553.27   -76499.316    7231.7234    -83731.04    1906.1013 
   37400    292.13734     -370.977    276889.91   -76463.946     7421.879   -83885.825    1908.7073 
   37450    287.03139    -386.7591    277157.58   -76443.248    7292.1598   -83735.408    1911.5334 
   37500     287.2711   -508.85477    277186.88   -76399.712    7298.2497   -83697.961    1914.9633 
   37550    286.56703   -241.17834    276940.75   -76469.083    7280.3626   -83749.445    1918.0409 
   37600    287.33484   -355.61135    276769.63   -76494.932    7299.8692   -83794.802    1919.2962 
   37650    292.27207   -272.54394    276657.11   -76499.302    7425.3017   -83924.604    1919.5627 
[...]
   90850    286.67076   -361.67442    277192.55   -76595.616    7282.9981   -83878.614    4590.8806 
   90900     291.5702   -232.22576    277073.77   -76589.531    7407.4703   -83997.001    4588.7069 
   90950    288.39907   -382.53267    276690.59   -76589.758    7326.9063   -83916.664    4587.2758 
   91000    285.79132   -155.09993    276521.49   -76606.655    7260.6554   -83867.311    4588.2772 
   91050    281.81181   -219.87159    276783.21    -76639.15    7159.5542   -83798.704    4592.7311 
   91100    287.07313   -833.53702    276984.98   -76583.007    7293.2202   -83876.227    4594.6164 
   91150    288.48896   -576.09173    276757.85   -76551.328    7329.1902   -83880.518    4593.1458 
   91200    285.36848   -480.26992    276409.22   -76569.267    7249.9128    -83819.18    4596.2723 
   91250    287.31553   -316.51643    276200.85   -76532.073    7299.3785   -83831.452    4597.4819 
   91300    290.02451   -329.88505    276554.89   -76548.705    7368.2013   -83916.906    4608.5839 
   91350    286.89498   -295.56454    277321.64   -76556.493    7288.6942   -83845.187    4620.5212 
   91400      289.015   -652.36958    277762.33   -76578.438    7342.5543   -83920.992    4626.9509 
   91450    289.15628   -833.85848    277375.59   -76529.516    7346.1436    -83875.66    4623.8137 
   91500    283.60466   -502.34437    276527.64   -76581.679    7205.1024   -83786.782    4617.3646 
   91550    289.61686   -499.05872    276196.38   -76553.368     7357.845   -83911.213     4616.237 
   91600    289.98879   -587.23372    276506.31   -76563.821    7367.2939   -83931.115    4623.6372 
   91650    286.24822   -441.51531     276889.4   -76527.982    7272.2631   -83800.245     4630.682 
   91700    287.64846   -625.87418    277207.55   -76539.951    7307.8368   -83847.788    4636.0418 
   91750    288.91295   -553.74373    277244.32   -76520.694    7339.9618   -83860.656    4641.1509 
   91800    293.03873   -498.48994    276745.29   -76546.965    7444.7791   -83991.744    4637.4675 
   91850    292.73713   -460.00872    276344.34   -76541.663    7437.1167    -83978.78    4635.9246 
   91900    286.82146   -273.80959     276212.8    -76519.38    7286.8264   -83806.207    4641.9101 
   91950    289.78821   -393.12018    276684.61   -76505.662    7362.1982    -83867.86    4653.1731 
   92000    287.84597   -605.51782    277242.96     -76557.8    7312.8547   -83870.655    4665.5809 
   92050    287.41997   -539.74772    277124.77   -76574.199    7302.0319   -83876.231    4669.6595 
   92100    286.67108    -598.1689    276618.46   -76546.615    7283.0061   -83829.621     4670.311 
   92150    291.55644   -185.85419    276175.63   -76587.627    7407.1208   -83994.747    4669.9759 
   92200    291.84747   -436.54672    276300.16   -76558.384    7414.5145   -83972.898    4675.5176 
   92250    289.03612   -482.08386    276648.55   -76526.765    7343.0909   -83869.856      4683.02 
   92300     292.0041   -460.21005    277172.89   -76513.208    7418.4938   -83931.702    4694.2839 
   92350    288.45606   -732.54673    277485.38    -76474.59    7328.3543   -83802.944    4701.2424 
   92400    287.81687   -332.19928    277267.61   -76497.241    7312.1154   -83809.357    4700.8008 
   92450    289.85433   -401.40919     277065.9   -76511.566     7363.878   -83875.444     4701.023 
   92500    288.60677   -541.92841    276777.02   -76559.466    7332.1831   -83891.649    4702.6327 
   92550    288.88569   -344.05736    276640.56   -76591.073    7339.2694   -83930.343    4706.6369 
   92600      288.206   -295.00698    276700.74    -76562.69    7322.0015   -83884.691    4710.6249 
   92650    287.37342   -417.01192    276889.45   -76529.485    7300.8494   -83830.335    4715.5293 
   92700    289.30161   -558.09919    276909.31   -76533.577     7349.836   -83883.413    4720.4979 
   92750    287.14732   -526.76337    276691.21   -76509.219    7295.1052   -83804.325    4722.4188 
   92800    286.37751   -359.43914    276644.01   -76506.353    7275.5477     -83781.9    4725.1813 
   92850    285.63184   -103.73552    276703.54   -76461.753    7256.6036   -83718.357    4729.8431 
   92900    288.54937   -325.29919    277008.43   -76451.586    7330.7248   -83782.311    4737.6576 
   92950    290.76292    -559.3711    277210.73   -76432.266     7386.961   -83819.227     4742.826 
   93000    290.00416   -155.69017    277069.96   -76366.813    7367.6845   -83734.498    4746.7358 
   93050    297.47636   -563.10726    277101.84   -76348.841    7557.5189    -83906.36    4752.9858 
   93100    285.41225   -478.56934    277312.75   -76373.905    7251.0251    -83624.93    4758.6768 
   93150    286.10112   -600.17006    277301.12   -76398.834    7268.5259    -83667.36    4762.1726 
   93200    287.56953   -542.49005    277079.12    -76450.32    7305.8315   -83756.152    4767.7776 
   93250    294.08657   -492.48393    276708.75    -76455.33       7471.4    -83926.73    4767.5171 
   93300    288.45035   -338.94412    276401.42   -76441.787    7328.2093   -83769.996    4766.4721 
   93350    290.46312   -502.01076    276593.06   -76459.495    7379.3445    -83838.84    4771.3907 
   93400    292.86096   -434.76205    277179.86   -76416.277    7440.2628   -83856.539    4782.9766 
   93450    290.52769   -717.11137    277475.47    -76425.48     7380.985   -83806.465    4789.9619 
   93500    287.39102   -362.73597    277302.71   -76451.793    7301.2964    -83753.09    4792.1294 
   93550    289.04984   -466.86175    277027.07   -76408.584    7343.4395   -83752.023    4785.8268 
   93600    290.92663   -520.67266     276607.4   -76401.383    7391.1202   -83792.503     4783.441 
   93650    293.36051   -371.22694    276733.36   -76383.963     7452.954   -83836.917    4787.4349 
   93700    295.41355   -777.27829    277309.09    -76343.57    7505.1125   -83848.682    4794.4337 
   93750    289.09786   -708.04843    277466.45   -76390.224    7344.6595   -83734.883     4796.562 
   93800    293.97046   -693.26747     277155.5   -76416.561    7468.4502   -83885.011    4794.5342 
   93850    290.56234   -516.91971    276810.71   -76429.556    7381.8654   -83811.421    4794.3036 
   93900    295.11938   -543.32339    276674.51    -76419.49     7497.639   -83917.129    4795.0508 
   93950    289.29673   -335.99132    276564.35   -76421.828    7349.7118    -83771.54    4793.4647 
   94000    289.19213   -446.22678    276648.42    -76472.72    7347.0545   -83819.774    4796.1521 
   94050    291.23422    -610.7171    276889.76   -76532.745    7398.9347   -83931.679    4797.7946 
   94100    287.63611   -628.47251     276868.9   -76546.075     7307.523   -83853.598    4799.0983 
   94150    286.71796   -579.06508    276800.34   -76572.171     7284.197   -83856.368    4796.4638 
   94200    287.18386   -526.18406    276721.17   -76537.754    7296.0335   -83833.788     4797.346 
   94250    288.18859   -269.85447     276565.9    -76490.16     7321.559   -83811.719     4795.573 
   94300    289.40126    -324.4155    276701.82   -76496.323    7352.3674   -83848.691    4799.4574 
   94350    283.34086   -523.95341    277000.88   -76507.642    7198.4003   -83706.043    4805.1237 
   94400    291.29019   -922.00922    277000.78    -76505.39    7400.3567   -83905.747    4808.0789 
   94450    287.29373   -148.54562     276612.3   -76503.162    7298.8247   -83801.987    4803.7866 
   94500    290.37413   -557.73209    276514.68   -76529.726    7377.0838    -83906.81    4801.3469 
   94550    286.05393   -382.53774    276714.74   -76512.284     7267.327   -83779.611    4804.7793 
   94600    287.05701   -820.83976    277089.86   -76495.284    7292.8107   -83788.095    4811.5507 
   94650    288.55666   -649.97324    276915.09   -76513.336    7330.9101   -83844.246    4810.8341 
   94700    290.32735    -231.6039    276253.15   -76499.493    7375.8952   -83875.388    4805.9668 
   94750    289.77799   -210.82236    276081.96   -76550.368    7361.9384   -83912.306    4806.2821 
   94800    288.37549   -205.87067    276410.93    -76597.45    7326.3073   -83923.757    4811.4837 
   94850    285.11916   -791.15893    277083.79   -76627.004    7243.5788   -83870.582    4823.2176 
   94900    286.93256   -676.68101    277226.72   -76625.071    7289.6491    -83914.72    4827.0409 
   94950    283.41003   -520.31643    277001.54   -76579.462    7200.1577   -83779.619    4823.5796 
   95000     283.2159   -644.92741     276537.6   -76646.857    7195.2256   -83842.083      4821.82 
   95050    289.17516   -270.32551    276244.73   -76665.982    7346.6233   -84012.606    4817.0663 
   95100    286.16681   -453.33266    276698.87   -76628.283    7270.1948   -83898.478    4823.6837 
   95150     285.5088   -773.36131    277145.78   -76591.307    7253.4779   -83844.785    4831.1744 
   95200    288.70323    -579.5094     277053.4   -76615.477    7334.6337   -83950.111    4833.8569 
   95250    287.17085   -418.92098    276777.38   -76635.476    7295.7031   -83931.179     4830.509 
   95300    286.00298   -737.70873    276633.88   -76663.411    7266.0326   -83929.444    4831.9098 
   95350    285.65797   -406.42954    276587.49   -76663.624    7257.2675   -83920.891    4833.3777 
   95400    288.27893   -208.93435    276698.25   -76613.402    7323.8543   -83937.256    4836.1122 
   95450    283.98329   -352.45678    276860.72   -76601.442    7214.7217   -83816.164    4838.1823 
   95500    286.04554   -662.24722     276920.5   -76577.395    7267.1139   -83844.509    4837.4366 
   95550    289.56172   -692.30458    276924.61   -76527.017     7356.444   -83883.461    4836.8864 
   95600    287.41064   -230.08598    276961.41   -76534.336    7301.7948   -83836.131    4838.9525 
   95650    288.00296   -400.53248    276901.55   -76500.662     7316.843   -83817.505    4841.7086 
   95700    284.66898   -342.43323       276576   -76491.855    7232.1419   -83723.997    4837.2894 
   95750    290.27232   -345.86412    276291.23   -76497.338    7374.4972   -83871.835    4834.9484 
   95800    294.21768   -838.05938    276554.48   -76489.637    7474.7309   -83964.367    4836.9898 
   95850    290.47314   -670.03168    276879.27     -76470.4     7379.599   -83849.999    4844.4743 
   95900    291.65617   -538.66748     277264.2   -76477.684    7409.6544   -83887.339    4851.6228 
   95950     291.9437   -537.68311    277341.04   -76459.232    7416.9593   -83876.192    4853.4755 
   96000    285.32301   -635.86475    277144.09   -76449.131    7248.7579   -83697.888    4854.8415 
   96050    288.99547   -390.48108    276694.36   -76441.251    7342.0582    -83783.31    4852.4022 
   96100    287.92826   -307.91947    276291.94   -76519.635    7314.9453    -83834.58    4850.8206 
   96150    288.35955   -217.48831    276246.52   -76536.733    7325.9024   -83862.635    4856.9974 
   96200    288.40435   -653.06401     276885.3   -76521.137    7327.0405   -83848.178    4868.8026 
   96250      284.106   -751.31381    277469.77   -76538.033    7217.8391   -83755.872     4876.847 
   96300    289.13404   -474.56956    277119.62   -76507.376    7345.5787   -83852.955    4874.8771 
   96350     288.2116   -334.91028    276432.04   -76539.463    7322.1437   -83861.607    4874.2702 
   96400    288.15259   -305.32575    276458.76   -76571.603    7320.6446   -83892.248    4877.9811 
   96450    288.58411   -767.69137    276880.66   -76530.068    7331.6074   -83861.676    4887.5802 
   96500    291.02263   -172.89383    276762.83   -76518.033    7393.5591   -83911.592    4890.2144 
   96550    291.46361   -219.52026    276689.52   -76539.962    7404.7624   -83944.724    4893.7045 
   96600    290.80932   -548.19069     276791.8    -76599.25    7388.1399    -83987.39    4899.5614 
   96650    287.43789   -818.40634    276913.34   -76616.451    7302.4873   -83918.938    4905.9774 
   96700    281.04008   -225.35444    276693.04   -76620.584    7139.9481   -83760.533    4904.0582 
   96750    282.14591   -330.60067    276614.94   -76654.943     7168.042   -83822.985    4909.3328 
   96800    282.24397   -332.17714    276693.31   -76675.064    7170.5335   -83845.598    4915.5099 
   96850    286.49743   -346.69886    276698.09   -76666.423    7278.5943   -83945.017    4917.1201 
   96900    284.45609   -371.77199    276534.71   -76643.612    7226.7332   -83870.346    4916.8539 
   96950    286.14804   -760.48737    276535.71   -76639.046     7269.718   -83908.764    4918.3251 
   97000    288.34682   -366.63181    276403.27    -76569.54     7325.579   -83895.119    4921.0212 
   97050    286.08363   -389.33353    276461.19   -76567.625    7268.0816   -83835.707     4925.555 
   97100    290.98642   -506.29041    276815.99   -76578.787    7392.6391   -83971.426    4932.4594 
   97150    285.68126   -538.63415    276861.91   -76607.652    7257.8593   -83865.511    4939.9941 
   97200    289.77898   -191.86388    276667.53   -76589.799    7361.9636   -83951.762    4943.9386 
   97250    284.42659   -426.97571    276522.97    -76584.72    7225.9839   -83810.704    4949.1429 
   97300    287.54748   -222.93909    276821.36   -76531.035    7305.2713   -83836.306     4952.607 
   97350    292.24372   -579.64586     277400.9   -76493.541    7424.5815   -83918.123    4958.7089 
   97400    285.21882   -702.76961    277273.73   -76463.875    7246.1108   -83709.986    4958.3851 
   97450    286.63775   -343.32743    276802.14   -76459.912    7282.1592   -83742.072    4952.3779 
   97500    285.33099   -259.64971    276432.51   -76473.367    7248.9604   -83722.327    4947.2041 
   97550    289.29611   -412.56131    276329.96    -76477.43    7349.6961   -83827.126    4948.8577 
   97600    292.76764   -609.12087    276779.85   -76451.955     7437.892   -83889.847    4958.2316 
   97650     291.1201   -678.92716    277332.95    -76430.05    7396.0355   -83826.086    4968.9796 
   97700    289.88138   -658.22778    277292.71   -76430.164    7364.5651   -83794.729    4971.5842 
   97750    288.01633   -603.59779    276823.01   -76436.561    7317.1829   -83753.744    4968.8154 
   97800     287.1515   -422.14501    276545.59   -76457.709    7295.2114   -83752.921    4966.9279 
   97850    294.95948   -876.77311    276811.69   -76482.332    7493.5766   -83975.909    4975.1437 
   97900     291.3135   -931.80406     277173.2   -76465.769    7400.9488   -83866.718    4986.5555 
   97950    291.36652   -443.66422    277145.54   -76453.965    7402.2958   -83856.261    4990.5196 
   98000    285.80471    -474.6333    277049.74   -76431.569    7260.9955   -83692.565    4993.5067 
   98050    289.94056   -561.26492    276989.73   -76446.998    7366.0688   -83813.066     4995.292 
   98100    286.25111   -506.01152    276739.19   -76440.374    7272.3366    -83712.71     4994.681 
   98150    291.49308   -139.18173    276607.52   -76471.072    7405.5111   -83876.583    4997.7536 
   98200    289.66588   -618.70475     276794.6   -76436.074    7359.0902   -83795.165    5002.9372 
   98250     288.0587   -655.32715    276916.28   -76378.289    7318.2592   -83696.548    5004.2679 
   98300    289.02445   -643.90203    277016.14   -76371.262    7342.7944   -83714.057    5006.3259 
   98350    290.61995   -512.29214    276947.23   -76320.517    7383.3288   -83703.846    5007.3144 
   98400    288.40589   -594.70379     276665.6   -76354.816    7327.0798   -83681.896    5004.9375 
   98450    293.59877   -642.73286    276572.83   -76386.594    7459.0072   -83845.601    5005.9922 
   98500    289.78894   -227.85154    276737.58   -76435.638    7362.2166   -83797.855    5010.8003 
   98550    292.54534   -353.61709     277057.1   -76429.248    7432.2444   -83861.492    5018.7779 
   98600    288.32235   -693.11508    277361.89   -76415.896    7324.9573   -83740.853    5023.0995 
   98650    293.06642   -611.74519    277179.21    -76371.91    7445.4826   -83817.392    5020.2907 
   98700    293.29912   -491.69687    276793.67   -76384.431    7451.3945   -83835.825     5014.535 
   98750     296.1873   -240.78732       276591   -76356.053    7524.7698   -83880.823    5012.8086 
   98800     291.7878   -272.44116    276766.08   -76375.227    7412.9985   -83788.226    5017.2216 
   98850    292.05962   -760.53905    277033.59   -76403.007    7419.9043   -83822.912    5024.2921 
   98900     290.8243   -596.03262    277225.77    -76400.53    7388.5205    -83789.05    5028.6026 
   98950    292.48909   -746.69956    277072.31   -76386.596    7430.8153   -83817.412    5028.3773 
   99000    291.08346   -422.91501    276636.02   -76401.031    7395.1045   -83796.136    5025.9799 
   99050    289.95503   -321.22088    276574.28   -76454.058    7366.4362   -83820.494    5027.8283 
   99100    293.28856   -360.33298    276681.73   -76404.373    7451.1261   -83855.499    5032.7361 
   99150    287.89468   -559.56584     277020.9   -76465.177    7314.0922    -83779.27    5040.6238 
   99200    294.01703   -920.41511    277122.98   -76527.321    7469.6333   -83996.954    5043.6441 
   99250    288.96273   -574.47612    276889.35    -76562.29    7341.2264   -83903.517    5044.1855 
   99300    287.61757   -418.27014    276639.83    -76575.92    7307.0522   -83882.972     5043.779 
   99350    282.69738   -300.25882     276686.7   -76614.229    7182.0525   -83796.281      5044.79 
   99400    281.43265   -672.93112    276802.63   -76647.108    7149.9214   -83797.029     5050.832 
   99450    287.20683   -560.17493    276687.16   -76643.181     7296.617   -83939.798    5055.1719 
   99500    288.30515   -532.66101    276413.59   -76649.393    7324.5203   -83973.914    5055.8111 
   99550    290.69277   -363.52286       276169   -76681.168    7385.1788   -84066.346    5054.5009 
   99600    287.77226    -399.6059    276516.77   -76694.425    7310.9821   -84005.407    5062.7567 
   99650    287.93918   -635.97461    277127.14   -76623.591    7315.2227   -83938.814    5075.8059 
   99700     280.7367   -638.64737    277236.84   -76609.008    7132.2405   -83741.249    5083.3271 
   99750    287.59993   -521.05881    276757.51   -76585.212     7306.604   -83891.816    5084.2288 
   99800    285.45196    -289.2733    276156.86    -76611.36    7252.0338   -83863.394    5082.8838 
   99850    284.71137   -499.03459     276216.4   -76652.734    7233.2189   -83885.953    5086.9742 
   99900     286.7827   -602.15375    276744.79   -76622.332    7285.8418   -83908.174    5093.6717 
   99950    286.06677   -785.03063    277202.33   -76592.929    7267.6534   -83860.583     5102.201 
  100000    289.04183   -738.25993    277093.25   -76592.393     7343.236   -83935.629    5102.2702 
Loop time of 250.032 on 6 procs for 100000 steps with 8524 atoms

Performance: 345.556 ns/day, 0.069 hours/ns, 399.949 timesteps/s
99.4% CPU use with 6 MPI tasks x no OpenMP threads

MPI task timing breakdown:
Section |  min time  |  avg time  |  max time  |%varavg| %total
---------------------------------------------------------------
Pair    | 71.772     | 128.73     | 197.28     | 450.2 | 51.48
Neigh   | 30.721     | 36.166     | 39.984     |  65.4 | 14.46
Comm    | 6.4912     | 78.879     | 141.31     | 615.3 | 31.55
Output  | 0.13215    | 0.13424    | 0.14189    |   0.9 |  0.05
Modify  | 5.0324     | 5.094      | 5.1586     |   1.8 |  2.04
Other   |            | 1.031      |            |       |  0.41

Nlocal:        1420.67 ave        1453 max        1385 min
Histogram: 1 0 1 0 1 0 1 1 0 1
Nghost:        2000.83 ave        2045 max        1964 min
Histogram: 1 0 2 1 0 0 0 0 1 1
Neighs:        0.00000 ave           0 max           0 min
Histogram: 6 0 0 0 0 0 0 0 0 0
FullNghs:      39519.3 ave       39868 max       39109 min
Histogram: 1 1 0 0 1 0 0 1 1 1

Total # of neighbors = 237116
Ave neighs/atom = 27.817457
Neighbor list builds = 20933
Dangerous builds = 0

# Create data file for import to other simulations
#
write_data data.${NAME}
write_data data.coexist_289K_-500atm_ML
System init for write_data ...

Total wall time: 0:04:10
