
# Set production fixes - Nose/Hoover
#
fix                 2 all nph iso ${PRES} ${PRES} ${PCOUPL}
fix                 2 all nph iso -500 ${PRES} ${PCOUPL}
fix                 2 all nph iso -500 -500 ${PCOUPL}
fix                 2 all nph iso -500 -500 10000.0
fix                 3 all temp/csvr ${TEMP} ${TEMP} ${TCOUPL} 837492
fix                 3 all temp/csvr 289 ${TEMP} ${TCOUPL} 837492
fix                 3 all temp/csvr 289 289 ${TCOUPL} 837492
fix                 3 all temp/csvr 289 289 5000.0 837492

# Define Order parameter
#
compute             2 all orientorder/atom nnn NULL cutoff 3.5
thermo              200
thermo_style        custom step temp press vol etotal ke pe c_1[4]

# Run 1ns simulation
dump		    1 all custom 400 prod.${NAME}.dump id type x y z vx vy vz c_2[*]
dump		    1 all custom 400 prod.ice_289K_-500atm_ML.dump id type x y z vx vy vz c_2[*]
run                 200000
Neighbor list info ...
  update every 1 steps, delay 0 steps, check yes
  max neighbors/atom: 2000, page size: 100000
  master list distance cutoff = 6.0032907
  ghost atom cutoff = 6.0032907
  binsize = 3.0016454, bins = 20 17 17
  2 neighbor lists, perpetual/occasional/extra = 1 1 0
  (1) pair sw, perpetual
      attributes: full, newton on
      pair build: full/bin/atomonly
      stencil: full/bin/3d
      bin: standard
  (2) compute orientorder/atom, occasional, copy from (1)
      attributes: full, newton on
      pair build: copy
      stencil: none
      bin: none
Per MPI rank memory allocation (min/avg/max) = 5.819 | 5.819 | 5.819 Mbytes
Step Temp Press Volume TotEng KinEng PotEng c_1[4] 
       0    289.95837   -532.81426    149192.89   -47620.228    3981.8799   -51602.108   0.14656852 
     200     288.9243     -485.155    149196.52   -47609.201    3967.6795    -51576.88   0.14508276 
     400    291.50759   -501.91199    149205.69   -47603.949    4003.1547   -51607.103   0.14945261 
     600    285.25598   -520.02237    149213.41   -47641.376     3917.304    -51558.68   0.14782227 
     800    289.02326   -509.12635    149187.58    -47656.75    3969.0384   -51625.789   0.14510291 
    1000    284.18273   -509.96323     149169.5   -47669.127    3902.5655   -51571.692   0.14576294 
    1200    291.22562   -485.07876     149134.6   -47694.675    3999.2826   -51693.958   0.14302396 
    1400    287.87751   -478.80982    149136.69   -47684.559    3953.3043   -51637.863   0.14426153 
    1600    290.11648    -525.1215    149213.68    -47687.84    3984.0512   -51671.892   0.14434312 
    1800    287.22251    -521.6699    149185.72   -47692.794    3944.3095   -51637.104   0.14006901 
    2000    287.49356   -437.97186    149095.24   -47647.856    3948.0317   -51595.888   0.14195409 
    2200    290.55699   -486.08412    149152.96   -47616.809    3990.1005    -51606.91   0.14626335 
    2400    286.97645   -591.09426    149305.21   -47633.274    3940.9305   -51574.205   0.14728625 
    2600    288.69888   -508.14381     149192.1   -47678.504    3964.5839   -51643.088   0.14364433 
    2800    287.49262   -368.79624    149005.51   -47696.548    3948.0188   -51644.567   0.14054461 
    3000    285.11053    -553.9893     149222.7    -47707.42    3915.3066   -51622.726   0.14655432 
    3200    289.43266   -632.66925    149384.49   -47650.577    3974.6605   -51625.238   0.14638932 
    3400    285.88965   -444.80229    149082.98   -47691.094    3926.0058     -51617.1   0.14366075 
    3600    279.32505   -329.48333    148908.34   -47719.527    3835.8569   -51555.384    0.1488132 
    3800      280.758   -580.60489    149286.54   -47642.846     3855.535   -51498.381   0.14882921 
    4000    288.76708   -701.25175    149460.13   -47633.963    3965.5205   -51599.483   0.14559662 
    4200    288.26807   -342.12657    148975.59   -47653.711    3958.6677   -51612.379   0.14462763 
    4400    287.67853   -236.26003    148862.16   -47640.928    3950.5718     -51591.5   0.14372722 
    4600    291.38157   -667.15488    149421.44   -47617.476    4001.4241     -51618.9   0.14817539 
    4800    284.97756   -711.36975    149491.53   -47605.649    3913.4805    -51519.13   0.14633728 
    5000    290.85973    -266.3467    148918.78   -47590.265     3994.258   -51584.523   0.14839262 
    5200    291.15202    -301.0455    148967.57   -47594.096    3998.2718   -51592.368   0.14556818 
    5400    288.54683   -761.36571    149566.22    -47550.01    3962.4958   -51512.506   0.14736913 
    5600    290.77655   -613.01475     149429.7   -47535.933    3993.1157   -51529.049   0.14550772 
    5800    297.23394   -257.61719    148906.27   -47530.777    4081.7925   -51612.569   0.14517773 
    6000    293.43972   -379.91826    149142.67   -47515.905    4029.6879   -51545.593   0.14092711 
    6200    292.45565   -739.95993    149611.09   -47505.685     4016.174   -51521.859   0.14745946 
    6400    293.61466   -533.82761    149288.05   -47476.817    4032.0904   -51508.907   0.14977977 
    6600    294.08947   -243.59855    148866.06   -47519.755    4038.6107   -51558.365   0.14816563 
    6800    286.68339   -512.77116    149220.44   -47557.544    3936.9061    -51494.45   0.14957293 
    7000    289.80437   -778.47138    149573.81   -47558.165    3979.7652    -51537.93   0.15145048 
    7200    293.62089   -478.35051    149172.53   -47510.249    4032.1759   -51542.425   0.14798095 
    7400    294.22051   -216.06044    148891.81   -47496.674    4040.4102   -51537.084   0.14014644 
    7600    288.25781   -598.85069    149339.29   -47527.575    3958.5269   -51486.102   0.14599818 
    7800     286.7663   -710.20773    149554.42   -47552.514    3938.0445   -51490.558      0.15055 
    8000    292.02241   -380.49578    149085.24   -47524.236    4010.2246   -51534.461   0.14697363 
    8200    294.51022   -245.84412    148929.53   -47562.712    4044.3887   -51607.101   0.13958293 
    8400    289.35047   -636.68828    149425.74    -47584.25    3973.5319   -51557.782   0.14327182 
    8600     289.8472   -710.94931    149512.87   -47542.568    3980.3534   -51522.921   0.14683143 
    8800    287.72685   -329.22999       149019   -47476.251    3951.2353   -51427.486   0.14991848 
    9000    291.83085   -356.11441    149044.84   -47456.183     4007.594   -51463.777   0.15092454 
    9200    288.66937   -718.82492    149533.31   -47437.292    3964.1787   -51401.471    0.1516939 
    9400    295.13552   -592.44064    149429.72   -47488.395    4052.9756    -51541.37   0.14026305 
    9600     295.0972   -285.72896    148990.67   -47481.479    4052.4494   -51533.929   0.14232235 
    9800    294.88122   -404.90283    149154.83   -47498.507    4049.4834    -51547.99   0.14628668 
   10000    295.83624   -684.03171    149538.31   -47491.306    4062.5983   -51553.904   0.14564054 
   10200    296.13889   -537.48138    149317.95   -47485.202    4066.7546   -51551.956    0.1454259 
   10400    295.74297   -311.40599    149003.69   -47473.707    4061.3175   -51535.024   0.14366947 
   10600    290.63458    -507.0679    149279.59   -47453.918    3991.1661   -51445.084   0.14801771 
   10800    296.92307   -663.30869    149506.12   -47484.201    4077.5234   -51561.724   0.14684362 
   11000    290.89064   -476.63612    149171.37   -47527.647    3994.6824    -51522.33   0.14611553 
   11200    290.58991   -324.51433    148989.46   -47545.979    3990.5527   -51536.532   0.14242557 
   11400    291.79652   -566.69609    149295.98    -47570.82    4007.1225   -51577.943   0.13978677 
   11600    293.65009   -635.95767    149412.87   -47540.962    4032.5769   -51573.539   0.14210945 
   11800     288.5009   -435.72568    149109.25   -47615.924    3961.8651   -51577.789   0.14670902 
   12000    292.45649   -321.02918    149011.72   -47617.112    4016.1857   -51633.297   0.14200211 
   12200    291.53876   -571.37168    149303.73    -47593.81    4003.5828   -51597.393   0.14596016 
   12400    292.21762   -619.05855    149384.03   -47561.416    4012.9053   -51574.321   0.14406962 
   12600    288.43075   -409.77292    149104.14   -47574.441    3960.9017   -51535.343   0.14451886 
   12800    290.63969   -400.36855    149075.34    -47585.91    3991.2363   -51577.146   0.14456325 
   13000    288.65903   -589.34508     149337.9   -47563.893    3964.0367   -51527.929   0.14704669 
   13200    291.52757   -621.49808    149340.95   -47536.118    4003.4291   -51539.548   0.14639099 
   13400    291.51302   -442.65124    149094.93   -47556.662    4003.2293   -51559.891   0.14362818 
   13600    291.90681   -463.70623    149119.66   -47547.909    4008.6372   -51556.546   0.14561005 
   13800    289.23014   -550.81893    149330.68   -47540.351    3971.8794   -51512.231   0.14667457 
   14000    287.03151   -558.96457    149289.64   -47560.349    3941.6866   -51502.036   0.14892557 
   14200     289.9623   -462.14879    149100.17   -47588.409     3981.934   -51570.343   0.14883484 
   14400    283.84469   -484.69857    149156.36   -47612.816    3897.9233    -51510.74   0.15132697 
   14600     294.5186   -603.44211    149335.41   -47608.033    4044.5038   -51652.536   0.14508425 
   14800    289.20119   -542.91424    149243.26   -47591.131     3971.482   -51562.613   0.14846585 
   15000    286.60914    -457.0376    149083.73   -47643.936    3935.8863   -51579.822   0.14481746 
   15200    286.44046   -472.51689    149166.93   -47697.322      3933.57   -51630.892   0.14240269 
   15400    283.41867   -605.93577    149304.35   -47712.752     3892.073   -51604.825   0.14701223 
   15600    282.01569   -504.35819    149174.16   -47748.632    3872.8064   -51621.438   0.14240315 
   15800    287.81847   -382.16358    149067.44   -47702.142    3952.4936   -51654.636    0.1408294 
   16000    283.59065   -562.54587       149250   -47687.342    3894.4346   -51581.776   0.14501517 
   16200    286.09429   -553.76094    149314.88   -47634.828    3928.8161   -51563.644   0.14134353 
   16400    288.11942   -454.82383    149168.95    -47633.65    3956.6264   -51590.277   0.14541189 
   16600    284.76132   -453.74416    149176.64   -47650.673    3910.5111   -51561.184   0.14614891 
   16800    293.03813   -515.30093    149300.43   -47604.865     4024.173   -51629.037   0.14041494 
   17000    292.95394   -472.34738    149279.35    -47628.64    4023.0169   -51651.657   0.13462962 
   17200    289.79337   -433.53486    149178.75   -47612.198     3979.614   -51591.812    0.1390425 
   17400    284.38481   -523.37383    149225.34   -47657.115    3905.3405   -51562.455   0.14374465 
   17600    283.79982   -559.94795    149285.46   -47694.758    3897.3072   -51592.065   0.14580041 
   17800    285.03716   -508.15767    149196.26   -47713.692     3914.299   -51627.991   0.14379909 
   18000    285.65611   -493.61416    149156.43   -47747.817    3922.7988   -51670.616   0.14367958 
   18200    286.28096   -514.63153    149212.04   -47772.127    3931.3796   -51703.506   0.13994625 
   18400    286.82453   -490.95053     149189.1   -47792.279    3938.8443   -51731.123   0.13806281 
   18600    284.58528   -467.66286    149133.41   -47749.205    3908.0935   -51657.299   0.14177892 
   18800    291.67198    -458.7768    149200.77    -47684.74    4005.4123   -51690.152   0.14115361 
   19000     285.2867   -555.70557    149294.67    -47711.55    3917.7258   -51629.276   0.14358569 
   19200    286.65044   -467.92805    149193.93   -47686.116    3936.4535   -51622.569   0.14238605 
   19400     284.1036   -421.82969     149113.6   -47676.535    3901.4789   -51578.014    0.1399484 
   19600    285.10048   -551.97876    149296.14   -47704.676    3915.1685   -51619.845   0.14237922 
   19800    289.55633   -573.33317    149357.61   -47701.239    3976.3589   -51677.598   0.13884004 
   20000    285.93097   -414.44492    149093.51   -47692.291    3926.5733   -51618.864   0.13799582 
   20200    285.96638   -388.60583    149041.47   -47719.753    3927.0596   -51646.813   0.14263776 
   20400    284.43631   -580.25557    149342.66    -47695.68    3906.0477   -51601.728    0.1418729 
   20600     288.2022   -587.68451    149342.97   -47692.004    3957.7632   -51649.767   0.13557216 
   20800    287.02563   -369.00799    149011.76   -47696.536    3941.6058   -51638.141   0.13757875 
   21000    283.72441   -456.51878     149115.6   -47690.646    3896.2716   -51586.917    0.1454758 
   21200    286.84313    -676.8358    149465.59   -47677.369    3939.0996   -51616.469   0.14369915 
   21400    290.13087   -528.82811    149258.54   -47675.115    3984.2489   -51659.363    0.1400194 
   21600    288.97568   -275.56034    148915.11   -47633.057    3968.3851   -51601.442   0.14075633 
   21800    291.33695   -518.78028    149248.01   -47583.188    4000.8115       -51584   0.14494609 
   22000    291.54898   -792.59531    149558.96   -47585.887    4003.7231    -51589.61   0.14830191 
   22200    292.07636   -379.89661    149114.68   -47547.801    4010.9654   -51558.767   0.14543178 
   22400    287.62982   -238.31113    148914.44   -47526.455    3949.9029   -51476.358    0.1499257 
   22600    291.15078   -641.67194     149451.1   -47530.861    3998.2548   -51529.116   0.14831147 
   22800    287.86946   -713.22112    149549.86   -47564.807    3953.1938   -51518.001   0.14445399 
   23000    291.02862   -254.82571    148937.17   -47587.381    3996.5772   -51583.958   0.14638412 
   23200    289.24932   -318.11347    148971.88   -47581.866    3972.1428   -51554.009   0.15072356 
   23400     287.6411   -776.07086    149604.67   -47586.295    3950.0579   -51536.353   0.15017181 
   23600    285.06378   -692.32829    149456.28   -47602.892    3914.6645   -51517.557   0.14771742 
   23800    290.91178   -155.02415    148823.84   -47547.105    3994.9727   -51542.078   0.14242286 
   24000    293.63603   -402.90153    149105.86   -47584.106    4032.3837    -51616.49   0.14149515 
   24200    292.20496   -804.48031    149647.84   -47562.072    4012.7314   -51574.804   0.14622428 
   24400    289.23823   -539.35853    149269.71   -47569.787    3971.9905   -51541.777   0.14549341 
   24600    289.90316   -207.84122    148806.92   -47572.719    3981.1218    -51553.84   0.14700719 
   24800    290.49405   -530.31769     149280.2     -47494.1    3989.2362   -51483.336   0.14454278 
   25000    298.70366   -790.74462    149707.42   -47489.092    4101.9754   -51591.067   0.14180634 
   25200    299.24579   -408.27974    149163.39   -47517.482    4109.4202   -51626.903   0.14152643 
   25400    287.82402   -187.13714    148829.45   -47581.932    3952.5698   -51534.502   0.14421809 
   25600    288.89732   -644.04717    149405.62   -47602.453     3967.309   -51569.762   0.14795037 
   25800    290.23845   -792.44134    149625.74   -47576.327    3985.7262   -51562.053   0.14546812 
   26000    295.05935    -373.6279    149048.24   -47559.291    4051.9297    -51611.22   0.14386699 
   26200    289.51198   -282.05559    148919.13   -47606.571    3975.7499   -51582.321   0.14506712 
   26400    286.12249   -644.42235    149431.64   -47625.789    3929.2034   -51554.992   0.14590302 
   26600    285.56958   -689.44865    149451.72   -47634.183    3921.6105   -51555.793   0.14990214 
   26800    288.79893   -348.06684    148973.53   -47642.702    3965.9579    -51608.66   0.14632933 
   27000     287.2597   -379.86779    149010.35   -47643.176    3944.8202   -51587.996   0.14706623 
   27200    287.36584   -645.24774    149396.22   -47633.427    3946.2778   -51579.705   0.14636576 
   27400    287.53335   -540.58298    149310.07   -47598.913    3948.5782   -51547.492   0.14414687 
   27600    288.09332   -343.99495    149014.77   -47606.213     3956.268   -51562.481   0.14645964 
   27800    289.63538   -434.82439    149154.11    -47601.58    3977.4444   -51579.025     0.145109 
   28000    290.50235   -653.97627    149406.11   -47587.448    3989.3503   -51576.798   0.14504218 
   28200    291.23675   -527.40476    149221.42   -47608.119    3999.4355   -51607.555   0.14554437 
   28400    285.66842   -401.21657    149037.71   -47604.431    3922.9678   -51527.399   0.14689307 
   28600    287.15188    -529.6639     149227.5   -47623.768    3943.3396   -51567.107   0.14636179 
   28800    288.87726   -595.56819    149319.14   -47634.178    3967.0335   -51601.212   0.14564381 
   29000    289.61555   -442.93127    149123.05   -47671.281    3977.1722   -51648.453   0.14373799 
   29200    290.27623   -389.26224    149055.07   -47707.351     3986.245   -51693.596   0.14193994 
   29400    289.31896   -558.05833    149247.96   -47706.636    3973.0993   -51679.735   0.13940253 
   29600    279.01977    -570.0795    149274.54   -47665.638    3831.6647   -51497.303   0.14656596 
   29800    289.53557    -408.6042    149090.34   -47590.694    3976.0738   -51566.768   0.14712989 
   30000    291.84845   -435.50543    149127.37   -47580.264    4007.8356     -51588.1   0.14463293 
   30200    287.40969   -596.15629    149323.11   -47587.962      3946.88   -51534.842    0.1459002 
   30400    288.89882    -551.5723    149265.58   -47640.306    3967.3296   -51607.636   0.14465552 
   30600    287.91035   -385.56379    149052.84   -47589.275    3953.7554   -51543.031   0.15157498 
   30800    289.14926   -453.70341    149148.92   -47556.097    3970.7688   -51526.866   0.14922554 
   31000    291.05075    -621.1983    149351.64   -47541.134    3996.8812   -51538.016    0.1499302 
   31200    288.80111   -496.42716    149233.35   -47544.492    3965.9878    -51510.48    0.1504699 
   31400    284.62592   -382.42842     149067.1    -47543.06    3908.6516   -51451.711   0.15482607 
   31600    289.51226   -525.22916    149213.81   -47605.316    3975.7537   -51581.069   0.15125248 
   31800    287.98555   -650.54665    149365.72   -47575.901     3954.788   -51530.689   0.15428891 
   32000    285.47999   -475.69358    149201.99   -47547.008    3920.3802   -51467.388   0.14990947 
   32200    291.16003   -378.49909    149084.04   -47582.406    3998.3818   -51580.788   0.14344969 
   32400    294.11697   -550.20574     149272.3   -47576.018    4038.9883   -51615.007    0.1450616 
   32600    288.59109   -637.33948    149340.52   -47560.911    3963.1037   -51524.015   0.15248041 
   32800    290.19781   -485.59682    149126.56   -47559.511    3985.1681   -51544.679   0.15051331 
   33000    288.06306   -372.57038    149059.97   -47548.904    3955.8525   -51504.756   0.14842422 
   33200    288.39314   -555.44428    149345.38   -47541.472    3960.3854   -51501.858   0.14447245 
   33400    295.45806   -555.75446    149402.36   -47503.432    4057.4049   -51560.837   0.14431924 
   33600    294.74953   -370.38003    149119.44   -47437.375     4047.675    -51485.05   0.14619573 
   33800     293.0661   -360.94708    149128.22   -47473.945    4024.5572   -51498.502   0.14405826 
   34000    295.03481   -647.79468    149418.51   -47494.142    4051.5927   -51545.734   0.14833367 
   34200    289.35196    -605.7358     149332.9   -47524.409    3973.5524   -51497.962   0.15086555 
   34400    290.49225   -286.48049     148997.4    -47592.76    3989.2115   -51581.972   0.14179691 
   34600    289.98781   -441.19722    149117.46   -47566.483    3982.2842   -51548.767   0.14689007 
   34800    292.37046   -654.11075    149450.72   -47603.945    4015.0042   -51618.949   0.14368361 
   35000     288.2332   -567.48422    149270.21    -47630.15    3958.1889   -51588.339   0.14994364 
   35200    289.76628   -317.84786    148940.14   -47619.814     3979.242   -51599.056   0.14974864 
   35400     296.8127    -461.4503    149190.88   -47581.302    4076.0077    -51657.31   0.14591193 
   35600    293.95092   -696.87372    149503.28   -47571.335     4036.708   -51608.043   0.14950681 
   35800    290.52491   -472.10663    149162.95   -47574.045      3989.66   -51563.705   0.14888849 
   36000    291.01053   -301.40036    148926.81   -47577.926    3996.3289   -51574.254   0.15257008 
   36200    291.94173   -635.39508    149323.69   -47590.696    4009.1167   -51599.812   0.15311768 
   36400    285.36995   -704.30768    149462.21    -47614.95     3918.869   -51533.819   0.15253073 
   36600    289.56111   -355.37453    149010.38   -47593.747    3976.4246   -51570.172   0.14928026 
   36800    284.46511   -332.28177    148921.57   -47638.226    3906.4433    -51544.67   0.14846384 
   37000    287.80992   -680.89698    149398.14    -47624.16    3952.3761   -51576.536   0.14913196 
   37200    288.91628   -660.18031     149402.5    -47583.68    3967.5694   -51551.249   0.15339162 
   37400    290.06286    -292.1892    148940.88   -47579.906    3983.3149   -51563.221   0.14729103 
   37600    286.98714   -416.38045    149068.98   -47606.709    3941.0773   -51547.787   0.14527621 
   37800    291.66518   -682.98128    149510.54   -47569.084    4005.3188   -51574.403   0.14173061 
   38000    288.40513   -571.70753    149320.69   -47623.071      3960.55   -51583.621   0.14052621 
   38200    286.55262   -230.77558    148898.18   -47619.982    3935.1101   -51555.092   0.14193458 
   38400    294.22843    -456.5615    149187.52   -47586.123    4040.5189   -51626.642   0.14264811 
   38600    288.47684   -779.06322    149597.42   -47579.354    3961.5347   -51540.888   0.14941342 
   38800    289.66819   -513.58483     149256.9   -47633.628    3977.8951   -51611.523   0.14278014 
   39000    289.56715   -222.34592    148901.12   -47663.434    3976.5075   -51639.942    0.1376096 
   39200    283.98003   -573.67406    149293.73   -47680.488    3899.7818   -51580.269   0.14831621 
   39400    281.38898   -748.93285    149537.12   -47667.863    3864.2001   -51532.063   0.15188892 
   39600     287.9988   -414.39333    149056.66   -47743.296      3954.97   -51698.266   0.14625189 
   39800    288.57127   -237.20219    148840.86   -47733.142    3962.8315   -51695.974   0.14504856 
   40000    282.53279   -613.83415    149346.21   -47740.606    3879.9075   -51620.514   0.14878796 
   40200    285.75355   -737.66634     149506.6   -47713.969    3924.1369   -51638.106   0.15059554 
   40400    288.13275   -339.51207    148966.49   -47712.594    3956.8094   -51669.404   0.14354596 
   40600     285.7743   -257.83829    148885.48   -47741.818    3924.4218   -51666.239   0.14254273 
   40800    286.86317   -700.48099    149482.46   -47756.472    3939.3748   -51695.847   0.14537103 
   41000    286.72868   -707.06576    149481.71   -47710.657    3937.5279   -51648.185    0.1484264 
   41200     287.6172   -221.51484    148827.08   -47747.017    3949.7297   -51696.747    0.1416534 
   41400    283.29065   -298.68652    148942.52   -47711.676    3890.3149   -51601.991    0.1418286 
   41600    283.93897   -862.94691    149681.02   -47699.753     3899.218   -51598.971   0.14889418 
   41800    286.26335   -670.98079    149442.34    -47699.71    3931.1378   -51630.848   0.14494582 
   42000    290.49859   -53.060473    148643.98    -47677.78    3989.2986   -51667.079   0.13535947 
   42200    285.72441   -343.80653    149067.28   -47703.404    3923.7367    -51627.14   0.13441984 
   42400    281.78456   -996.89826    149821.57   -47746.863    3869.6323   -51616.495   0.14701363 
   42600    283.68414   -560.56932    149169.96   -47778.709    3895.7186   -51674.428   0.14126675 
   42800    283.69867    40.189301    148466.92   -47782.714    3895.9181   -51678.632   0.13956406 
   43000      284.355   -586.27542     149239.1   -47734.989    3904.9312   -51639.921   0.14349457 
   43200    286.56266   -989.39886    149789.44    -47730.48    3935.2481   -51665.728   0.15107564 
   43400    283.33778   -356.96802    148977.26   -47728.692    3890.9622   -51619.654    0.1455942 
   43600    286.55972   -133.62885    148656.95   -47726.841    3935.2077   -51662.048   0.14205459 
   43800    288.18834     -697.645    149443.01   -47695.781    3957.5729   -51653.354    0.1509495 
   44000    283.32356    -830.8225    149620.41   -47711.187    3890.7669   -51601.954   0.15207118 
   44200    287.35773   -280.07864    148921.44   -47760.517    3946.1665   -51706.683   0.14175201 
   44400    286.78487   -263.29363    148886.13   -47735.841    3938.2995    -51674.14   0.14082197 
   44600    283.53752   -710.93226    149485.57   -47669.562     3893.705   -51563.267   0.15352767 
   44800    284.55547   -670.49747    149442.39   -47634.087    3907.6841   -51541.771   0.15348305 
   45000    289.90229   -310.07896    148963.39   -47674.825    3981.1099   -51655.935   0.14356437 
   45200    288.63352   -408.67449    149048.41    -47695.38    3963.6864   -51659.066   0.14358671 
   45400    280.30428   -675.22492    149384.54    -47740.25    3849.3043   -51589.554   0.15352514 
   45600    290.15288   -561.64024    149225.69   -47730.457    3984.5511   -51715.008   0.14754843 
   45800    285.10041   -344.13805    148963.83   -47705.631    3915.1676   -51620.799   0.14221033 
   46000    285.23484   -465.76736    149192.25   -47702.634    3917.0136   -51619.648   0.14363718 
   46200    288.01785    -660.2865    149408.33   -47733.298    3955.2315    -51688.53   0.14325603 
   46400    281.06199   -481.86195    149140.76    -47717.76    3859.7096    -51577.47   0.14485638 
   46600    280.93723   -343.85395    148964.62   -47716.765    3857.9964   -51574.761   0.14014488 
   46800    288.65144   -556.33744    149284.41   -47680.236    3963.9324   -51644.168   0.14671273 
   47000    288.66416   -649.37924    149405.75   -47657.124    3964.1071   -51621.231   0.14657362 
   47200    291.31498   -347.42771    149083.91   -47629.871    4000.5097   -51630.381   0.14039328 
   47400    291.04716   -364.11996    149052.06   -47561.782    3996.8318   -51558.614   0.15213448 
   47600    292.85223   -607.90077    149405.55    -47533.61    4021.6202    -51555.23   0.15069743 
   47800    293.22179   -607.53807     149375.8   -47501.852    4026.6952   -51528.547   0.15035722 
   48000    292.33584   -331.92288    149019.35   -47508.754    4014.5287   -51523.283    0.1486272 
   48200    288.41632   -453.03976    149128.85   -47509.602    3960.7036   -51470.305   0.16001125 
   48400    290.01827   -703.23874    149473.68   -47487.428    3982.7025   -51470.131   0.16132436 
   48600    291.60351   -588.41769    149321.62   -47552.977     4004.472   -51557.449   0.15197139 
   48800    292.97277   -323.05371    148976.05   -47496.932    4023.2754   -51520.207   0.15417478 
   49000    291.39285   -440.04723     149186.1   -47473.361    4001.5791    -51474.94   0.15428066 
   49200    295.36695   -713.26879    149516.85   -47504.747    4056.1538     -51560.9   0.15231864 
   49400    289.38075   -509.62005    149244.39   -47516.524    3973.9477   -51490.472   0.15228276 
   49600    288.95056   -270.48714    148977.73   -47535.832    3968.0401   -51503.872   0.14828163 
   49800    287.10797   -500.64651    149305.13   -47514.274    3942.7366   -51457.011   0.14927889 
   50000    290.24239   -699.55741    149542.32   -47514.964    3985.7803   -51500.745   0.15181318 
   50200    283.50896   -475.64233    149153.43   -47554.228    3893.3129   -51447.541    0.1494296 
   50400    289.95907   -250.42655    148929.63   -47560.478    3981.8896   -51542.368   0.14570631 
   50600    288.90115   -634.96556    149391.16   -47579.066    3967.3615   -51546.428   0.15039596 
   50800    287.72587    -723.3566    149521.38   -47587.195    3951.2219   -51538.416   0.14737344 
   51000     295.0189   -324.94232    148998.01   -47527.693    4051.3742   -51579.067   0.14453703 
   51200    291.31065   -294.95931    148972.55   -47559.482    4000.4503   -51559.932   0.14126388 
   51400    293.90174   -741.66245    149571.96   -47517.956    4036.0326   -51553.989   0.15173923 
   51600    292.58717   -720.13198    149522.09   -47518.974    4017.9801   -51536.954   0.14905095 
   51800    295.04481   -169.19132    148824.19   -47520.275      4051.73   -51572.005     0.144896 
   52000    287.70278   -326.60276     149012.8   -47480.495    3950.9049   -51431.399   0.15525047 
   52200    293.89376   -896.93577    149809.08   -47445.492    4035.9231   -51481.416   0.15760759 
   52400    294.81465   -612.48824    149415.27    -47429.77    4048.5693   -51478.339   0.15086557 
   52600    294.71891    25.185218    148563.07   -47472.379    4047.2545   -51519.633   0.15349825 
   52800    288.94834   -481.19254    149146.09   -47490.684    3968.0096   -51458.694   0.16328243 
   53000    288.79701   -1012.9435    149975.04   -47485.904    3965.9314   -51451.835   0.16089995 
   53200    290.51903   -459.76614    149201.45   -47501.961    3989.5793    -51491.54   0.14794392 
   53400     289.9125    37.174736    148498.07    -47534.29    3981.2501    -51515.54   0.15141286 
   53600    289.93598    -592.6772    149323.28    -47557.34    3981.5725   -51538.913   0.15557485 
   53800    291.73601   -974.18456    149810.31   -47527.955    4006.2916   -51534.247   0.15297928 
   54000    289.29104   -355.31563    148995.69   -47525.116    3972.7158   -51497.832   0.15194994 
   54200    293.76834   -149.56209    148733.54   -47534.986    4034.2008   -51569.186   0.14856752 
   54400    289.81293   -687.17081    149416.45   -47557.259    3979.8827   -51537.141   0.15068371 
   54600    288.02215   -758.87579    149494.76   -47549.697    3955.2906   -51504.987   0.14868554 
   54800    288.52648   -333.83555    148937.38    -47497.31    3962.2164   -51459.527   0.15279672 
   55000     293.3304   -362.67196    148986.95   -47500.354    4028.1867    -51528.54   0.15133417 
   55200    289.67108   -668.78161    149412.41   -47526.153    3977.9348   -51504.088   0.15114542 
   55400     294.9436   -562.26776    149271.22   -47550.427    4050.3401   -51600.767   0.14842154 
   55600    291.01153   -295.37095    148923.23   -47589.238    3996.3426   -51585.581   0.14881236 
   55800    289.02267    -443.6575    149112.86   -47560.991    3969.0304   -51530.022   0.15056277 
   56000    289.98432   -667.13184    149418.89   -47543.549    3982.2363   -51525.785   0.15438692 
   56200    292.10456   -504.06698    149219.02   -47579.336    4011.3528   -51590.689   0.15003941 
   56400     293.1557   -316.61656    148987.01   -47583.981    4025.7875   -51609.769   0.15790583 
   56600    292.32725   -557.47551    149245.01   -47586.821    4014.4108   -51601.232   0.16250801 
   56800    289.27463   -582.10457    149401.55   -47534.918    3972.4904   -51507.409   0.15237287 
   57000    288.46005   -473.18494    149160.13   -47543.804    3961.3042   -51505.109   0.15700359 
   57200    287.00175   -361.07889    149030.08    -47575.22    3941.2779   -51516.498   0.16043932 
   57400    289.68232   -529.97082    149289.82   -47592.755    3978.0891   -51570.844   0.15306481 
   57600     284.1484   -653.75346    149374.44   -47580.223    3902.0941   -51482.317   0.15662672 
   57800    292.28805   -417.78696    149103.81   -47596.096    4013.8726   -51609.968   0.14974453 
   58000    288.49006   -404.63675    149056.62   -47609.977    3961.7162   -51571.693   0.14906186 
   58200    287.76661   -585.00762    149323.15   -47648.287    3951.7814   -51600.069   0.14499412 
   58400    286.70666   -546.17747     149309.8   -47640.034    3937.2256    -51577.26   0.14582064 
   58600      286.961   -367.86265    149050.71    -47620.75    3940.7183   -51561.469    0.1498521 
   58800    289.75526    -464.3169    149135.13   -47653.884    3979.0908   -51632.975   0.14641401 
   59000    288.62371   -660.60288    149408.85   -47675.313    3963.5516   -51638.865   0.14166206 
   59200    283.81747    -530.0515    149277.72   -47675.409    3897.5495   -51572.958   0.14438962 
   59400    287.49341   -347.57515    149049.48   -47620.915    3948.0297   -51568.945   0.14567314 
   59600    288.46939   -485.54297    149240.59   -47616.048    3961.4324    -51577.48   0.14604282 
   59800       285.65   -643.82282    149426.05   -47599.495    3922.7148    -51522.21   0.14929899 
   60000    287.71039   -448.11257    149180.43   -47588.295    3951.0094   -51539.304      0.14722 
   60200    294.21599   -315.32079    149052.35   -47563.528    4040.3482   -51603.877   0.14996637 
   60400    292.37118   -592.13833    149356.88   -47530.055    4015.0141   -51545.069   0.15287433 
   60600    288.06748   -657.51921    149453.79   -47568.915    3955.9131   -51524.829   0.15583685 
   60800    285.81112   -377.94975    149061.78   -47510.773    3924.9275   -51435.701   0.16226502 
   61000    297.60742   -315.22824    149058.56   -47552.599    4086.9213    -51639.52   0.15164243 
   61200    286.21964   -711.83116    149512.36   -47553.028    3930.5376   -51483.566   0.15713862 
   61400     294.4635   -627.37304    149417.33   -47551.928    4043.7471   -51595.675    0.1527771 
   61600    290.61335   -228.77319     148863.1   -47546.426    3990.8745     -51537.3   0.15612985 
   61800    292.61846   -391.54276    149091.57   -47547.649    4018.4099   -51566.059   0.15225756 
   62000    292.20736    -839.0444    149713.63   -47564.948    4012.7644   -51577.712   0.15001037 
   62200    285.93931   -604.49754    149330.88   -47578.597    3926.6879   -51505.284   0.15283139 
   62400    288.91878   -107.04881    148649.61   -47543.022    3967.6036   -51510.625   0.15059811 
   62600    285.85742   -453.73602    149167.15   -47561.998    3925.5633   -51487.562   0.14659957 
   62800    295.69291    -924.3283    149803.81   -47531.961    4060.6301   -51592.591   0.15094075 
   63000     293.7562   -462.37712    149165.79   -47504.638     4034.034   -51538.672   0.15129421 
   63200     295.1803   -80.143275       148649   -47512.646    4053.5906   -51566.237   0.15000854 
   63400    286.49764   -609.71862    149364.78   -47464.843    3934.3551   -51399.198   0.15146493 
   63600    294.74377   -899.05068    149765.53    -47440.18    4047.5959   -51487.776    0.1547562 
   63800    292.37616   -357.66292    149053.64   -47473.652    4015.0824   -51488.735   0.15187386 
   64000    289.40337   -171.49407    148790.95   -47469.881    3974.2584   -51444.139    0.1520644 
   64200    296.84176   -669.58238    149509.04   -47467.991    4076.4068   -51544.397   0.15178969 
   64400    293.61437   -825.75697    149661.43   -47452.379    4032.0863   -51484.465   0.15775047 
   64600    290.09488   -295.85387    148949.92   -47512.898    3983.7546   -51496.652   0.15366366 
   64800     291.1841   -290.56326    148902.95   -47525.088    3998.7125   -51523.801   0.15575028 
   65000    290.79962   -738.43595    149543.95   -47509.936    3993.4325   -51503.369   0.15914172 
   65200    293.21101   -671.55154    149487.84   -47537.347    4026.5471   -51563.894   0.16196274 
   65400    290.38295    -272.3546    148895.97   -47567.739    3987.7105   -51555.449   0.15627561 
   65600    289.97253   -341.45474    149036.78   -47592.062    3982.0744   -51574.136   0.15157762 
   65800    285.24072     -768.762    149573.55   -47561.777    3917.0944   -51478.872   0.15511423 
   66000    292.84337   -595.84566    149352.67    -47563.26    4021.4985   -51584.759   0.15449919 
   66200    285.61285   -289.65963    148874.26   -47591.716    3922.2047   -51513.921   0.15311599 
   66400    288.77805   -443.82575    149135.53   -47585.739    3965.6711    -51551.41   0.14858361 
   66600    291.24319   -759.60419    149512.38   -47595.467    3999.5239   -51594.991   0.15270627 
   66800    288.89144   -451.03478    149185.78   -47578.336    3967.2282   -51545.564    0.1481206 
   67000    283.41399    -263.9822    148869.69   -47610.256    3892.0087   -51502.265   0.15274269 
   67200    282.92238   -549.13076    149242.49   -47627.793    3885.2576   -51513.051   0.14995296 
   67400    282.28734   -724.59676    149463.68   -47658.177    3876.5368   -51534.714   0.15702751 
   67600    288.01495   -379.99756    149054.38   -47616.536    3955.1918   -51571.728   0.15137171 
   67800    294.18109   -274.09589    148924.16   -47566.913    4039.8688   -51606.782    0.1451482 
   68000    292.53637   -635.46638    149378.78   -47558.097    4017.2826   -51575.379   0.14947745 
   68200    287.24274   -668.80774    149446.39   -47629.058    3944.5873   -51573.646   0.15317013 
   68400    289.90706    -344.4516    149009.73   -47576.967    3981.1754   -51558.143   0.15048915 
   68600    283.96318   -388.64952    149078.38   -47562.007    3899.5504   -51461.557   0.15009309 
   68800    289.05246   -736.15561    149530.03   -47526.177    3969.4394   -51495.617   0.15540305 
   69000    291.26114   -649.11166    149400.42   -47572.747    3999.7703   -51572.518    0.1591588 
   69200    293.82774   -275.90887    148935.53   -47582.287    4035.0165   -51617.304   0.15233966 
   69400    285.16567   -463.32126    149139.82   -47620.646    3916.0638    -51536.71   0.15591068 
   69600    285.48276   -759.20777     149541.8   -47629.578    3920.4182   -51549.996   0.16108498 
   69800    287.76472   -468.08322     149233.3   -47598.977    3951.7555   -51550.733   0.15163178 
   70000    290.12062   -242.04178    148900.66   -47561.137    3984.1081   -51545.245   0.14383064 
   70200    293.26881   -558.69265    149281.82     -47543.4    4027.3409   -51570.741   0.15031475 
   70400    291.64792   -742.63484    149548.35   -47554.276    4005.0819   -51559.358   0.15078854 
   70600    295.41032   -398.96584    149110.92   -47530.043    4056.7494   -51586.792   0.14667277 
   70800    291.48716   -287.74528    148943.81   -47555.454    4002.8742   -51558.328   0.14442641 
   71000    288.61909   -629.01068    149368.06    -47598.26    3963.4882   -51561.748   0.15197915 
   71200     288.2743   -684.06231    149425.46   -47605.374    3958.7533   -51564.127   0.15123392 
   71400     293.6951   -313.73687    149002.43   -47575.427     4033.195   -51608.622    0.1426651 
   71600     288.8495   -387.62563    149021.43   -47553.266    3966.6523   -51519.918   0.14997051 
   71800    290.31553   -638.17083    149389.08   -47570.963    3986.7847   -51557.748   0.15161097 
   72000    289.82424   -571.12408     149320.5   -47596.494     3980.038   -51576.532   0.14815663 
   72200    283.17207   -374.37758    149024.37   -47632.315    3888.6865   -51521.001    0.1447882 
   72400     288.9577   -435.88027    149120.82   -47614.504    3968.1382   -51582.642   0.14785838 
   72600    289.33368   -623.98418    149336.08       -47579    3973.3014   -51552.302   0.15178698 
   72800    282.70634   -547.84425    149218.89   -47654.984    3882.2908   -51537.275   0.15321573 
   73000    288.13794   -407.48429    149015.61   -47654.439    3956.8808   -51611.319   0.14712887 
   73200    290.91279   -481.79481    149152.68   -47667.117    3994.9866   -51662.104   0.14632109 
   73400    285.50008   -610.41257    149301.69    -47660.35    3920.6561   -51581.006   0.15837441 
   73600    287.00059    -528.6688    149169.74   -47644.681     3941.262   -51585.942   0.15561462 
   73800    287.52604   -451.48479    149086.43   -47639.582    3948.4778    -51588.06    0.1528707 
   74000    284.33894   -513.20879    149193.62   -47685.426    3904.7107   -51590.136   0.15216954 
   74200    285.80218   -529.75006    149198.82    -47680.92    3924.8047   -51605.725   0.14979341 
   74400    286.06826   -468.17125    149102.29   -47644.568    3928.4587   -51573.026   0.14923199 
   74600    290.23915   -432.71736    149141.58   -47667.559    3985.7359   -51653.294   0.14160643 
   74800     286.5987   -540.05244    149252.08   -47676.831    3935.7429   -51612.573   0.14755139 
   75000    288.59591   -506.81249     149224.1   -47640.251    3963.1699   -51603.421   0.14568163 
   75200    287.47117   -454.39442    149137.68   -47627.431    3947.7242   -51575.155   0.13946771 
   75400    289.86997   -474.18586    149180.46   -47615.414    3980.6661    -51596.08   0.14857555 
   75600    288.88325   -565.21761    149263.41   -47594.113    3967.1157   -51561.229   0.15367395 
   75800    290.44321   -466.30017    149229.52    -47571.48    3988.5381   -51560.018    0.1489976 
   76000    290.63873    -482.6221    149203.03   -47557.805     3991.223   -51549.028   0.14888852 
   76200    285.99315   -518.62359    149236.08   -47584.119    3927.4272   -51511.546   0.14843738 
   76400    292.75566   -483.21481    149222.27   -47554.445     4020.294   -51574.739   0.14913865 
   76600    292.41825    -474.3255    149225.89   -47541.095    4015.6604   -51556.756   0.14447911 
   76800    290.15325   -512.19682    149245.33   -47540.476    3984.5562   -51525.032   0.14760288 
   77000    291.10579   -521.22575    149234.49   -47543.013    3997.6371    -51540.65   0.15670969 
   77200    294.18744   -485.34058    149199.89   -47589.771     4039.956   -51629.727    0.1471056 
   77400    291.91473   -484.75765    149215.94   -47579.175    4008.7459   -51587.921   0.15036664 
   77600    286.43424   -582.73811    149247.81    -47594.88    3933.4846   -51528.365    0.1590502 
   77800    288.56935    -513.7269    149201.28   -47608.088    3962.8051   -51570.893   0.15817288 
   78000    285.34631   -464.77668    149120.36    -47607.72    3918.5444   -51526.264   0.15591413 
   78200    289.65607   -472.34521    149170.94   -47601.691    3977.7286    -51579.42   0.15018267 
   78400    287.71534   -593.94699    149286.12   -47620.267    3951.0774   -51571.345   0.15339156 
   78600    288.21966   -520.33326    149184.47   -47638.775    3958.0029   -51596.778   0.15064131 
   78800    286.84692   -437.19817    149073.29   -47624.836    3939.1517   -51563.988   0.14299221 
   79000     289.9994   -561.58971    149266.02   -47606.162    3982.4434   -51588.606   0.14354747 
   79200    291.66962    -634.2556    149387.32   -47616.766    4005.3799   -51622.146    0.1513448 
   79400     289.7083   -409.60454    149105.01   -47571.515    3978.4458   -51549.961   0.14972359 
   79600    287.67616   -349.10148    149039.49   -47563.146    3950.5393   -51513.685   0.14728375 
   79800    290.96951   -620.92867    149409.84   -47586.844    3995.7656   -51582.609   0.14558969 
   80000    284.78068   -659.16887    149387.41   -47558.082    3910.7768   -51468.858   0.15511223 
   80200    285.13838   -333.69435    148917.35   -47526.142     3915.689   -51441.831   0.15760394 
   80400    295.24373   -337.00375    149030.42   -47496.924    4054.4617   -51551.386   0.14621245 
   80600    294.53964   -752.06613    149581.25   -47512.708    4044.7927   -51557.501    0.1510676 
   80800    289.41777   -600.07915    149357.63   -47457.667    3974.4561   -51432.123   0.15213402 
   81000    291.56995   -207.96268    148808.69   -47513.294    4004.0112   -51517.305   0.14875262 
   81200     288.8567   -439.17145    149134.56   -47492.424    3966.7512   -51459.175   0.15297765 
   81400      292.179   -811.93172    149650.96   -47463.756     4012.375   -51476.131   0.16049896 
   81600    292.32341   -498.02648    149250.08   -47488.274     4014.358   -51502.632   0.15732046 
   81800    291.85037   -163.83003    148825.89   -47496.133     4007.862   -51503.995   0.14607983 
   82000    295.96326   -526.71673    149286.31   -47461.503    4064.3427   -51525.846    0.1501955 
   82200    292.47473   -806.80781    149593.07   -47501.595    4016.4361   -51518.031   0.15893913 
   82400    291.16319   -349.83256    149063.34   -47507.043    3998.4252   -51505.468   0.15278069 
   82600    290.12382   -258.58748    148884.64   -47553.032     3984.152   -51537.184   0.14858736 
   82800    286.53174   -699.11094    149420.63   -47587.764    3934.8234   -51522.587   0.14977154 
   83000    289.88803   -679.96854    149488.06   -47569.471     3980.914   -51550.386   0.14982474 
   83200    287.03626   -328.30579    148943.34   -47594.955    3941.7519   -51536.707   0.14582793 
   83400    289.23743   -331.24383    148956.07   -47616.211    3971.9795   -51588.191   0.14640785 
   83600    286.80082   -759.17055    149490.96   -47628.257    3938.5186   -51566.775   0.15642647 
   83800    287.91325   -593.56777    149394.02   -47578.354    3953.7951   -51532.149   0.15240138 
   84000    289.64294   -267.14238     148918.3   -47612.562    3977.5482    -51590.11   0.14173516 
   84200    287.73126   -413.01092    149084.63   -47599.471    3951.2959   -51550.767   0.14687055 
   84400    290.56057    -715.7498     149492.9   -47599.711    3990.1497   -51589.861   0.14933421 
   84600     285.1732   -536.19461    149271.31   -47598.232    3916.1671   -51514.399   0.14839595 
   84800    287.96084   -277.71489    148944.57    -47610.37    3954.4487   -51564.818   0.14416366 
   85000    290.34036   -503.43462    149220.33   -47573.423    3987.1257   -51560.549   0.14896367 
   85200    293.95238   -683.48682    149480.94   -47540.805    4036.7281   -51577.534   0.15030991 
   85400    293.59144   -463.44099    149217.18   -47529.432    4031.7714   -51561.203   0.14661628 
   85600     288.4244   -372.99984     149010.1   -47528.829    3960.8145   -51489.644   0.15270584 
   85800    287.58466    -581.6034    149261.52   -47541.416    3949.2828   -51490.699   0.15898071 
   86000    292.73633   -622.42463    149393.62   -47493.886    4020.0286   -51513.914   0.16084198 
   86200    288.34714   -388.64756    149147.11     -47505.3    3959.7536   -51465.054   0.14678882 
   86400     294.6568   -362.61197    149087.14   -47501.226    4046.4016   -51547.627   0.15052288 
   86600    296.89324   -587.28217    149335.67   -47498.423    4077.1138   -51575.536   0.15125355 
   86800    292.79485   -592.85948    149366.72   -47528.473    4020.8322   -51549.306   0.14987611 
   87000    292.58236   -424.70857    149142.35    -47551.74    4017.9141   -51569.654   0.14750679 
   87200    293.80357   -419.08774    149130.78   -47522.036    4034.6845   -51556.721   0.14613516 
   87400    292.83482   -561.76269    149349.32   -47483.729     4021.381    -51505.11   0.15095621 
   87600    293.32113   -556.36812    149360.73   -47550.122    4028.0594   -51578.181    0.1403432 
   87800    290.34916   -393.67203    149159.58   -47558.279    3987.2466   -51545.526   0.14453654 
   88000     291.4635   -458.20135    149184.37   -47510.919    4002.5493   -51513.468   0.15528897 
   88200    291.83955   -586.63994    149396.31   -47521.018    4007.7134   -51528.731   0.15252803 
   88400    292.21648   -499.85849    149330.84   -47507.357    4012.8897   -51520.246   0.14515361 
   88600    294.09886   -423.17245    149126.08   -47523.305    4038.7396   -51562.045   0.14534147 
   88800    292.33239    -427.1334    149169.34    -47512.05    4014.4814   -51526.531   0.14767931 
   89000    293.66026   -596.04136    149361.86   -47532.421    4032.7165   -51565.137    0.1515903 
   89200    291.86571   -549.24977    149260.95    -47506.44    4008.0726   -51514.513   0.15410073 
   89400    293.75519   -368.79818    149047.76   -47480.264    4034.0201   -51514.284   0.15157816 
   89600    287.96361   -478.67975    149201.62   -47500.465    3954.4868   -51454.951   0.15481607 
   89800    297.94444   -577.67227    149425.83   -47535.184    4091.5494   -51626.734   0.14517628 
   90000     290.5245   -489.81009    149226.99   -47552.875    3989.6544   -51542.529   0.15066965 
   90200    288.57615   -351.73324    149007.48   -47599.028    3962.8985   -51561.926   0.15189208 
   90400    292.65523   -531.17428    149265.28   -47618.805    4018.9148    -51637.72   0.15030067 
   90600      292.351   -672.44108    149458.09   -47608.175    4014.7369   -51622.912   0.14817278 
   90800    289.37534   -437.41323    149093.66   -47635.033    3973.8735   -51608.906   0.14201653 
   91000    282.26286   -288.44617    148912.22   -47637.002    3876.2007   -51513.202   0.14702817 
   91200    287.80888   -587.94614    149408.22   -47647.979    3952.3618   -51600.341   0.14476562 
   91400    283.18689    -735.2969    149541.99   -47636.027      3888.89   -51524.917   0.14717342 
   91600    288.26946   -295.42813    148977.08   -47644.777    3958.6868   -51603.464   0.14666899 
   91800    291.48107   -267.73293    148921.18   -47623.632    4002.7906   -51626.423   0.14410814 
   92000    293.16346   -768.78957    149570.92   -47634.399    4025.8941   -51660.293   0.14451122 
   92200    291.07025   -729.75646     149468.1   -47656.027     3997.149   -51653.176   0.14292435 
   92400    287.79686   -190.46879    148754.22    -47639.52    3952.1968   -51591.717   0.14806847 
   92600    281.32831   -375.14979    149010.94   -47695.357    3863.3669   -51558.724   0.14772535 
   92800    284.20934    -873.4551       149695   -47657.424    3902.9309   -51560.355   0.14707702 
   93000    286.31677   -593.23549    149284.49   -47589.449    3931.8714    -51521.32    0.1476254 
   93200    288.26623   -112.19239    148686.08   -47592.554    3958.6425   -51551.197   0.14556715 
   93400    287.41642   -502.28834    149225.15   -47593.069    3946.9724   -51540.041      0.15168 
   93600    292.66575   -865.61408    149724.76   -47571.103    4019.0593   -51590.162   0.14957784 
   93800    290.35614   -438.03494     149103.4   -47567.327    3987.3424    -51554.67   0.15330572 
   94000    290.58905   -179.45269     148711.1   -47570.406    3990.5408   -51560.947   0.15484945 
   94200    286.21258   -631.12936    149354.87   -47648.158    3930.4405   -51578.598   0.14818228 
   94400     292.0778   -801.59869    149588.57    -47629.85    4010.9852   -51640.836   0.15049153 
   94600    290.88645   -334.00643    149007.82   -47631.279    3994.6249   -51625.904   0.14884132 
   94800    290.54475   -330.72008       148926   -47684.817    3989.9325   -51674.749   0.14798274 
   95000    288.15892   -680.51362    149445.57   -47687.828    3957.1689   -51644.997   0.14647586 
   95200    281.00739   -686.71538    149374.67   -47692.994    3858.9598   -51551.954   0.15019955 
   95400      289.693   -228.73359     148900.6   -47707.784    3978.2357    -51686.02   0.14027142 
   95600    284.47666   -413.17851    149070.29   -47670.466    3906.6019   -51577.068   0.14600557 
   95800    287.95669   -731.41823    149475.53    -47631.66    3954.3917   -51586.052   0.14774703 
   96000    294.07238   -538.52349    149272.59   -47624.838     4038.376   -51663.214    0.1469605 
   96200    289.02332   -322.64671    148956.67   -47669.945    3969.0392   -51638.984   0.14685919 
   96400    283.54605   -495.04439    149179.83   -47661.746    3893.8222   -51555.569   0.14621298 
   96600     287.5487   -671.02731    149409.53   -47671.339     3948.789   -51620.128   0.14399676 
   96800     279.8995   -500.70922    149131.38   -47724.703    3843.7456   -51568.448   0.14775062 
   97000    289.18509   -382.76879    148962.04   -47710.651    3971.2609   -51681.912   0.14739681 
   97200    288.84897   -570.35562    149220.33   -47695.472     3966.645   -51662.117   0.14527104 
   97400    286.93773   -597.83668    149328.25   -47648.439    3940.3988   -51588.837   0.14459417 
   97600    288.61963   -447.11637    149110.17   -47622.156    3963.4956   -51585.651   0.14512356 
   97800    285.02842   -429.18739    149063.31   -47617.719    3914.1789   -51531.898   0.15279472 
   98000    286.13584   -542.55911    149243.65   -47587.641    3929.3867   -51517.028   0.15043558 
   98200     284.4305   -580.46185     149261.4   -47597.097    3905.9679   -51503.065   0.15192441 
   98400    288.94455   -435.79082     149105.5   -47528.405    3967.9576   -51496.363   0.15465697 
   98600     282.7273   -487.28439    149129.45   -47575.779    3882.5787   -51458.358   0.15654626 
   98800    291.89786   -559.41091    149264.62   -47537.486    4008.5141       -51546    0.1526845 
   99000    288.98261   -572.35853    149242.14     -47539.8    3968.4802    -51508.28   0.15553422 
   99200    288.43338   -409.90537    149104.22   -47605.089    3960.9379   -51566.027   0.14909616 
   99400    286.92679   -436.33635    149122.86   -47698.102    3940.2486   -51638.351   0.14352667 
   99600    284.00432   -547.75425    149244.36   -47720.927    3900.1154   -51621.042    0.1416449 
   99800    280.73686    -569.4566    149220.32   -47692.563    3855.2447   -51547.808   0.15032493 
  100000    286.52237   -423.31239    149106.64   -47693.805    3934.6948   -51628.499   0.14446806 
  100200    286.91242   -491.00405    149161.96   -47651.386    3940.0512   -51591.437   0.14450813 
  100400    290.95257   -572.28407    149291.99   -47648.154    3995.5329   -51643.687   0.14698907 
  100600    285.12097   -519.07554    149183.21   -47598.117    3915.4499   -51513.567   0.15340727 
  100800    288.82451   -405.01025    149056.06   -47627.987    3966.3091   -51594.296   0.14820737 
  101000    286.46391   -536.05864    149179.47   -47609.995     3933.892   -51543.887   0.15048783 
  101200    290.86834   -592.38655    149315.24    -47587.72    3994.3762   -51582.096   0.15020044 
  101400    290.20664   -457.47873    149173.89   -47595.536    3985.2893   -51580.825   0.14583842 
  101600    291.66066   -379.56544    149067.37   -47612.867    4005.2569   -51618.124   0.13970213 
  101800    289.65164   -552.35778    149234.81   -47577.773    3977.6678    -51555.44   0.14938363 
  102000    291.37831   -615.95019     149333.2   -47578.688    4001.3795   -51580.068   0.15734004 
  102200    290.11175   -458.62584    149114.38   -47572.851    3983.9863   -51556.837   0.15345962 
  102400    288.21705   -362.57802    148991.02   -47515.878    3957.9671   -51473.845   0.15024382 
  102600    288.07977   -579.18865    149323.59    -47525.16    3956.0819   -51481.242   0.15455873 
  102800    286.42399   -678.48153    149421.93   -47534.489    3933.3438   -51467.833   0.15768097 
  103000    290.68466   -298.15185    148948.47   -47532.705    3991.8537   -51524.558     0.152008 
  103200    290.42454   -294.44682    148949.75   -47513.594    3988.2817   -51501.876   0.15222282 
  103400    291.33163   -751.92278    149605.95   -47538.004    4000.7384   -51538.742   0.15149677 
  103600    290.54755   -684.20494     149481.8   -47541.959    3989.9709    -51531.93   0.15232843 
  103800    288.80205   -116.12033    148729.45   -47550.875    3966.0007   -51516.876    0.1430185 
  104000    293.46616   -307.91906    149014.58   -47560.147    4030.0509   -51590.198    0.1457466 
  104200    285.27218   -916.94946    149800.35   -47565.293    3917.5265    -51482.82   0.15458181 
  104400    286.29193    -595.8124    149331.06   -47586.431    3931.5302   -51517.961   0.15363252 
  104600    287.13837   -58.752767    148576.79   -47587.273     3943.154   -51530.427   0.14638556 
  104800    289.83979   -464.29471    149153.43   -47575.761    3980.2515   -51556.012   0.14832105 
  105000    288.96106   -957.88225     149802.5   -47596.542    3968.1844   -51564.726   0.15451866 
  105200    290.61468   -411.50636    149114.07   -47603.824    3990.8928   -51594.717   0.14750021 
  105400    292.56367   -97.991399    148656.95   -47598.944    4017.6575   -51616.601   0.14453647 
  105600    288.26084   -642.17123    149372.29   -47592.526    3958.5685   -51551.094   0.15435641 
  105800    288.16495   -833.96825    149631.41   -47605.499    3957.2517   -51562.751   0.15606164 
  106000    294.32855   -266.59889    148957.67   -47592.238    4041.8939   -51634.132   0.14327191 
  106200    292.03338   -245.35804    148842.78   -47569.493    4010.3752   -51579.868    0.1485695 
  106400    290.37446   -699.17113    149472.19   -47577.682     3987.594   -51565.276   0.15534991 
  106600    289.63344   -714.57826    149499.51   -47578.627    3977.4179   -51556.045   0.15692609 
  106800    290.11673   -313.25236    148944.94    -47575.23    3984.0546   -51559.284   0.15107972 
  107000    294.18646   -307.38681    148978.84   -47532.733    4039.9426   -51572.675   0.15007819 
  107200    290.96643    -634.6477    149454.15   -47517.621    3995.7232   -51513.345   0.15488872 
  107400    291.46437   -611.96143    149377.49   -47525.145    4002.5612   -51527.706   0.15407383 
  107600    289.91277   -340.40867     149001.4   -47505.498    3981.2538   -51486.752   0.15505048 
  107800    291.34033   -394.96522    149129.42   -47527.261    4000.8578   -51528.119   0.15240036 
  108000    291.25763   -636.69938    149476.49   -47501.087    3999.7222   -51500.809     0.153353 
  108200    292.62238   -550.02574    149322.08   -47537.307    4018.4637   -51555.771   0.14838679 
  108400     292.7271   -384.50041    149046.77   -47536.039    4019.9018   -51555.941   0.14902995 
  108600    295.36554   -473.46664    149244.06    -47507.36    4056.1344   -51563.494   0.14806174 
  108800    295.70668   -651.81488     149472.6   -47527.288    4060.8192   -51588.107   0.15155059 
  109000    289.35243   -504.29605     149219.4   -47566.949    3973.5588   -51540.508   0.14992794 
  109200    295.02245   -337.76723     148982.8   -47570.743    4051.4229   -51622.166    0.1494289 
  109400    289.68501   -485.81184    149231.26   -47553.137     3978.126   -51531.263   0.15100126 
  109600    287.23032   -674.48317    149429.91   -47512.019    3944.4167   -51456.436   0.15837174 
  109800    289.13703     -446.716    149161.22   -47565.182    3970.6009   -51535.783   0.15105778 
  110000    298.34586   -316.61804    149017.33   -47505.633    4097.0619   -51602.695   0.14716248 
  110200    292.39073   -549.01411    149327.85   -47490.627    4015.2826    -51505.91   0.15439775 
  110400    288.94606   -658.55391    149408.52   -47540.695    3967.9783   -51508.673   0.15102655 
  110600    290.74118   -409.20469    149063.05   -47615.925      3992.63   -51608.555   0.14595152 
  110800    287.40027   -389.06137    149013.85   -47610.914    3946.7506   -51557.665   0.15408665 
  111000    292.89127   -573.27702    149339.03   -47611.454    4022.1562    -51633.61   0.15261917 
  111200    290.50449   -583.93893    149376.43   -47598.936    3989.3796   -51588.315   0.14871614 
  111400    286.28875   -421.97891    149093.77   -47654.014    3931.4865   -51585.501   0.15007874 
  111600    282.82916   -439.15014    149089.83   -47707.409    3883.9774   -51591.386   0.15273515 
  111800    281.40918   -647.38566    149354.43   -47737.278    3864.4775   -51601.756    0.1512584 
  112000    286.16325   -595.68598    149290.74   -47729.921    3929.7632   -51659.684    0.1435021 
  112200    288.75284   -370.04317    149011.66   -47690.954    3965.3249   -51656.279   0.14857252 
  112400    287.78408   -449.15522    149134.83   -47659.055    3952.0213   -51611.077   0.15031554 
  112600    286.31059   -689.49189    149398.92   -47631.938    3931.7865   -51563.724   0.15419967 
  112800    288.47094     -507.942    149236.49   -47648.741    3961.4538   -51610.195   0.14807373 
  113000    287.20462    -357.4307    149018.62   -47628.605    3944.0638   -51572.669   0.15067182 
  113200    287.72115   -509.48053    149231.47   -47663.039    3951.1572   -51614.196     0.152122 
  113400    286.67372    -643.5062    149397.79   -47641.792    3936.7731   -51578.566   0.15562218 
  113600    294.78557   -415.13744    149146.26   -47649.494      4048.17   -51697.664    0.1473435 
  113800    286.72855   -392.15771    149061.61   -47632.828    3937.5261   -51570.355   0.14580909 
  114000    291.37612   -602.87297    149367.39   -47616.562    4001.3494   -51617.912   0.14624262 
  114200    287.21812   -617.83017    149424.96    -47627.79    3944.2492   -51572.039   0.14771697 
  114400    291.10646   -331.80577    149073.37   -47572.652    3997.6463   -51570.298   0.14595907 
  114600    294.23936   -367.63841    149097.44   -47547.219     4040.669   -51587.888   0.15053958 
  114800    287.79941   -710.74774    149534.05     -47528.8    3952.2318   -51481.032   0.15201109 
  115000    290.29672   -657.31524    149446.33   -47558.428    3986.5263   -51544.955   0.14945246 
  115200    289.55772   -293.24921    148926.06   -47577.543     3976.378   -51553.921    0.1515352 
  115400    294.69099   -335.64159    149083.34   -47589.621    4046.8712   -51636.492   0.14774741 
  115600    295.19953   -768.29845    149643.43   -47567.635    4053.8546    -51621.49   0.15269018 
  115800    290.20533   -579.25465    149370.42   -47585.307    3985.2714   -51570.578   0.14463107 
  116000    289.12394     -149.773     148794.2   -47574.021    3970.4211   -51544.442   0.14730272 
  116200    289.61041   -484.19015    149232.86   -47590.725    3977.1016   -51567.826   0.14798741 
  116400    285.96486    -875.0026    149766.25   -47626.222    3927.0387   -51553.261   0.14844407 
  116600    286.80874   -479.58955    149159.04   -47643.397    3938.6273   -51582.024   0.15120852 
  116800    287.70682   -68.973533    148695.41   -47601.856    3950.9603   -51552.816   0.15185243 
  117000    285.44206   -655.15641    149451.08   -47605.684    3919.8593   -51525.543   0.15128488 
  117200     287.7165   -908.85306    149809.64   -47590.982    3951.0932   -51542.075   0.14963544 
  117400    290.75615    -271.4931    148968.36   -47624.102    3992.8355   -51616.937   0.14300336 
  117600     289.5336   -156.98972    148730.03   -47606.018    3976.0468   -51582.064   0.15006168 
  117800    286.91234   -751.95575    149541.17   -47561.357    3940.0501   -51501.407   0.15218656 
  118000    289.44767   -802.85604    149624.55   -47551.109    3974.8667   -51525.975    0.1520402 
  118200    290.03512   -222.95547    148881.04   -47590.894     3982.934   -51573.828   0.14727362 
  118400    290.58151    -221.9859    148907.57   -47641.493    3990.4373   -51631.931   0.13950355 
  118600    286.15277   -748.24762     149558.8   -47662.926    3929.6192   -51592.545   0.14496793 
  118800    283.84906   -666.35711    149418.67   -47713.435    3897.9833   -51611.419   0.15119052 
  119000    280.93422   -232.53037    148820.46   -47715.576     3857.955   -51573.531   0.15046797 
  119200    285.60584   -407.62349    149026.52   -47717.046    3922.1085   -51639.154   0.14781304 
  119400     286.4859   -744.95978    149519.93     -47738.5    3934.1939   -51672.694     0.143172 
  119600    284.97447   -552.79104    149246.04   -47680.591    3913.4381   -51594.029   0.14951566 
  119800    288.04203   -286.31447    148860.86   -47679.848    3955.5636   -51635.412   0.14845142 
  120000    288.81197   -529.57267    149190.59   -47696.692    3966.1369   -51662.828   0.14619671 
  120200    287.60896   -682.35732    149473.04   -47665.802    3949.6165   -51615.419   0.15142348 
  120400    285.47893   -501.23615    149134.67   -47714.754    3920.3656   -51635.119   0.15020071 
  120600    277.48144   -335.44647    148924.45   -47708.198    3810.5393   -51518.737   0.14872609 
  120800    287.47281   -565.96937    149265.08   -47698.633    3947.7467   -51646.379   0.14493569 
  121000    288.29933   -664.51229    149411.33   -47681.431     3959.097   -51640.528   0.14844888 
  121200    285.03143   -449.02882    149087.05   -47682.235    3914.2202   -51596.455    0.1521013 
  121400    282.79602   -389.96164    149001.14   -47680.926    3883.5223   -51564.448   0.15096786 
  121600    286.97443   -597.15181    149325.13   -47670.239    3940.9028   -51611.142   0.14822711 
  121800    282.90489   -624.76999    149367.37   -47665.594    3885.0174   -51550.611   0.14524373 
  122000    290.29281   -371.90686    148998.02   -47647.523    3986.4727   -51633.995   0.14889683 
  122200    288.02243   -359.97672    149005.35   -47616.232    3955.2944   -51571.526   0.15110296 
  122400     290.9197   -682.96048    149429.17   -47567.046    3995.0815   -51562.128    0.1520424 
  122600    289.70671   -619.56045     149354.1   -47488.214    3978.4241   -51466.638   0.15466857 
  122800    298.19129    -298.7911    148962.57   -47491.551    4094.9393    -51586.49   0.14538624 
  123000    289.43005   -404.58908    149114.27   -47537.484    3974.6247   -51512.109   0.14424841 
  123200     293.2193    -678.4533    149479.63   -47558.103    4026.6609   -51584.764   0.14856091 
  123400    286.89254   -572.80233    149248.23   -47641.997    3939.7781   -51581.775   0.15555957 
  123600    291.61115   -239.48056    148900.76   -47591.874    4004.5769   -51596.451   0.14329995 
  123800    289.90922   -529.08054    149206.19   -47612.644     3981.205   -51593.849   0.14350997 
  124000    295.85391   -758.90955     149527.1    -47593.44    4062.8409   -51656.281   0.14857438 
  124200    293.21281   -473.92074    149173.32   -47579.254    4026.5719   -51605.826   0.15334387 
  124400    292.41148   -257.76539    148906.09   -47595.541    4015.5676   -51611.108   0.14671777 
  124600    287.03932   -562.26143    149292.35   -47609.815    3941.7938   -51551.609   0.14592911 
  124800    290.84206    -701.6587    149446.07   -47612.567    3994.0154   -51606.583   0.15078526 
  125000     291.2373   -351.05061    149010.77   -47624.944     3999.443   -51624.387    0.1465709 
  125200    288.25869   -312.07487    148936.86   -47616.301    3958.5389    -51574.84   0.14728018 
  125400    292.64046    -647.2592    149371.24   -47680.407     4018.712   -51699.119   0.14828361 
  125600    284.66383   -621.93453    149317.34   -47673.331    3909.1723   -51582.503   0.15178708 
  125800     287.2499   -291.27369    148892.43   -47666.862    3944.6856   -51611.548   0.14974284 
  126000    290.09068   -415.99093    149050.21   -47635.383    3983.6969    -51619.08    0.1476536 
  126200    290.95698   -720.60192    149477.52   -47610.734    3995.5934   -51606.327   0.14864721 
  126400    287.45358   -544.28204    149246.32   -47641.501    3947.4828   -51588.984   0.14829113 
  126600      283.594    -272.8005    148859.52    -47668.37    3894.4807    -51562.85   0.14682618 
  126800    287.69754   -484.83849    149168.37   -47638.974    3950.8329   -51589.807     0.147913 
  127000    285.86601   -742.66348     149543.3   -47652.371    3925.6812   -51578.052   0.15000244 
  127200    286.18913   -467.26883    149151.71   -47689.917    3930.1185   -51620.036   0.14537876 
  127400    285.44022   -214.55339    148831.55   -47690.749    3919.8341   -51610.583    0.1417729 
  127600    289.28602   -614.17892    149293.92   -47684.187    3972.6468   -51656.834   0.14923701 
  127800    286.89378   -764.84261    149556.55   -47669.728    3939.7952   -51609.523   0.15198818 
  128000    293.23469   -369.27836    149063.69   -47672.129    4026.8723   -51699.001   0.14234154 
  128200    291.28085   -209.90459    148902.01   -47639.721    4000.0411   -51639.762    0.1380145 
  128400    288.80238   -677.44587    149484.67   -47662.755    3966.0052    -51628.76   0.14095214 
  128600    283.83913   -711.03549    149546.94   -47692.958     3897.847   -51590.805   0.14390246 
  128800    287.41252   -211.61294    148881.63   -47735.021    3946.9189    -51681.94   0.14155464 
  129000    282.05715   -304.51371    148923.98   -47768.236    3873.3757   -51641.612   0.14450826 
  129200    287.62522   -797.69031     149594.5   -47721.108    3949.8398   -51670.947   0.14274878 
  129400    287.95157   -648.90684     149420.8   -47722.058    3954.3214    -51676.38   0.14043228 
  129600    285.52132    -176.0018    148713.88   -47726.347    3920.9478   -51647.295   0.14474541 
  129800    283.12099   -414.32336    148995.88   -47737.578    3887.9851   -51625.563   0.14772507 
  130000    282.64056    -848.4729    149678.71   -47739.529    3881.3875   -51620.917   0.14517343 
  130200    286.24808   -536.80447    149266.74   -47761.473    3930.9281   -51692.401   0.13714491 
  130400    281.99664   -76.301724    148650.57   -47750.171    3872.5447   -51622.716   0.13525665 
  130600    286.57083   -527.41731    149257.08    -47705.61    3935.3603    -51640.97   0.14235665 
  130800    282.88139   -965.95067    149805.32   -47719.406    3884.6947     -51604.1   0.15456365 
  131000    285.17642   -378.33658    149064.91   -47744.832    3916.2113   -51661.044   0.13940737 
  131200    287.65621   -63.012779    148662.82   -47720.835    3950.2654   -51671.101   0.13705435 
  131400    283.80531   -675.39476    149476.62   -47717.333    3897.3825   -51614.716   0.14140281 
  131600    280.38759   -849.35127    149691.58   -47707.957    3850.4484   -51558.405   0.15143745 
  131800    287.02419   -279.41115    148913.01   -47686.942     3941.586   -51628.528   0.14081716 
  132000    289.32349   -224.42532    148842.95   -47632.865    3973.1615   -51606.027   0.14303751 
  132200    285.80236   -787.25776    149551.13   -47634.605    3924.8071   -51559.412   0.15100831 
  132400    288.43577   -685.99312    149492.16   -47638.516    3960.9707   -51599.486   0.14625352 
  132600    287.87927   -235.36306    148885.25   -47618.107    3953.3285   -51571.436   0.14212239 
  132800    282.19991   -410.47866    149035.67   -47587.864    3875.3362     -51463.2   0.15088284 
  133000    286.33233   -759.04417    149522.07   -47578.529     3932.085   -51510.614   0.15153646 
  133200    289.04872   -575.16602    149327.15   -47528.015    3969.3882   -51497.403   0.14758598 
  133400    296.28029   -260.37352    148941.06    -47517.35    4068.6963   -51586.046   0.13988752 
  133600    291.41994   -450.91041    149194.69   -47528.707    4001.9511   -51530.658   0.14577833 
  133800    290.12781   -713.37001    149522.57     -47545.4    3984.2068   -51529.607   0.14740595 
  134000    293.96521   -479.77216    149193.94   -47498.052    4036.9043   -51534.956   0.14717898 
  134200    292.00979   -252.92233    148912.48   -47512.977    4010.0513   -51523.028   0.14698703 
  134400    293.09953   -553.57454    149259.67   -47509.867    4025.0162   -51534.884   0.14894656 
  134600    293.94901   -664.94458    149454.92   -47523.333    4036.6819   -51560.014   0.14818338 
  134800    289.40489   -415.44745    149085.04   -47567.926    3974.2793   -51542.205   0.14715108 
  135000    287.92224   -330.62592     148966.8   -47624.156    3953.9186   -51578.074   0.14695744 
  135200    288.47659   -609.41284     149322.2   -47631.519    3961.5313    -51593.05   0.14926274 
  135400    287.30037   -663.40858    149359.23   -47651.257    3945.3787   -51596.635   0.14656967 
  135600    292.07311   -387.38607     149000.8   -47618.624    4010.9208   -51629.545   0.14620165 
  135800    291.32802    -403.3293    149027.99   -47689.657    4000.6887   -51690.346   0.14105582 
  136000      286.944   -609.26177    149336.32   -47718.053    3940.4849   -51658.538   0.14577416 
  136200    282.72725   -591.87462    149273.56   -47729.105     3882.578   -51611.683   0.14882863 
  136400    287.13703   -376.93455    149029.84    -47684.48    3943.1357   -51627.616    0.1445363 
  136600    289.46576   -467.97196    149162.18   -47628.338    3975.1152   -51603.453    0.1449111 
  136800    290.43158    -663.7696    149438.09   -47636.232    3988.3783    -51624.61   0.14327434 
  137000    286.36434     -510.848    149296.81   -47641.979    3932.5246   -51574.503   0.14344979 
  137200    288.62611   -349.61003    149035.55   -47676.475    3963.5846    -51640.06   0.14560251 
  137400    286.35457   -497.62533    149215.57   -47633.324    3932.3905   -51565.714   0.14819479 
  137600    290.65812   -643.80384     149466.6   -47624.994    3991.4894   -51616.484   0.14414378 
  137800    287.93089   -522.85595    149247.62   -47599.328    3954.0374   -51553.366   0.14380238 
  138000    290.83745   -323.27306    149001.36   -47599.242     3993.952   -51593.194   0.14277995 
  138200    283.52442   -541.27295    149267.04   -47647.794    3893.5252   -51541.319   0.15072922 
  138400    289.66191   -639.08346    149427.76    -47632.17    3977.8089   -51609.979   0.14799746 
  138600    289.53279   -410.27116    149126.09   -47647.452    3976.0357   -51623.488   0.14047439 
  138800    288.50502   -378.41495    149038.48   -47598.712    3961.9217   -51560.634   0.14150356 
  139000    289.22744   -597.17849    149368.66   -47584.118    3971.8424    -51555.96    0.1447104 
  139200    290.24789   -625.71435    149401.26   -47585.241    3985.8558   -51571.096   0.14871963 
  139400    286.49307   -350.71226    149001.58   -47614.279    3934.2925   -51548.572   0.15106768 
  139600    291.96755   -386.51664    149022.08    -47596.91    4009.4712   -51606.381   0.15121834 
  139800    288.08489   -738.27766    149513.77   -47553.305    3956.1522   -51509.457   0.15340718 
  140000    292.24118   -624.20879    149422.48   -47521.183    4013.2288   -51534.412    0.1503907 
  140200    291.78156   -260.25233    148866.73   -47567.092    4006.9171   -51574.009   0.14947335 
  140400    290.07966   -365.25002     149026.3   -47592.673    3983.5456   -51576.218   0.15380081 
  140600    285.35622   -873.92321    149662.95   -47584.883    3918.6804   -51503.564   0.15635175 
  140800    286.51521   -575.16062    149314.59   -47580.619    3934.5965   -51515.216   0.15160741 
  141000    293.27569   -75.211375    148624.97     -47622.6    4027.4354   -51650.035   0.14265864 
  141200    288.62741   -471.52896    149149.86   -47572.404    3963.6025   -51536.006   0.15020504 
  141400    290.32504   -978.40353    149827.52   -47569.373    3986.9154   -51556.288   0.15889292 
  141600    289.10873   -459.71428    149128.03   -47558.308    3970.2121    -51528.52   0.16002414 
  141800    286.54095    -19.92739    148528.66   -47613.993    3934.9499   -51548.943   0.15220841 
  142000    290.20272   -638.07149    149339.32   -47626.792    3985.2355   -51612.028   0.14772281 
  142200    286.93221   -948.79237    149788.67   -47617.094    3940.3229   -51557.417   0.15064402 
  142400    294.38931   -300.45755    148936.37   -47628.235    4042.7282   -51670.964   0.13960446 
  142600    288.09731   -107.97464    148686.78   -47620.839    3956.3227   -51577.161   0.14922819 
  142800    289.96242   -764.28951    149527.05   -47620.195    3981.9356   -51602.131   0.15195773 
  143000    284.85245   -830.24299    149597.42   -47679.033    3911.7625   -51590.796   0.15041338 
  143200    297.49782   -209.90155    148824.78   -47654.032    4085.4161   -51739.449   0.13866737 
  143400    290.19153     -234.508    148900.69   -47618.289    3985.0819   -51603.371   0.14600219 
  143600    290.75384   -745.59566    149554.26   -47602.362    3992.8038   -51595.166   0.15245847 
  143800    286.91024   -631.75741    149366.48   -47615.207    3940.0213   -51555.228   0.15245947 
  144000    291.77636   -212.45975    148834.17    -47606.79    4006.8457   -51613.635   0.14552483 
  144200    288.01195   -409.66119    149093.62   -47579.535    3955.1506   -51534.686   0.14800204 
  144400    292.96584   -726.10133    149527.71   -47578.883    4023.1804   -51602.063   0.14528441 
  144600     292.4157   -512.48236    149249.41    -47555.33    4015.6255   -51570.955   0.14819112 
  144800    288.26147   -302.44998    148931.27   -47526.855    3958.5771   -51485.432   0.15543434 
  145000    290.33915   -514.59193    149239.04   -47570.118     3987.109   -51557.227   0.15280785 
  145200    281.71162   -700.81774     149499.4   -47596.725    3868.6307   -51465.356   0.15142499 
  145400    292.10207   -487.65904    149193.36   -47605.679    4011.3186   -51616.998   0.14827481 
  145600    287.60446   -314.45933     148990.4   -47624.683    3949.5547   -51574.237   0.14990724 
  145800    288.41308   -588.49157     149293.7   -47639.425    3960.6591   -51600.084   0.15134185 
  146000    292.20479   -623.21032    149408.67    -47624.74    4012.7291    -51637.47   0.14428053 
  146200    288.76044   -381.52219    149094.53   -47657.961    3965.4293   -51623.391   0.13978238 
  146400    290.07488   -368.41231    149056.89   -47611.927      3983.48   -51595.407   0.14350842 
  146600    292.19724   -658.03032    149417.33     -47574.2    4012.6255   -51586.826   0.14759663 
  146800    293.74457   -627.43929    149404.87   -47530.164    4033.8743   -51564.039   0.15073191 
  147000    291.48693    -357.3366    149050.77   -47546.567     4002.871   -51549.438   0.15267747 
  147200    287.29658   -397.00101    149117.34   -47513.724    3945.3266   -51459.051   0.15100486 
  147400    289.71776   -681.82319    149468.16   -47576.546    3978.5757   -51555.122   0.14923028 
  147600    293.34434   -543.88609    149315.66     -47590.9    4028.3782   -51619.278   0.14614846 
  147800    287.85711   -311.30861    148983.24   -47634.214    3953.0242   -51587.239   0.14771632 
  148000    289.04926   -443.56382    149161.96   -47598.431    3969.3955   -51567.826   0.14740719 
  148200    288.44197   -714.30122    149480.91   -47637.457    3961.0559   -51598.512   0.14770063 
  148400    280.78866   -526.94624    149214.84   -47687.034    3855.9561    -51542.99   0.14679631 
  148600    291.31145   -240.42667    148893.27    -47659.99    4000.4613   -51660.451   0.14208995 
  148800    285.20853   -552.19733    149235.44   -47659.673    3916.6523   -51576.325   0.15032967 
  149000    289.51107   -712.31029    149499.97   -47662.666    3975.7374   -51638.403   0.15207892 
  149200     283.2235   -442.39463    149124.92   -47670.858    3889.3928   -51560.251   0.15665921 
  149400     287.2822   -274.07728    148930.09   -47693.664    3945.1292   -51638.793   0.14585305 
  149600    288.53257    -612.1965    149349.64   -47690.867    3962.3001   -51653.167   0.14670828 
  149800    285.36809   -696.57572    149472.51   -47674.451    3918.8435   -51593.294   0.14526393 
  150000    290.42339   -342.52615    149011.56    -47637.18    3988.2659   -51625.446   0.14938502 
  150200    288.48115   -324.24013    148984.32   -47583.633    3961.5938   -51545.227    0.1529719 
  150400    290.55351   -709.14357    149520.45   -47550.251    3990.0527   -51540.303     0.147393 
  150600    288.55585   -662.09777    149476.18   -47600.425    3962.6197   -51563.045   0.14641585 
  150800    290.93349   -220.39799    148873.68   -47567.312    3995.2709   -51562.583   0.14360685 
  151000    289.47849   -331.15843    149047.76   -47607.057    3975.2899   -51582.347   0.14535919 
  151200    287.98987   -878.30281    149712.15   -47587.869    3954.8473   -51542.716   0.15353523 
  151400    292.65714   -580.32718    149404.12    -47503.39     4018.941   -51522.331   0.15257652 
  151600    285.87474   -124.04722    148757.46   -47493.398    3925.8011   -51419.199   0.15102258 
  151800    288.39954   -494.43086    149229.89   -47505.723    3960.4732   -51466.196   0.14631834 
  152000    294.72145   -943.97263    149868.21    -47500.02    4047.2895    -51547.31   0.14867047 
  152200    288.38193   -469.16596    149180.42   -47525.407    3960.2314   -51485.638   0.15766344 
  152400    287.87856    20.870282    148534.52   -47576.683    3953.3188   -51530.002   0.15142677 
  152600    294.80443   -594.38674    149372.19   -47541.986    4048.4289   -51590.415   0.14384977 
  152800    297.00628   -985.95317    149896.43   -47467.589     4078.666   -51546.255   0.15123263 
  153000      285.159   -314.11784    148924.17   -47544.263    3915.9722   -51460.235   0.15016364 
  153200    290.30965     34.11198    148538.57   -47488.615    3986.7039   -51475.319   0.15130254 
  153400    293.83951   -792.01316    149584.24    -47537.59    4035.1781   -51572.768   0.15217046 
  153600    288.82843    -911.1278    149758.69   -47560.784     3966.363   -51527.147   0.15810967 
  153800    288.11318   -182.18214    148756.77   -47598.149    3956.5407    -51554.69   0.15135694 
  154000    285.67598   -182.88564    148776.09   -47614.148    3923.0717   -51537.219   0.14355556 
  154200    292.07974    -787.5493    149602.07    -47554.92    4011.0119   -51565.932   0.15185341 
  154400     290.9359   -784.40263    149489.88   -47550.386     3995.304    -51545.69   0.15989161 
  154600    288.79958     -271.154    148862.91    -47575.91    3965.9668   -51541.877   0.15579254 
  154800    289.11376    -344.8904    149036.29   -47590.928    3970.2812   -51561.209   0.14268698 
  155000    288.58968   -752.61053    149509.23   -47574.787    3963.0842   -51537.872   0.14976808 
[...]
  163200    287.37822   -585.70999    149342.48   -47648.638    3946.4478   -51595.086   0.15325749 
  163400    289.74927   -945.62137     149779.4   -47676.985    3979.0085   -51655.994   0.15234733 
  163600    288.93028   -333.57988     148924.3    -47633.46    3967.7616   -51601.222   0.14897166 
  163800    287.88169   -101.91389    148654.52   -47696.012    3953.3618   -51649.374   0.14295852 
  164000    288.45475   -763.22516    149526.56   -47706.497    3961.2314   -51667.728   0.14986181 
  164200    289.56865   -816.65327    149569.05   -47701.729    3976.5281   -51678.257   0.14845001 
  164400    289.17392   -173.34735    148701.42   -47650.138    3971.1075   -51621.246   0.14817532 
  164600    291.19325   -244.74197     148825.5   -47629.588     3998.838   -51628.426   0.15109379 
  164800    286.54354   -873.27129    149628.77   -47661.327    3934.9855   -51596.313   0.15600055 
  165000    284.64509   -676.71976    149405.94   -47637.814    3908.9148   -51546.729   0.15240307 
  165200    284.36966   -155.21192    148746.47   -47638.942    3905.1325   -51544.075   0.14716153 
  165400    289.11667   -403.85794    149062.71   -47666.467    3970.3213   -51636.788   0.14452887 
  165600    288.32364   -804.92234    149568.82   -47600.977    3959.4309   -51560.408   0.15615606 
  165800    287.84082   -531.98833    149238.26    -47628.64    3952.8005    -51581.44   0.14693026 
  166000    291.70464   -229.66623    148875.75   -47590.906    4005.8608   -51596.767   0.14316964 
  166200    285.20269     -579.915    149283.28   -47618.909    3916.5721   -51535.481   0.15344645 
  166400    290.82624   -736.42749    149512.79   -47612.579    3993.7981   -51606.377   0.15298974 
  166600     291.5206   -360.77932    149055.26   -47611.133    4003.3334   -51614.466   0.14552985 
  166800     287.7191    -289.0606    148922.59   -47672.509    3951.1289   -51623.638   0.14703476 
  167000    291.70493   -596.15642    149344.91   -47670.003    4005.8648   -51675.868   0.14660273 
  167200    285.30829   -645.38355    149384.21   -47617.186    3918.0224   -51535.208   0.15095394 
  167400    290.78837   -376.53628    148998.71   -47665.618     3993.278   -51658.896   0.14226721 
  167600     287.5932   -389.92852    149027.47   -47647.997    3949.4001   -51597.397   0.14752291 
  167800    287.49902    -684.0344    149385.48   -47713.295    3948.1067   -51661.402   0.14575637 
  168000    286.08382   -530.88772    149251.04   -47702.017    3928.6723    -51630.69   0.13995673 
  168200    284.89388    -291.7068    148923.26   -47701.412    3912.3314   -51613.744   0.14756158 
  168400    284.74416   -490.90743    149157.84   -47658.165    3910.2753    -51568.44    0.1525905 
  168600    285.61053   -697.07651    149478.35   -47666.177    3922.1729    -51588.35   0.15018242 
  168800    281.62156   -532.37357    149187.06   -47708.004     3867.394   -51575.398   0.14659311 
  169000    287.64532   -321.17244    148870.64    -47696.74    3950.1158   -51646.855   0.14627206 
  169200    289.50732   -526.80472    149176.56   -47664.448    3975.6859   -51640.134   0.14709684 
  169400     282.2687   -752.64678    149428.06   -47686.987    3876.2808   -51563.268   0.15316589 
  169600    284.25614   -434.66516    149061.02   -47699.411    3903.5736   -51602.985   0.14465495 
  169800    287.62156    -315.7752    148911.21   -47706.379    3949.7895   -51656.169   0.14494067 
  170000    280.06279   -630.70734    149311.41    -47741.47     3845.988   -51587.458   0.14913467 
  170200    283.80525   -667.33056     149354.8   -47750.542    3897.3817   -51647.924   0.14782966 
  170400    281.12564   -329.87364     148932.6   -47723.176    3860.5836   -51583.759    0.1484606 
  170600    284.10616   -355.26939     148975.3   -47704.369    3901.5139   -51605.883   0.14526113 
  170800    287.92306   -669.91807    149424.49   -47726.142    3953.9299   -51680.072   0.14229328 
  171000    289.89714   -635.99473     149317.3   -47726.975    3981.0391   -51708.014   0.14178294 
  171200    283.78171   -299.71555    148870.75   -47755.566    3897.0584   -51652.624   0.14098558 
  171400    287.26952   -426.47307    149036.38   -47751.367    3944.9551   -51696.322    0.1474589 
  171600    286.48032    -744.2404    149482.63   -47711.692    3934.1174    -51645.81   0.14734007 
  171800    282.41681   -541.11216    149243.28    -47690.55    3878.3148   -51568.865   0.14450753 
  172000    287.66686   -229.95507    148831.51   -47701.003    3950.4116   -51651.414    0.1440847 
  172200    282.96399   -460.21801    149167.06   -47704.337    3885.8289   -51590.165   0.14840357 
  172400    285.62072   -757.38055    149578.41   -47669.547    3922.3128    -51591.86   0.14658015 
  172600    281.18133   -497.72832    149177.19   -47656.679    3861.3485   -51518.028   0.14650557 
  172800    288.47203   -167.08176    148794.96   -47668.367    3961.4687   -51629.835    0.1417693 
  173000    284.96124   -576.95488    149308.38   -47684.641    3913.2564   -51597.897   0.14546688 
  173200    287.37506   -802.79098    149643.25   -47717.684    3946.4044   -51664.088   0.14217299 
  173400    292.50332   -338.09561    148989.98   -47709.456    4016.8287   -51726.285   0.14277852 
  173600     288.9486   -155.38559    148741.74   -47662.023    3968.0131   -51630.037   0.14734408 
  173800    287.29123   -740.49738    149565.13    -47657.43    3945.2532   -51602.683   0.14205824 
  174000    291.17444   -822.19628    149709.39   -47618.165    3998.5797   -51616.745    0.1417047 
  174200    291.08799   -127.54082    148766.17   -47620.016    3997.3926   -51617.408   0.13898124 
  174400    288.64742   -158.10909    148801.21   -47604.564    3963.8772   -51568.441   0.14332853 
  174600    290.46432   -976.51335    149857.35   -47608.665     3988.828   -51597.493   0.14774488 
  174800    292.85723   -778.88542    149641.87   -47573.876    4021.6888   -51595.565   0.14670518 
  175000    293.17453   -2.7315056    148597.11   -47627.917    4026.0462   -51653.963   0.14144799 
  175200    290.33877   -236.23342    148957.28   -47625.077    3987.1038   -51612.181   0.13849591 
  175400    286.07693   -950.77342    149856.95   -47625.898    3928.5778   -51554.476   0.14857799 
  175600    287.07203   -626.40707    149418.51   -47641.572    3942.2431   -51583.815   0.14239235 
  175800    293.15967   -123.74261    148766.74   -47629.873     4025.842   -51655.715   0.14164185 
  176000    288.99589   -481.90511    149230.77   -47616.316    3968.6627   -51584.979   0.14353462 
  176200    292.21923   -821.21516    149665.71   -47561.596    4012.9275   -51574.523   0.14452924 
  176400    288.22466   -481.64557    149215.76   -47603.946    3958.0717   -51562.018   0.14253522 
  176600    292.62038   -239.20818    148918.45   -47586.703    4018.4363   -51605.139   0.14531797 
  176800    291.20137   -605.79487    149355.11   -47591.926    3998.9496   -51590.876   0.15078962 
  177000     289.4217   -723.92057    149529.53   -47605.604    3974.5101   -51580.114   0.14911212 
  177200    287.27282   -401.83772     149091.9   -47622.437    3945.0004   -51567.437   0.14637654 
  177400    286.41869   -293.62931    148974.44    -47712.75     3933.271   -51646.021   0.14114826 
  177600      285.196   -635.81024    149379.55   -47675.678    3916.4803   -51592.158   0.14416338 
  177800    287.05977   -621.01027    149438.84   -47651.754    3942.0746   -51593.829   0.14037663 
  178000    292.64606   -350.01498    149068.76   -47614.394    4018.7889   -51633.183    0.1451525 
  178200    289.25613   -384.58319    149106.23   -47649.556    3972.2364   -51621.792   0.14181611 
  178400    289.34669    -626.5926     149431.8   -47622.916    3973.4801   -51596.396   0.14053822 
  178600    290.34463   -544.02904    149337.75   -47639.826    3987.1843    -51627.01   0.14156042 
  178800    284.24502   -398.99841    149057.09   -47610.169    3903.4208    -51513.59   0.15244253 
  179000    286.73067   -473.78069    149209.59   -47584.511    3937.5553   -51522.067   0.15401232 
  179200    288.43794   -676.66802    149484.54   -47605.252    3961.0005   -51566.252   0.14166527 
  179400      294.349   -478.04809    149251.93   -47581.486    4042.1747    -51623.66   0.14373397 
  179600    289.95795   -317.89934    149025.21   -47589.762    3981.8742   -51571.636   0.14056635 
  179800    287.83127   -535.31688    149313.67   -47616.071    3952.6693    -51568.74   0.14193903 
  180000    290.46224   -667.96264     149495.7   -47582.167    3988.7994   -51570.967   0.14254381 
  180200    291.22395   -447.05202    149170.92   -47545.905    3999.2597   -51545.165   0.14676747 
  180400    293.17871   -299.81372    149004.36    -47503.57    4026.1035   -51529.673   0.14765653 
  180600    290.65948     -596.459    149356.99   -47590.025     3991.508   -51581.533   0.14413276 
  180800    291.23353   -699.80936    149435.67   -47553.254    3999.3912   -51552.646    0.1531261 
  181000    287.25432   -411.85083    149024.14   -47596.563    3944.7464   -51541.309   0.15154748 
  181200    293.00938   -315.35371    149010.56   -47581.213    4023.7782   -51604.991   0.14315982 
  181400    289.10513   -655.42963    149456.89   -47616.098    3970.1627   -51586.261   0.14188467 
  181600     289.0531   -613.57267    149402.49   -47636.324    3969.4483   -51605.772   0.14491879 
  181800    291.50875    -257.4374    148923.84    -47611.35    4003.1707    -51614.52   0.14245848 
  182000    290.99633   -397.82523    149086.17   -47619.397    3996.1338   -51615.531   0.14497823 
  182200    289.17408   -748.50485    149583.23   -47630.042    3971.1096   -51601.152   0.14493846 
  182400    289.70222   -541.87677    149323.93   -47632.287    3978.3623   -51610.649   0.14365875 
  182600    290.15959   -213.35137    148856.39   -47599.303    3984.6432   -51583.946   0.14658935 
  182800    292.05595    -516.1056    149234.85   -47563.415    4010.6851     -51574.1   0.14736455 
  183000    289.16728    -831.1701    149714.04    -47559.16    3971.0162   -51530.176   0.15030026 
  183200     292.2942   -489.57369    149216.88   -47545.682     4013.957   -51559.639    0.1486149 
  183400    289.74988   -116.88502    148760.23   -47555.802    3979.0169   -51534.818   0.14488726 
  183600    292.19733   -581.02081    149377.98   -47582.432    4012.6267   -51595.059   0.14677856 
  183800    290.27851   -863.44999    149741.29    -47610.67    3986.2763   -51596.946   0.14697897 
  184000    291.71701   -323.38707    149007.79   -47629.165    4006.0306   -51635.196   0.14236332 
  184200    284.68306   -148.41582    148761.15   -47672.529    3909.4363   -51581.966   0.14570631 
  184400    292.61202    -726.3436    149576.66   -47677.916    4018.3214   -51696.238   0.14026793 
  184600    291.45105    -806.9302    149655.81   -47683.847    4002.3783   -51686.225   0.14780654 
  184800    290.10415   -179.39434    148797.14   -47677.849    3983.8818   -51661.731   0.14424621 
  185000    285.19829   -245.62817    148872.62   -47668.966    3916.5118   -51585.478   0.14148357 
  185200    286.02265   -844.72177    149686.69   -47719.567    3927.8323     -51647.4   0.14272635 
  185400    289.30179   -630.42075     149461.9   -47699.265    3972.8635   -51672.129   0.14405647 
  185600    287.82291   -178.36724    148773.93    -47707.32    3952.5546   -51659.875   0.14220467 
  185800    286.54344   -413.15811    149054.26    -47651.93    3934.9842   -51586.915   0.14523439 
  186000    284.74932    -808.1542    149569.82   -47632.703    3910.3462   -51543.049   0.14773961 
  186200    287.11392   -551.92059    149229.44   -47626.624    3942.8183   -51569.442   0.15013566 
  186400    289.75336   -239.15116    148862.51   -47577.267    3979.0646   -51556.332   0.15039842 
  186600      290.255   -521.75041    149236.11   -47607.839    3985.9535   -51593.793   0.14763875 
  186800    285.22218   -689.43288    149463.35   -47629.947    3916.8398   -51546.786   0.14869968 
  187000    290.35506   -454.62882    149107.47   -47604.039    3987.3276   -51591.367   0.15175866 
  187200    291.46623   -314.75726    148984.81   -47623.479    4002.5868   -51626.066   0.14575446 
  187400     289.5625   -577.65199    149324.06    -47607.76    3976.4437   -51584.204   0.14993933 
  187600    290.30411   -681.92597    149388.99   -47647.827    3986.6278   -51634.455   0.15394106 
  187800    291.45599    -410.1775    149050.45   -47638.552    4002.4462   -51640.999   0.14703236 
  188000    288.45557   -382.06474     149041.5   -47612.851    3961.2426   -51574.093   0.14196977 
  188200    288.42188    -594.2175    149367.15   -47601.524    3960.7799   -51562.304   0.14630341 
  188400    289.80066   -602.72446    149365.89   -47590.583    3979.7141   -51570.297   0.15426687 
  188600    289.40562   -388.97683    149089.36   -47596.957    3974.2893   -51571.247   0.14561697 
  188800    289.16266    -429.4017    149135.41   -47609.957    3970.9528    -51580.91   0.14283123 
  189000    290.20094   -592.76255    149388.28   -47601.817    3985.2111   -51587.029   0.14543295 
  189200    289.23086   -548.47331    149295.13   -47606.039    3971.8894   -51577.928   0.14963894 
  189400    289.11899   -364.59633    149048.07   -47570.628    3970.3531   -51540.981   0.15012152 
  189600    288.28533   -486.15527    149195.94   -47583.834    3958.9048   -51542.738   0.15089836 
  189800    288.06828   -680.65727    149417.69   -47620.587    3955.9241   -51576.511   0.14819658 
  190000    287.12611   -499.81826    149218.38   -47654.564    3942.9857    -51597.55   0.14297899 
  190200    285.09442   -347.28598    149027.43   -47630.419    3915.0854   -51545.505   0.14390105 
  190400    289.00823   -528.18766     149275.2   -47628.312    3968.8321   -51597.144   0.14504048 
  190600    286.47343   -598.20392    149403.34   -47569.892    3934.0227   -51503.915   0.14789467 
  190800    288.10602   -459.60857    149145.01   -47604.827    3956.4424   -51561.269   0.14993851 
  191000    290.64966     -410.823     149054.2   -47619.843    3991.3732   -51611.216   0.14117851 
  191200    283.87534   -587.18536    149321.04   -47610.806    3898.3443   -51509.151   0.14726798 
  191400    289.29502   -607.12838    149366.89   -47635.358    3972.7705   -51608.128    0.1467229 
  191600    288.97393   -435.14552    149089.84    -47592.64     3968.361   -51561.001   0.15463914 
  191800    291.80505   -442.60857    149099.14   -47627.225    4007.2397   -51634.465   0.14770053 
  192000    286.36228    -603.5284    149359.77    -47625.21    3932.4963   -51557.707   0.14741733 
  192200    293.29316   -564.17911    149323.95   -47594.979    4027.6752   -51622.654   0.14782599 
  192400    289.98699   -333.88391    149033.41   -47604.285    3982.2729   -51586.558   0.14330411 
  192600    285.11708   -480.17682     149124.5   -47633.733    3915.3965   -51549.129   0.14907935 
  192800    286.88437   -679.14561    149431.32   -47607.151     3939.666   -51546.817   0.15512737 
  193000    291.46714   -549.96423    149262.97   -47598.732    4002.5993   -51601.331   0.15121506 
  193200    293.04366   -314.62888    148954.34   -47554.793     4024.249   -51579.042   0.14492742 
  193400    293.44231   -494.25398    149228.84   -47557.275    4029.7235   -51586.998    0.1466934 
  193600    290.63861   -770.35864    149568.75   -47565.519    3991.2215   -51556.741   0.15315673 
  193800    284.89962   -444.58381       149163   -47615.898    3912.4102   -51528.308   0.15139851 
  194000    289.02207   -194.46827    148782.84   -47645.021    3969.0222   -51614.043   0.14854608 
  194200    289.20108   -597.89533    149326.31   -47627.125    3971.4804   -51598.605   0.15120553 
  194400    287.88415   -820.33041    149664.59   -47604.355    3953.3956    -51557.75   0.15247017 
  194600    289.61912    -313.2894     149004.7   -47634.168    3977.2211   -51611.389    0.1392686 
  194800    287.00407   -173.29197    148760.81   -47621.423    3941.3097   -51562.733   0.14960862 
  195000    288.93757   -748.24413    149479.87   -47599.974    3967.8618   -51567.835   0.16086667 
  195200    290.15389   -789.66143    149573.12   -47583.042     3984.565   -51567.607   0.15597303 
  195400    291.32065   -181.18875    148796.38   -47589.767    4000.5876   -51590.355    0.1424766 
  195600    289.43478   -236.06614    148856.31    -47595.14    3974.6897    -51569.83   0.14299099 
  195800    289.73344   -831.05964    149618.86   -47632.603    3978.7911   -51611.394   0.15145808 
  196000    287.15077   -646.72816    149383.96   -47604.062    3943.3244   -51547.386   0.15243752 
  196200    291.65348    -115.4802    148704.86   -47595.575    4005.1582   -51600.733   0.14570983 
  196400    289.40893   -383.05218    149086.59   -47594.484    3974.3348   -51568.818   0.14986837 
  196600    283.46799   -877.26896    149680.95   -47654.516    3892.7502   -51547.266   0.14848546 
  196800    290.72894   -509.47693     149220.7   -47650.344    3992.4619   -51642.806   0.14374289 
  197000    290.55409   -158.76429    148751.68   -47663.933    3990.0607   -51653.994   0.14675701 
  197200    282.01057   -539.18003    149260.92   -47716.837     3872.736   -51589.573   0.14864479 
  197400    286.54085   -786.45302    149617.81   -47671.088    3934.9486   -51606.037   0.15093363 
  197600    296.87387   -360.98011    149100.93   -47589.863    4076.8476   -51666.711    0.1370653 
  197800    288.98982   -276.72869    148915.65   -47577.852    3968.5793   -51546.431   0.14746937 
  198000    290.09292   -637.82213    149391.54   -47603.859    3983.7277   -51587.587   0.15088975 
  198200    287.00208   -663.59861    149456.05   -47627.771    3941.2824   -51569.053   0.15168791 
  198400    289.48408   -334.59778    149020.51   -47559.376    3975.3667   -51534.743   0.14677599 
  198600    286.77125   -393.02615    149078.02   -47549.953    3938.1126   -51488.066   0.14594218 
  198800     289.4734    -681.3414    149508.43   -47579.983    3975.2201   -51555.203   0.14880843 
  199000    295.45852   -609.31628       149386   -47588.223    4057.4113   -51645.635   0.14731132 
  199200    293.35673   -268.49148    148993.16   -47584.489    4028.5483   -51613.038   0.14019504 
  199400    288.95719    -506.4566    149192.46   -47595.539    3968.1312    -51563.67   0.14981678 
  199600    290.67533   -688.63156    149514.15   -47615.328    3991.7257   -51607.053   0.15055818 
  199800    288.14229   -475.77957    149248.86   -47595.718    3956.9405   -51552.659   0.14580898 
  200000     292.9834   -321.14698    148973.75   -47617.582    4023.4215   -51641.003   0.14301073 
Loop time of 108.09 on 6 procs for 200000 steps with 4608 atoms

Performance: 799.336 ns/day, 0.030 hours/ns, 1850.315 timesteps/s
97.9% CPU use with 6 MPI tasks x no OpenMP threads

MPI task timing breakdown:
Section |  min time  |  avg time  |  max time  |%varavg| %total
---------------------------------------------------------------
Pair    | 76.223     | 76.688     | 77.161     |   4.2 | 70.95
Neigh   | 12.187     | 12.35      | 12.659     |   6.1 | 11.43
Comm    | 8.434      | 9.0056     | 9.5442     |  12.0 |  8.33
Output  | 3.0487     | 3.0497     | 3.0533     |   0.1 |  2.82
Modify  | 5.5967     | 5.7066     | 5.7908     |   2.8 |  5.28
Other   |            | 1.29       |            |       |  1.19

Nlocal:        768.000 ave         780 max         754 min
Histogram: 1 1 0 0 0 1 0 1 1 1
Nghost:        1395.50 ave        1410 max        1378 min
Histogram: 1 0 1 0 0 2 0 0 0 2
Neighs:        0.00000 ave           0 max           0 min
Histogram: 6 0 0 0 0 0 0 0 0 0
FullNghs:      21880.0 ave       22205 max       21414 min
Histogram: 1 0 0 1 0 1 0 1 1 1

Total # of neighbors = 131280
Ave neighs/atom = 28.489583
Neighbor list builds = 12551
Dangerous builds = 0
write_data		data.${NAME}
write_data		data.ice_289K_-500atm_ML
System init for write_data ...
Total wall time: 0:02:40
