
# Create simulation box of size 50 x 50 x 50 Angstrom
#
lattice	            sc 1
Lattice spacing in x,y,z = 1.0000000 1.0000000 1.0000000
region 	            all block 0 ${X} ${YZ_LO} ${YZ_HI} ${YZ_LO} ${YZ_HI} units box
region 	            all block 0 53.4 ${YZ_LO} ${YZ_HI} ${YZ_LO} ${YZ_HI} units box
region 	            all block 0 53.4 -0.03170051379071026.0 ${YZ_HI} ${YZ_LO} ${YZ_HI} units box
region 	            all block 0 53.4 -0.03170051379071026.0 50.93882051379052.0 ${YZ_LO} ${YZ_HI} units box
region 	            all block 0 53.4 -0.03170051379071026.0 50.93882051379052.0 -0.03170051379071026.0 ${YZ_HI} units box
region 	            all block 0 53.4 -0.03170051379071026.0 50.93882051379052.0 -0.03170051379071026.0 50.93882051379052.0 units box
create_box          1 all
Created orthogonal box = (0.0000000 -0.031700514 -0.031700514) to (53.400000 50.938821 50.938821)
  3 by 1 by 2 MPI processor grid

# fill box with 4175 randomly distributed atoms
#
create_atoms        1 random 4608 63782 all
Created 4608 atoms
  create_atoms CPU = 0.001 seconds
mass                1 18.015

# Define potential
#
pair_style          sw
pair_coeff          * * /data/emrosky-sim/Freezing_Simulations/Melting/MLmW_fancy/ML_mW.sw mW
Reading sw potential file /data/emrosky-sim/Freezing_Simulations/Melting/MLmW_fancy/ML_mW.sw with DATE: 2019-02-27

# Run minimization
#
minimize            1.0e-8 1.0e-8 10000 1000
WARNING: Using 'neigh_modify every 1 delay 0 check yes' setting during minimization (../min.cpp:187)
Neighbor list info ...
  update every 1 steps, delay 0 steps, check yes
  max neighbors/atom: 2000, page size: 100000
  master list distance cutoff = 6.0032907
  ghost atom cutoff = 6.0032907
  binsize = 3.0016454, bins = 18 17 17
  1 neighbor lists, perpetual/occasional/extra = 1 0 0
  (1) pair sw, perpetual
      attributes: full, newton on
      pair build: full/bin/atomonly
      stencil: full/bin/3d
      bin: standard
Per MPI rank memory allocation (min/avg/max) = 4.234 | 4.248 | 4.253 Mbytes
Step Temp E_pair E_mol TotEng Press 
       0            0    7240024.6            0    7240024.6      4960201 
     662            0   -49947.502            0   -49947.502   -401.98146 
Loop time of 1.20914 on 6 procs for 662 steps with 4608 atoms

99.6% CPU use with 6 MPI tasks x no OpenMP threads

Minimization stats:
  Stopping criterion = max force evaluations
  Energy initial, next-to-last, final = 
      7240024.61361043  -49946.8189321759  -49947.5024082535
  Force two-norm initial, final = 1.6638867e+08 7.5624507
  Force max component initial, final = 88499813.0 2.7080447
  Final line search alpha, max atom move = 0.052986975 0.14349109
  Iterations, force evaluations = 662 1001

MPI task timing breakdown:
Section |  min time  |  avg time  |  max time  |%varavg| %total
---------------------------------------------------------------
Pair    | 1.0136     | 1.0511     | 1.1159     |   3.9 | 86.93
Neigh   | 0.029275   | 0.029997   | 0.030585   |   0.3 |  2.48
Comm    | 0.042069   | 0.10734    | 0.14565    |  12.4 |  8.88
Output  | 0          | 0          | 0          |   0.0 |  0.00
Modify  | 0          | 0          | 0          |   0.0 |  0.00
Other   |            | 0.02074    |            |       |  1.72

Nlocal:        768.000 ave         787 max         750 min
Histogram: 2 0 0 0 1 1 0 0 0 2
Nghost:        1575.67 ave        1599 max        1550 min
Histogram: 1 0 0 1 1 1 0 0 1 1
Neighs:        0.00000 ave           0 max           0 min
Histogram: 6 0 0 0 0 0 0 0 0 0
FullNghs:      21893.0 ave       22799 max       21299 min
Histogram: 2 1 0 0 1 0 0 1 0 1

Total # of neighbors = 131358
Ave neighs/atom = 28.506510
Neighbor list builds = 29
Dangerous builds = 0

# Add velocity/set timestep
#
velocity            all create ${TEMP} 120598 rot yes dist gaussian
velocity            all create 289 120598 rot yes dist gaussian
timestep            5.0

# Define output
#
compute	            1 all msd
thermo	            100
thermo_style        custom step temp press vol etotal ke pe c_1[4] density

# Neighbor lists
#
neigh_modify        delay 0 every 1 check yes

# Set fixes
#
fix                 1 all momentum 10 linear 1 1 1 rescale
fix                 2 all nve
fix                 3 all temp/csvr ${TEMP} ${TEMP} 500.0 928347
fix                 3 all temp/csvr 289 ${TEMP} 500.0 928347
fix                 3 all temp/csvr 289 289 500.0 928347
fix                 4 all press/berendsen iso ${PRES} ${PRES} 1000.0 modulus 20000
fix                 4 all press/berendsen iso -500 ${PRES} 1000.0 modulus 20000
fix                 4 all press/berendsen iso -500 -500 1000.0 modulus 20000

# Run 0.5 ns equilibration
#
dump                1 all custom 1000 eq.${NAME}.dump id type x y z vx vy vz
dump                1 all custom 1000 eq.liq_289K_-500atm_ML.dump id type x y z vx vy vz
run                 100000
Per MPI rank memory allocation (min/avg/max) = 3.484 | 3.499 | 3.503 Mbytes
Step Temp Press Volume TotEng KinEng PotEng c_1[4] Density 
     662          289    905.70554    138732.88   -45978.783    3968.7191   -49947.502            0   0.99361101 
     700    153.71955   -737.43746    139692.17   -45244.609    2110.9679   -47355.577   0.22373534   0.98678772 
     800     215.1327   -384.58369    140012.82   -43922.924    2954.3296   -46877.253   0.69580995   0.98452781 
     900    238.95676   -544.23775    140464.35   -43124.291    3281.4956   -46405.787    1.2237751     0.981363 
    1000    254.27801   -620.59616    140561.28   -42538.963    3491.8961    -46030.86     1.890936   0.98068626 
    1100    264.62933   -640.47795    140444.24   -42116.187    3634.0466   -45750.234    2.6133316   0.98150356 
    1200    274.50444   -419.77401    140294.76   -41821.065    3769.6575   -45590.723    3.4922548   0.98254929 
    1300    280.54252   -484.18552    140361.87   -41564.846    3852.5759   -45417.422    4.4720947   0.98207954 
    1400    283.41144   -600.41312    140237.25   -41526.307    3891.9737   -45418.281    5.4186537   0.98295226 
    1500    280.02276   -423.98525    140318.91   -41396.559    3845.4383   -45241.997    6.4186888   0.98238021 
    1600     288.1763   -1016.4625       140359    -41356.02    3957.4075   -45313.428    7.4158631   0.98209957 
    1700    285.62996   -153.88852    140503.34   -41354.317    3922.4397   -45276.756    8.3866866   0.98109069 
    1800    283.07067   -274.32173    140992.05   -41274.941     3887.294   -45162.235    9.4265651   0.97768997 
    1900     288.1468   -580.59597    141113.67   -41210.483    3957.0024   -45167.485    10.406952   0.97684736 
    2000    288.74237   -455.00663    141200.18   -41142.578    3965.1812   -45107.759    11.584581   0.97624889 
    2100    284.94196   -478.86358    141171.64    -41247.86    3912.9917   -45160.852    12.664625   0.97644626 
    2200    289.67176   -542.46558    141117.76   -41220.857    3977.9441   -45198.801    13.637957   0.97681906 
    2300    288.17243   -564.85053    140863.77   -41187.988    3957.3543   -45145.342    14.705916   0.97858033 
    2400    287.00272   -511.85668    140686.51   -41204.365    3941.2913   -45145.657    15.726821   0.97981331 
    2500    287.69647   -386.00713    140595.19     -41162.7    3950.8182   -45113.518    16.836202   0.98044976 
    2600    290.53052   -469.34792    140272.71   -41057.499    3989.7371   -45047.236    18.161417   0.98270375 
    2700    287.20468   -480.61516    139982.22   -41141.995    3944.0646    -45086.06    19.408431   0.98474306 
    2800    289.02598   -568.67466    139835.33   -41163.138    3969.0758   -45132.214    20.799864   0.98577744 
    2900    294.11325   -569.31132    139877.49   -41137.307    4038.9372   -45176.244    22.200897   0.98548031 
    3000    290.72097   -495.47592     140092.8   -41098.022    3992.3525   -45090.375    23.537559   0.98396577 
    3100    291.58838   -358.25014    140095.35   -41115.193    4004.2642   -45119.457      24.5853   0.98394783 
    3200    292.74579   -620.00194    140028.32   -41130.452    4020.1584   -45150.611    25.785747   0.98441886 
    3300    289.35415   -245.40534    140103.16   -41124.211    3973.5824   -45097.794    26.935297   0.98389301 
    3400    294.42331   -313.02639    140131.35   -41126.206    4043.1952   -45169.401    28.128768   0.98369508 
    3500     290.0519   -511.67727    140358.82   -41033.587    3983.1644   -45016.751    29.199303   0.98210084 
    3600     287.9854   -499.56252    140101.89   -41108.317     3954.786   -45063.103    30.213975   0.98390192 
    3700    288.76435   -354.32126    140307.81   -41079.889    3965.4829   -45045.372    31.430148   0.98245787 
    3800    288.80387   -729.32314    140359.22   -41070.559    3966.0257   -45036.585    32.625058   0.98209805 
    3900    288.46507   -547.70307    140415.24   -41222.172    3961.3731   -45183.545    33.901668   0.98170621 
    4000    284.28624   -750.74384     140302.1   -41207.802    3903.9868   -45111.789    34.931746    0.9824979 
    4100    286.93967   -366.14331    140101.65   -41112.889    3940.4254   -45053.315    36.360875   0.98390356 
    4200    292.33431   -255.05012    140165.64   -41112.093    4014.5078   -45126.601    37.373965   0.98345444 
    4300    291.44972     -515.188    140266.49   -41091.426      4002.36   -45093.786     38.43545   0.98274733 
    4400    289.01327   -599.19756    140093.92   -41080.175    3968.9014   -45049.077    39.433149   0.98395791 
    4500    292.09709   -278.09349     139992.5   -41122.514    4011.2502   -45133.764    40.559595   0.98467069 
    4600    288.63564   -497.02863    139976.12   -41128.005    3963.7154    -45091.72    41.473283   0.98478593 
    4700    288.75085   -751.36703    140010.82   -41143.201    3965.2976   -45108.498    42.231501   0.98454192 
    4800    287.30849   -309.66223    140087.82   -41106.092    3945.4902   -45051.582    43.402011   0.98400071 
    4900    287.16986   -545.97955    139970.06   -41085.122    3943.5864   -45028.709    44.483554    0.9848286 
    5000    294.71672   -576.22758    139886.89   -41095.053    4047.2245   -45142.278    45.420607   0.98541413 
    5100    291.46246   -521.75345    139853.38   -41130.744     4002.535   -45133.279     47.31334   0.98565026 
    5200    283.67153   -603.84537    140098.74   -41191.911    3895.5453   -45087.457    48.717176   0.98392404 
    5300    292.25442   -417.15671    140431.48   -41183.497    4013.4106   -45196.908    50.102499   0.98159273 
    5400    289.42632   -690.16989    140187.47   -41077.758    3974.5736   -45052.332    51.368278   0.98330124 
    5500    293.16205     -525.192    140270.09   -41072.486    4025.8748   -45098.361    52.500068   0.98272207 
    5600    286.46121   -402.77017    139995.88   -41021.237    3933.8549   -44955.092    53.813252   0.98464692 
    5700    288.72279   -463.79046    140040.62   -41085.464    3964.9122   -45050.376    55.089186   0.98433241 
    5800    297.46753   -437.04637    140179.78   -41032.278    4085.0002   -45117.278    56.226795   0.98335523 
    5900    284.72509   -531.60152     139912.7   -41265.564    3910.0134   -45175.578     57.09867   0.98523231 
    6000    281.76555   -496.92539    139936.19   -41273.735    3869.3713   -45143.107    58.433693   0.98506699 
    6100    291.80903   -671.92722    139722.97    -41193.98    4007.2944   -45201.275    59.224053   0.98657018 
    6200    281.71351    -372.7351    139694.05   -41265.481    3868.6567   -45134.138    60.230838   0.98677442 
    6300    282.39067   -525.44371    139898.76   -41206.382    3877.9559   -45084.337    61.104415   0.98533051 
    6400    286.75186   -552.08544    140121.59   -41235.331    3937.8462   -45173.177    62.321153   0.98376356 
    6500    290.82793   -757.86574    140401.51   -41211.957    3993.8213   -45205.778    63.483921   0.98180226 
    6600    282.90336   -695.20592    140217.44    -41256.68    3884.9964   -45141.677    64.994976   0.98309111 
    6700    279.48702   -458.41534    139829.05   -41259.651    3838.0812   -45097.732     66.18179   0.98582173 
    6800    282.42989   -351.51324    139673.19   -41309.206    3878.4944   -45187.701    67.369498   0.98692178 
    6900    290.94024   -336.35531    140054.15   -41230.969    3995.3636   -45226.333    68.548341    0.9842373 
    7000     287.5318   -363.31499     140188.5   -41137.061    3948.5568   -45085.618    70.268577   0.98329408 
    7100      286.286   -359.67081    140357.05   -41220.837    3931.4488   -45152.286     71.54149   0.98211325 
    7200    281.95483    -550.9114    140291.69   -41245.806    3871.9706   -45117.776    72.622782   0.98257081 
    7300    284.25119   -289.27671    140473.65   -41243.843    3903.5056   -45147.349    73.739969   0.98129804 
    7400    283.86161   -372.51212    140399.98   -41309.338    3898.1556   -45207.494    74.716681   0.98181293 
    7500    288.70814   -534.43649    140435.63   -41185.923     3964.711   -45150.634    75.772333    0.9815637 
    7600    284.58802   -238.80184    140518.16   -41217.987    3908.1312   -45126.119    76.375216    0.9809872 
    7700    291.61863   -543.62514    140547.56   -41179.948    4004.6796   -45184.628    77.150801   0.98078198 
    7800     288.0143   -425.61323    140580.76   -41225.106    3955.1829   -45180.289    78.227343    0.9805504 
    7900    282.01851   -511.73173    140632.61   -41365.503    3872.8451   -45238.348    79.526385   0.98018886 
    8000    281.29178    -422.9784    140445.21   -41351.832    3862.8652   -45214.697    80.865986   0.98149671 
    8100    287.47292   -881.75945    140254.93    -41247.14    3947.7483   -45194.889    81.867239   0.98282833 
    8200    287.80591   -454.10089    139940.26   -41247.098    3952.3211   -45199.419    82.841814   0.98503832 
    8300    287.21871   -387.23046    139933.61   -41187.595    3944.2573   -45131.852    84.128667   0.98508513 
    8400    286.25117   -179.43882    140238.73   -41257.163    3930.9705   -45188.134    85.122223   0.98294187 
    8500    281.87871    -615.2906    140159.45   -41237.449    3870.9253   -45108.374    86.248907   0.98349786 
    8600    283.77383   -611.65692    139947.31   -41203.424    3896.9502   -45100.375    87.151282   0.98498867 
    8700     284.2275   -497.77013    139901.98   -41134.666    3903.1803   -45037.846    88.476605    0.9853078 
    8800    291.98385   -424.14035    140076.41   -41083.354    4009.6951   -45093.049    89.896587    0.9840809 
    8900    287.72054   -379.35263    140268.27   -41134.692    3951.1488   -45085.841    90.618469   0.98273483 
    9000    291.47781   -483.47652     140401.3   -41054.439    4002.7458   -45057.185    91.605972   0.98180369 
    9100    291.97262   -569.09815    140407.66    -41087.77    4009.5408   -45097.311    92.925508   0.98175927 
    9200    287.47498   -412.69994    140203.18   -41138.765    3947.7766   -45086.542    93.792617   0.98319109 
    9300    291.41492   -305.92493    140250.01   -41103.985    4001.8822   -45105.867    95.050707   0.98286281 
    9400    287.32452   -427.90427     140573.4   -41147.415    3945.7104   -45093.125    96.816027   0.98060174 
    9500    288.71645   -770.99317    140627.84   -41155.865    3964.8252    -45120.69    98.305736    0.9802221 
    9600    283.94919   -567.42452    140313.86   -41207.374    3899.3584   -45106.733    99.421896   0.98241553 
    9700     283.4194   -501.54447    140499.95   -41166.769    3892.0829   -45058.852    101.03082   0.98111432 
    9800    292.14341   -345.95647     140489.3   -41112.024    4011.8862    -45123.91    102.27362   0.98118872 
    9900    289.37763   -410.99372    140330.35   -41100.161    3973.9049   -45074.065    103.65953   0.98230012 
   10000    284.58935   -505.47746    140083.75   -41226.742    3908.1493   -45134.892     104.4111   0.98402929 
   10100     288.0187   -694.43223    139949.29   -41184.541    3955.2433   -45139.785     105.7898   0.98497474 
   10200    288.28656   -336.95324    140166.38   -41209.612    3958.9216   -45168.534    107.08694   0.98344921 
   10300    289.16873   -420.21169    140062.25   -41139.074    3971.0362    -45110.11     107.8719   0.98418037 
   10400     293.2093   -405.40928    140240.97   -41068.768    4026.5237   -45095.292    108.63519   0.98292618 
   10500    292.33234   -630.68243    140313.29   -41089.659    4014.4807   -45104.139    109.35187   0.98241953 
   10600    290.04857   -343.10756    140195.39   -41069.838    3983.1187   -45052.957    109.88349   0.98324571 
   10700    292.40438   -709.35306     140110.4   -41116.745      4015.47   -45132.215    111.01336   0.98384213 
   10800    296.18712   -577.70468    139945.86   -41067.417    4067.4168   -45134.834    111.74184   0.98499886 
   10900    291.74171   -330.68595    139817.06   -41023.033    4006.3699   -45029.403     113.1581   0.98590627 
   11000    289.80358    -469.6901    140108.92    -41040.25    3979.7543   -45020.004    114.94572   0.98385256 
   11100    291.61909   -540.64638    140402.17   -41065.545    4004.6859   -45070.231      116.105   0.98179764 
   11200      285.157   -439.78865    140456.23   -41077.886    3915.9447   -44993.831    117.65405   0.98141971 
   11300    292.44972   -615.04956    140158.74   -41136.247    4016.0926    -45152.34    118.34439   0.98350283 
   11400    287.70517   -460.51681    140165.55   -41167.842    3950.9377    -45118.78    119.88307   0.98345501 
   11500    284.44693   -803.61907    139761.79   -41292.276    3906.1936    -45198.47    120.84906   0.98629617 
   11600    282.06791   -432.47106    139388.11   -41353.083    3873.5235   -45226.606    121.94433   0.98894027 
   11700    290.96062   -394.34212    139869.59   -41166.178    3995.6435   -45161.821    122.98302   0.98553602 
   11800    287.31406   -469.03452    139931.85   -41218.432    3945.5668   -45163.999    124.25243   0.98509752 
   11900    284.89446   -502.02475    139714.71    -41312.05    3912.3393   -45224.389     125.4147   0.98662852 
   12000    287.97406   -608.71473    139785.78   -41299.984    3954.6302   -45254.615    126.38121    0.9861269 
   12100    282.17993   -611.76621    139891.31   -41243.927    3875.0619   -45118.988    127.57632   0.98538297 
   12200    288.98148   -276.65362    140022.45   -41079.759    3968.4648   -45048.224    128.66479   0.98446014 
   12300    292.19514   -588.39002    139961.43   -41059.905    4012.5966   -45072.502    129.74538   0.98488929 
   12400    294.76033   -378.44893    140082.95   -40979.262    4047.8233   -45027.085    131.25093   0.98403494 
   12500    290.68558   -746.27433    140066.03   -41050.101    3991.8664   -45041.967    132.63993   0.98415379 
   12600    292.80045   -270.30611    140227.24   -41075.721    4020.9091    -45096.63    133.69862   0.98302238 
   12700    287.81838   -432.00545    139992.83   -41051.119    3952.4923   -45003.612    134.80018   0.98466837 
   12800    287.65176   -436.35301    140049.85   -41088.299    3950.2042   -45038.503    136.30375   0.98426753 
   12900    293.08012   -576.75601    140102.61   -41085.737    4024.7497   -45110.487    137.24868   0.98389683 
   13000    284.52853     -698.722    140114.88   -41143.279    3907.3142   -45050.593     138.8605   0.98381071 
   13100    288.83285   -636.31391    139936.85   -41090.474    3966.4237   -45056.898    139.81395   0.98506231 
   13200    297.12861   -386.70655    140019.95   -41000.146    4080.3459   -45080.492    141.30047   0.98447766 
   13300    292.02942   -336.08788    140150.63   -41063.501    4010.3209   -45073.822    142.70627   0.98355972 
   13400    293.69941   -380.32125    140479.03   -41119.957    4033.2541   -45153.211    143.89132   0.98126047 
   13500    279.95944   -400.15343    140448.68   -41111.847    3844.5688   -44956.416    145.10989   0.98147249 
   13600    287.07511   -511.98642    140408.19   -41121.618    3942.2854   -45063.903    146.32137   0.98175554 
   13700    285.31768   -383.81311    140336.22   -41159.153    3918.1513   -45077.305     147.7823     0.982259 
   13800    283.52058   -281.53567    140279.27   -41225.053    3893.4724   -45118.525    149.20957   0.98265778 
   13900    289.32015   -413.08327     140235.4   -41233.413    3973.1155   -45206.529    150.25135   0.98296521 
   14000    285.33989   -633.65009    140399.58   -41295.288    3918.4562   -45213.744    151.28655   0.98181571 
   14100    284.30283   -366.55589    140316.97   -41240.016    3904.2148   -45144.231    152.38732   0.98239379 
   14200    287.70465    -522.9863     140410.8   -41220.256    3950.9305   -45171.186    153.25858   0.98173731 
   14300    284.70919   -627.21824    140422.66   -41275.087    3909.7951   -45184.882     154.3756   0.98165433 
   14400    290.88415   -584.37314    140810.87   -41192.195    3994.5934   -45186.788    155.54236     0.978948 
   14500    285.55938   -314.18506     140686.2   -41235.479    3921.4705   -45156.949    156.89425   0.97981547 
   14600    289.04032   -445.00662    140686.75   -41112.928    3969.2727   -45082.201    157.99823   0.97981163 
   14700    288.39754   -720.22624    140826.66   -41098.196    3960.4457   -45058.641    159.10442   0.97883824 
   14800    289.33517   -484.20058    140578.94   -41148.671    3973.3219   -45121.993    159.77163   0.98056306 
   14900    290.01929   -628.57166    140394.92   -41113.541    3982.7166   -45096.258    160.67768   0.98184831 
   15000    281.62642   -474.97437    140193.78   -41194.393    3867.4607   -45061.854    162.13684   0.98325702 
   15100    290.58944   -553.24203    140148.19   -41177.941    3990.5462   -45168.487    163.54547   0.98357689 
   15200     285.8401   -639.26097     140138.5   -41243.426    3925.3254   -45168.752    164.84859   0.98364484 
   15300     290.7213   -492.49702    140207.39   -41161.672    3992.3569   -45154.029    166.09572   0.98316156 
   15400    294.20405   -327.59874    140650.55   -41048.551    4040.1842   -45088.735    167.44471   0.98006386 
   15500    286.21982   -296.53569    140602.37   -41154.579      3930.54   -45085.119    168.85919   0.98039969 
   15600    289.52997   -493.25006     140344.3   -41204.419     3975.997   -45180.416    169.63034   0.98220244 
   15700    284.49779   -482.73025    140391.75   -41219.095     3906.892   -45125.987    171.08774   0.98187049 
   15800    286.48911   -640.96188    140310.89   -41203.564    3934.2381   -45137.802    172.56303   0.98243631 
   15900    292.87975   -594.24614    140378.51   -41176.073    4021.9981   -45198.071      173.687   0.98196313 
   16000    288.05074   -536.49455    140397.65   -41237.672    3955.6832   -45193.355    174.84997    0.9818292 
   16100    287.51286   -489.27069    140217.44   -41267.101    3948.2967   -45215.398    175.94644    0.9830911 
   16200    293.64367   -678.82365    140179.26   -41118.618    4032.4887   -45151.107    176.96868   0.98335885 
   16300    290.56832   -246.16241    140349.73    -41071.57    3990.2562   -45061.826    178.03681   0.98216443 
   16400    292.22364   -427.13114     140522.4   -41051.206     4012.988   -45064.194    179.08875   0.98095763 
   16500    292.50602   -285.09541    140504.61   -41040.455    4016.8658   -45057.321    180.41786   0.98108179 
   16600    293.53925   -355.12935    140496.31   -41060.073    4031.0548   -45091.128    181.99325    0.9811398 
   16700    290.15149   -563.09509     140776.6    -41208.33     3984.532   -45192.862    183.47885   0.97918632 
   16800     290.7066   -576.11697    140881.66       -41190    3992.1551   -45182.156    184.88601    0.9784561 
   16900    291.63813   -539.25032     140722.7   -41185.503    4004.9474   -45190.451    186.12459   0.97956135 
   17000    289.71715   -570.01092    140835.76   -41195.518    3978.5674   -45174.086    187.02084     0.978775 
   17100    291.06872   -652.90976    141016.08   -41201.565     3997.128   -45198.693    188.06181   0.97752338 
   17200    292.70779   -312.86789    141056.49   -41150.236    4019.6367   -45169.872    188.95869   0.97724334 
   17300    292.48976   -676.33045     141083.5   -41192.629    4016.6425   -45209.271    190.14207   0.97705628 
   17400     288.2864   -463.34526    140959.91   -41214.519    3958.9195   -45173.439    191.26841   0.97791294 
   17500    286.27536   -459.50054    141085.89   -41227.837    3931.3027   -45159.139    192.56577   0.97703969 
   17600    283.78515   -355.69032    140947.06   -41248.132    3897.1057   -45145.238    193.74147   0.97800206 
   17700    285.87402     -410.326    140490.28   -41169.867    3925.7913   -45095.658    194.71637   0.98118186 
   17800    289.86776   -679.25601    140629.57   -41215.981    3980.6357   -45196.617    195.84454   0.98021005 
   17900    292.04039   -224.90055    140322.93   -41238.641    4010.4716   -45249.112    197.14837   0.98235207 
   18000    283.58295   -553.30871     140493.1   -41274.213    3894.3289   -45168.542    197.99766   0.98116219 
   18100    288.77974   -477.38921    140291.94    -41280.28    3965.6943   -45245.974    198.81227   0.98256903 
   18200    287.84891   -686.56642    140221.86   -41211.077    3952.9116   -45163.988     199.8241   0.98306012 
   18300    288.12478   -405.31316    140480.54   -41262.012       3956.7   -45218.712    200.68462    0.9812499 
   18400    285.67251   -393.92751    140143.07    -41314.46     3923.024   -45237.484    200.88763    0.9836128 
   18500    288.04997   -457.27105    139959.47   -41230.161    3955.6727   -45185.833    201.58132   0.98490308 
   18600    283.10424   -452.33729    139817.77   -41261.733     3887.755   -45149.488    202.48635   0.98590124 
   18700    291.98875   -281.83706    140619.46   -41120.182    4009.7623   -45129.944     204.6286   0.98028051 
   18800    290.73281   -670.42237    140550.27   -41190.977    3992.5151   -45183.492    205.11281   0.98076307 
   18900    286.45825   -473.41548    140540.81   -41196.192    3933.8142   -45130.006    206.34283    0.9808291 
   19000    285.78966   -776.92148    140417.47   -41171.373    3924.6328   -45096.006    207.40786   0.98169062 
   19100    283.19672   -459.19872    140396.86    -41206.67     3889.025   -45095.695    208.82502   0.98183472 
   19200    287.91714   -559.41145    140078.43   -41173.034    3953.8486   -45126.882    209.40872   0.98406669 
   19300    294.23409   -477.93421    139937.23   -41182.551    4040.5966   -45223.147     210.7831   0.98505965 
   19400    286.48444   -687.93696    140122.26   -41225.348    3934.1739   -45159.522    211.48026   0.98375888 
   19500    286.31518   -397.56597    140074.19   -41150.947    3931.8496   -45082.796    212.12889   0.98409651 
   19600    289.45974   -488.26029    139804.07   -41127.901    3975.0325   -45102.933    213.43109   0.98599789 
   19700    295.17392   -432.68667    140003.54   -41163.365     4053.503   -45216.868     215.3907   0.98459306 
   19800    290.65371   -492.06789    140213.86    -41169.95    3991.4288   -45161.379    216.70605   0.98311617 
   19900    294.28743   -480.65492    140269.45   -41101.106    4041.3292   -45142.436    218.49494    0.9827266 
   20000    288.17477   -676.99227    140199.79   -41058.114    3957.3865   -45015.501    220.07755   0.98321489 
   20100    292.43099   -355.02459    140339.69   -41078.141    4015.8355   -45093.977     221.8187    0.9822347 
   20200    297.51636   -474.86776    140097.72   -41063.204    4085.6707   -45148.875    223.13316   0.98393116 
   20300    293.82365   -427.89666    140630.41    -41039.97    4034.9603    -45074.93    225.00536   0.98020417 
   20400    298.98725   -593.53375    140312.76   -41076.677    4105.8699   -45182.547     225.8919   0.98242325 
   20500    295.04207   -501.25203    140271.87   -41010.582    4051.6923   -45062.274    226.80621   0.98270964 
   20600     288.2893   -553.58032    140203.99   -41129.782    3958.9593   -45088.742    228.40637   0.98318541 
   20700    287.34006   -436.77861    140000.26   -41181.042    3945.9237   -45126.966    229.73037   0.98461616 
   20800    290.54099   -747.37784    140082.37   -41243.452    3989.8808   -45233.333    231.36039   0.98403902 
   20900    287.45697   -545.62798    140310.57   -41216.666    3947.5293   -45164.196    233.04689   0.98243858 
   21000     289.9805   -145.40711    140078.72   -41122.243    3982.1839   -45104.427    233.81868   0.98406467 
   21100    291.29668   -586.54212    140290.41   -41200.167    4000.2584   -45200.425    235.14693   0.98257974 
   21200    285.25489   -136.04615    140261.75   -41266.856    3917.2891   -45184.145    235.81985   0.98278051 
   21300    289.08016   -468.35722    140497.63   -41254.717    3969.8198   -45224.537    237.42456   0.98113056 
   21400    283.73088   -374.08228    140644.98   -41160.883    3896.3603   -45057.243    238.42147   0.98010262 
   21500    292.48167   -325.30403    140637.05   -41089.158    4016.5314   -45105.689    239.65109   0.98015788 
   21600    285.30658   -579.58201    140777.96   -41119.681    3917.9988    -45037.68    241.28782   0.97917685 
   21700     289.7769   -531.09792    140699.62   -41048.209    3979.3879   -45027.597    242.51748   0.97972201 
   21800    290.27494    -83.48083    140847.39   -41029.907    3986.2273   -45016.135    243.92385   0.97869417 
   21900    290.27319   -350.04845    140722.76   -40979.397    3986.2032     -44965.6    244.85879   0.97956092 
   22000     287.3661   -588.05594    140213.97   -41064.282    3946.2814   -45010.564    244.45785   0.98311542 
   22100    292.22656   -624.54454    140369.55   -40984.925    4013.0281   -44997.953     245.2402   0.98202575 
   22200    291.00795   -518.84592    140257.21   -41001.368    3996.2934   -44997.661    246.29804   0.98281237 
   22300    291.24802   -596.03573    140181.79   -41006.286    3999.5903   -45005.877    247.52707   0.98334109 
   22400    286.97633   -257.32277    140130.62   -41056.196    3940.9288   -44997.125    249.10078   0.98370019 
   22500    291.81654   -316.55377    140325.99   -41130.823    4007.3975   -45138.221    250.52485   0.98233064 
   22600    283.93939   -427.72077    140451.83    -41121.46    3899.2238   -45020.684    251.62292   0.98145047 
   22700    288.63019   -430.13788    140211.91   -41116.891    3963.6406   -45080.531     252.4227   0.98312986 
   22800    289.17183   -607.43201    140127.32   -41249.797    3971.0787   -45220.876    253.37369   0.98372335 
   22900    284.61932    -471.3193    140317.84   -41232.748     3908.561   -45141.309    254.52813   0.98238768 
   23000    289.15847   -694.61403    140074.69    -41125.78    3970.8952   -45096.676    255.14847   0.98409297 
   23100    288.66011   -470.51215    139993.03   -41139.815    3964.0515   -45103.866    255.96127     0.984667 
   23200    289.90167   -574.47274    139862.47   -41170.302    3981.1014   -45151.403    256.36598   0.98558617 
   23300    282.11796   -453.74759    140168.96   -41226.722    3874.2108   -45100.933    257.68061   0.98343109 
   23400    289.58942    -453.0003    140663.76   -41190.385    3976.8134   -45167.198    258.77315   0.97997179 
   23500    293.19469   -612.49658    140618.17   -41220.129     4026.323   -45246.452    259.53138   0.98028953 
   23600    280.55476   -367.69574    140448.58   -41258.899     3852.744   -45111.643     260.3992    0.9814732 
   23700     287.2723   -567.97653     140683.9   -41270.433    3944.9933   -45215.426    262.09703   0.97983148 
   23800    286.79253   -560.64596    140760.28    -41236.21    3938.4048   -45174.615    263.25965   0.97929983 
   23900    293.74941   -546.02618    140747.24   -41137.072    4033.9408   -45171.013    264.21166   0.97939052 
   24000    290.90521    -593.3846    140116.49   -41153.329    3994.8826   -45148.211    265.22413   0.98379938 
   24100    289.86963   -485.57113    140239.85   -41168.571    3980.6613   -45149.232    266.47608   0.98293402 
   24200    291.82351   -597.46424     140119.1   -41062.584    4007.4932   -45070.077    267.75999   0.98378107 
   24300    290.44075   -680.82079    139709.55    -41116.74    3988.5043   -45105.244     268.8018   0.98666495 
   24400    288.86338   -486.69977     139544.3   -41076.442    3966.8429   -45043.285    270.38174   0.98783338 
   24500     291.8396    -282.2598    139793.64   -41057.974    4007.7141   -45065.688    272.19229   0.98607145 
   24600    289.71751   -530.16395     139500.2   -41134.483    3978.5723   -45113.056    272.88146   0.98814564 
   24700    295.33925   -593.12198    139526.91   -41067.042    4055.7734   -45122.815    275.18269   0.98795646 
   24800    290.27713   -683.86947    139724.33   -41073.277    3986.2574   -45059.535    277.64977   0.98656058 
   24900    290.48737   -443.93041    139896.34   -41133.985    3989.1446    -45123.13     279.0686   0.98534755 
   25000    289.20927    -543.2228    140145.98   -41131.969    3971.5929   -45103.562    280.35654   0.98359237 
   25100     286.3655   -664.19943    140147.01   -41159.581    3932.5405   -45092.121    281.28125   0.98358512 
   25200    286.22502   -452.21356    140058.04    -41180.09    3930.6113   -45110.701    282.66438   0.98420994 
   25300    286.27214   -591.07877    139880.31   -41222.978    3931.2585   -45154.237    282.59438    0.9854605 
   25400    289.30411   -692.07855     139862.2   -41153.615    3972.8952   -45126.511    283.20994    0.9855881 
   25500    288.14337   -329.57242    139788.67   -41185.249    3956.9553   -45142.204    284.30496   0.98610649 
   25600    293.30216   -371.96286    139995.46   -41231.252    4027.7989   -45259.051    285.88252   0.98464988 
   25700    286.96162   -545.37627    139924.92   -41228.114    3940.7268    -45168.84    286.65923   0.98514632 
   25800    283.02183   -567.19593    140043.99   -41309.947    3886.6233   -45196.571      287.487   0.98430868 
   25900    284.93166    -523.1479    139683.61   -41356.144    3912.8502   -45268.995    287.73025   0.98684817 
   26000     285.6555   -452.25969    139747.72   -41235.217    3922.7903   -45158.007    288.60035   0.98639547 
   26100    289.05072   -570.39491    139944.85   -41211.252    3969.4156   -45180.668    290.36368   0.98500599 
   26200    294.74425   -449.92619    139981.07   -41117.701    4047.6025   -45165.304    291.68516   0.98475112 
   26300    289.67463   -654.45743    140116.56   -41178.118    3977.9834   -45156.102    292.89595   0.98379893 
   26400    289.33852   -307.57261    140223.57   -41207.471    3973.3678   -45180.839    294.37728    0.9830481 
   26500    294.24384   -486.62869    140265.99   -41044.667    4040.7306   -45085.397     295.8725   0.98275084 
   26600    293.89551   -420.73106    140204.45    -41137.23    4035.9471   -45173.178    296.43437   0.98318221 
   26700    294.60503   -748.81491    139977.43   -41078.297    4045.6906   -45123.987    297.50701   0.98477674 
   26800    289.55734   -559.38618    139813.94   -41090.458    3976.3727   -45066.831    298.37154    0.9859283 
   26900    288.76412   -471.34572    139851.09    -41196.34    3965.4798   -45161.819     300.2139   0.98566636 
   27000    288.35255   -485.19442    139637.25   -41190.733    3959.8279   -45150.561    300.72551   0.98717582 
   27100    290.57477   -540.67636    139407.31   -41150.896    3990.3448   -45141.241    302.07225   0.98880405 
   27200    289.10512   -527.13345    139637.69   -41118.861    3970.1627   -45089.024    302.93519   0.98717271 
   27300     293.4487   -335.12972    139845.32   -41046.751    4029.8112   -45076.562    304.26076   0.98570705 
   27400    289.87705   -375.28246    140226.22   -41010.153    3980.7632   -44990.916    305.89999   0.98302953 
   27500    289.67247   -744.04107    140301.29     -41077.3    3977.9539   -45055.253    307.36377   0.98250355 
   27600    289.63908   -577.85418    140035.15   -41027.697    3977.4953   -45005.193    308.25807   0.98437083 
   27700    291.90637   -530.03885    139767.56   -41007.138     4008.631   -45015.769     309.4102   0.98625544 
   27800    294.14761   -303.74076    139839.24   -40994.102    4039.4091   -45033.512    311.22533   0.98574991 
   27900    292.33924   -363.74001    139504.19   -41022.963    4014.5755   -45037.538    311.56561   0.98811739 
   28000     288.1786   -349.03718    139833.82   -40910.673    3957.4391   -44868.112    313.68207    0.9857881 
   28100    296.29431    -682.0035    139677.84   -40979.968    4068.8888   -45048.856     314.5956   0.98688897 
   28200    285.84781   -429.03632    139493.88    -41142.59    3925.4314   -45068.021     315.4348   0.98819041 
   28300    291.40399   -614.24474    139764.21    -41139.38     4001.732   -45141.113    317.26012   0.98627905 
   28400    293.40677   -538.26688    139761.86   -41060.887    4029.2354   -45090.122    318.12608   0.98629569 
   28500    289.65869    -336.5431    139599.95   -41146.872    3977.7646   -45124.636     319.1845   0.98743962 
   28600    289.90124   -351.16432    139693.99   -41166.471    3981.0954   -45147.566    320.10322   0.98677482 
   28700    282.57909    -677.3531    139992.96   -41258.569    3880.5434   -45139.112    321.65691    0.9846675 
   28800    284.46836   -274.41784    140076.85     -41185.6    3906.4879   -45092.088    323.24533   0.98407781 
   28900    285.31016    -583.9514    139862.48   -41172.735     3918.048   -45090.783    324.21123   0.98558611 
   29000    285.55844   -644.86816    139810.92   -41128.121    3921.4575   -45049.579    325.60528   0.98594957 
   29100    289.11309    -674.8909    139469.07   -41106.726     3970.272   -45076.998    326.46439   0.98836625 
   29200    289.11885   -441.18205    139251.87   -41169.012    3970.3512   -45139.363    327.69299   0.98990786 
   29300    290.32177   -454.29323    139103.83   -41149.326    3986.8703   -45136.196    328.23345   0.99096135 
   29400    285.13647   -239.48985    139687.77   -41187.625    3915.6627   -45103.288    330.05353   0.98681883 
   29500    289.36157   -309.33663    140147.17   -41142.919    3973.6844   -45116.603     331.6529   0.98358402 
   29600    286.73142   -597.78215    140394.18   -41121.978    3937.5656   -45059.544    332.82405   0.98185349 
   29700    291.33924   -655.15545    140635.51    -41097.12    4000.8429   -45097.963    334.28864   0.98016863 
   29800     292.1326   -663.72846    140130.35   -41019.732    4011.7378    -45031.47     333.7726   0.98370209 
   29900    291.13582    -770.9693    139710.91   -41045.275    3998.0495   -45043.325     334.1153   0.98665533 
   30000    291.80349   -574.23031    139754.93   -41014.162    4007.2182    -45021.38    334.97833    0.9863446 
   30100    294.63445   -525.11951    140410.59   -41023.941    4046.0946   -45070.036    336.93364   0.98173878 
   30200    294.41013   -433.59973    140210.54   -41052.793    4043.0142   -45095.807    337.66648   0.98313947 
   30300    292.17892   -499.56165    140523.81   -41044.337    4012.3739   -45056.711    338.97451   0.98094779 
   30400    286.13642   -738.41286    140128.47   -41203.839    3929.3947   -45133.234    340.37182   0.98371526 
   30500    290.04108   -470.36574    140079.49   -41199.613    3983.0158   -45182.629    341.41147   0.98405921 
   30600    285.05689   -288.49116    140276.75   -41194.494      3914.57   -45109.064    342.38634   0.98267541 
   30700    289.51867   -882.78824    140248.84   -41167.173    3975.8417   -45143.015    342.85292     0.982871 
   30800    287.03799   -587.42328    140064.46   -41090.342    3941.7755   -45032.118    343.84023   0.98416482 
   30900    291.76779   -476.36489    140094.64   -41099.961    4006.7279   -45106.689    344.73552   0.98395283 
   31000    287.37982   -443.96842    139823.58   -41088.706    3946.4698   -45035.175    345.92524   0.98586029 
   31100    286.15464   -524.28041    139895.71   -41249.328    3929.6449   -45178.973    347.62721     0.985352 
   31200    284.74334   -543.52303    139942.82   -41234.008     3910.264   -45144.272    347.78019   0.98502032 
   31300     291.9794   -255.33934    139843.58   -41210.028     4009.634   -45219.662    349.27261   0.98571932 
   31400    286.27587   -375.95781    140064.96   -41242.116    3931.3097   -45173.426    350.65597   0.98416133 
   31500    290.98118   -535.00253    140386.08   -41126.875    3995.9258     -45122.8    351.78657   0.98191017 
   31600    289.32256   -626.28218    140612.69    -41097.89    3973.1487   -45071.039    353.12423   0.98032775 
   31700    284.33435    -438.0553    140243.94   -41143.595    3904.6476   -45048.242    353.96913   0.98290536 
   31800    284.67791   -649.97197     140177.7   -41148.155    3909.3656   -45057.521    354.81206   0.98336983 
   31900    286.88527    -434.5331    140368.04   -41098.898    3939.6784   -45038.576    355.81893   0.98203631 
   32000    290.37697   -341.12062    140110.85    -41027.92    3987.6284   -45015.549    356.91178   0.98383902 
   32100    289.98215   -726.49798    140262.06   -41129.909    3982.2066   -45112.115    358.10378   0.98277834 
   32200    291.84271   -391.15284    140162.38   -41136.567    4007.7569   -45144.324    359.63104   0.98347726 
   32300    291.15176   -605.94407     140270.4   -41129.016    3998.2683   -45127.284    361.16578    0.9827199 
   32400    283.85297   -224.00013    140508.55   -41034.948     3898.037   -44932.985    362.38145   0.98105431 
   32500    285.75984   -587.24645    140438.93   -41098.851    3924.2233   -45023.074    362.48507   0.98154062 
   32600     289.4355   -628.56772    140167.32   -41092.448    3974.6997   -45067.147    362.49881   0.98344263 
   32700     288.1677   -582.69034    139822.94   -41094.151    3957.2894    -45051.44    362.47439    0.9858648 
   32800    283.88819   -474.32739    139804.05   -41134.148    3898.5206   -45032.669    363.55417   0.98599802 
   32900    287.84101   -587.95589    139894.84   -41227.379    3952.8031   -45180.182     364.6018   0.98535815 
   33000    289.36644    -381.6372    139975.08    -41222.46    3973.7512   -45196.211    366.02166    0.9847933 
   33100    285.45404   -369.11992    140304.07   -41197.379    3920.0238   -45117.403    367.56543   0.98248406 
   33200    290.09505   -554.73777    140173.68   -41163.766     3983.757   -45147.523    368.50965   0.98339801 
   33300    291.01071   -670.99226    140343.53   -41107.408    3996.3313    -45103.74    369.73765   0.98220788 
   33400    288.53424   -742.23315    140430.45   -41163.698    3962.3229   -45126.021    370.74789    0.9815999 
   33500    292.71744   -660.71016    140008.42    -41110.41    4019.7691   -45130.179    371.53672   0.98455878 
   33600    296.45299   -493.45505    140300.48   -41137.284    4071.0679   -45208.351    372.85469   0.98250925 
   33700    287.55164     -430.009    140351.53   -41152.601    3948.8293    -45101.43    374.81962   0.98215187 
   33800    289.00561   -419.44438    140613.22     -41135.6    3968.7961   -45104.396    377.02534   0.98032399 
   33900    280.83013   -416.55018    140156.32   -41147.837    3856.5255   -45004.362    377.71885   0.98351979 
   34000    287.59241   -505.71962    140185.97   -41148.477    3949.3892   -45097.866    379.56882    0.9833118 
   34100    290.37991   -580.48707    140102.62   -41242.271    3987.6688    -45229.94    380.41032   0.98389681 
   34200     284.8401    -272.9375    140324.79   -41199.954    3911.5929   -45111.547    381.68336   0.98233899 
   34300    291.79312   -373.54762    140548.23   -41157.423    4007.0758   -45164.499    382.27371   0.98077731 
   34400    289.95695   -606.62568    140414.79   -41097.731    3981.8605   -45079.592    383.26051   0.98170936 
   34500    292.87307    -427.8022    140679.48   -41041.568    4021.9063   -45063.474    385.26803   0.97986228 
   34600    291.75586   -587.41032    140510.79   -41101.537    4006.5641   -45108.101    385.54349   0.98103868 
   34700     287.5626    -608.8122    140025.44   -41178.624    3948.9798   -45127.604    385.26599   0.98443912 
   34800    286.54764   -449.65074     140245.5   -41200.924    3935.0418   -45135.966    386.41087    0.9828944 
   34900    288.48981   -522.77952    140388.74   -41174.601    3961.7128   -45136.314    387.53095   0.98189153 
   35000    288.52137   -254.64719    140798.92   -41216.939    3962.1462   -45179.085    389.33598   0.97903103 
   35100    290.11228   -772.49152    140802.23   -41183.145    3983.9936   -45167.139    391.02092   0.97900802 
   35200      294.579   -342.70023    140466.53   -40985.908    4045.3332   -45031.241     392.3925   0.98134779 
   35300    288.40043    -688.3691    140416.72   -41103.402    3960.4855   -45063.888    392.73103    0.9816959 
   35400    286.25457   -487.67854    140469.08   -41181.439    3931.0172   -45112.456    393.63907   0.98132999 
   35500    285.15349   -538.82854    140756.78   -41140.661    3915.8965   -45056.557    394.74645   0.97932417 
   35600    291.03391   -531.79028    140746.31   -41116.122    3996.6499   -45112.772    396.01852   0.97939704 
   35700    292.79332   -416.27044    140708.84   -41069.947    4020.8111   -45090.758    396.87367   0.97965781 
   35800    289.73335   -400.52696    140338.58   -41135.962    3978.7898   -45114.752    397.71806   0.98224249 
   35900    289.47697   -698.28508    140095.33   -41077.963     3975.269   -45053.232     398.2777   0.98394796 
   36000    289.68726   -417.65894    139870.05   -41106.428    3978.1569   -45084.585    399.66991   0.98553277 
   36100    288.37995   -575.78127    139711.16   -41128.406    3960.2041    -45088.61    400.71588   0.98665359 
   36200     289.6292    -413.7517    139798.81    -41112.52    3977.3596    -45089.88    401.73167   0.98603497 
   36300    283.65558   -537.43527    139666.46   -41133.595    3895.3263   -45028.921    403.34422   0.98696933 
   36400    295.46757   -635.73766    139689.82   -41036.619    4057.5355   -45094.155    405.16641   0.98680434 
   36500    297.36481   -404.41696    139883.75   -40975.728    4083.5896   -45059.317    406.94054   0.98543626 
   36600    289.45499   -431.65648       140103    -41079.95    3974.9673   -45054.917    408.40337   0.98389411 
   36700    287.48142   -537.58801    140002.24   -41092.707     3947.865   -45040.572    409.28645   0.98460222 
   36800    285.75939    -424.0983    140068.68   -41101.375     3924.217   -45025.592    410.31128   0.98413516 
   36900    284.61774   -443.41481    140321.41   -41187.194    3908.5393   -45095.733    412.11002    0.9823627 
   37000    289.18589   -446.70415     140316.7   -41115.542    3971.2718   -45086.814    413.28475   0.98239564 
   37100    290.89713   -302.55987     140602.8   -41119.722    3994.7715   -45114.493    415.16315   0.98039669 
   37200    286.38033   -514.26732    140467.81   -41099.505    3932.7442   -45032.249     416.4791   0.98133882 
   37300    290.09628    -675.3574    140730.97   -41090.123    3983.7738   -45073.897    418.29905   0.97950378 
   37400    284.34949   -543.64021    140529.32   -41162.043    3904.8554   -45066.898    420.24433   0.98090933 
   37500    292.40343   -281.03297    140418.38   -41184.775     4015.457   -45200.232    420.72727   0.98168427 
   37600    291.13522   -474.68867    140776.85   -41179.472    3998.0412   -45177.513     422.8683   0.97918452 
   37700    284.68572   -585.33074     140977.5   -41215.784    3909.4728   -45125.257    424.97915   0.97779087 
   37800    285.40868   -483.41372    141124.71   -41223.901    3919.4009   -45143.302     427.3645   0.97677096 
   37900     287.1498   -662.35543    140442.89   -41289.458     3943.311   -45232.769    427.58436   0.98151298 
   38000    287.38438   -677.95973    140127.67   -41262.092    3946.5324   -45208.624    428.18289   0.98372088 
   38100    290.38646   -454.06055    140227.07   -41268.085    3987.7587   -45255.844    429.41701   0.98302358 
   38200    289.28228   -655.15788    140497.62   -41293.345    3972.5955    -45265.94    431.86776   0.98113063 
   38300    283.10276   -429.44309    140398.39   -41366.226    3887.7347   -45253.961    432.39111   0.98182404 
   38400    282.21369   -667.00434    140224.18   -41424.428    3875.5255   -45299.954    433.62155   0.98304387 
   38500    285.47833   -537.36406    140236.94   -41394.659    3920.3574   -45315.017    435.06356   0.98295442 
   38600    284.11161   -466.75333    140305.99   -41253.912    3901.5887   -45155.501    435.53157   0.98247066 
   38700    287.99082   -215.03434    140426.87    -41254.51    3954.8605   -45209.371    435.54022   0.98162497 
   38800     284.5492   -762.40421    140423.05   -41201.203    3907.5981   -45108.801    436.25852   0.98165161 
   38900    290.81093    -421.7936    140481.11    -41070.66    3993.5878   -45064.248    438.19891   0.98124593 
   39000    292.13109   -566.37438    140553.27   -41122.735    4011.7171   -45134.452    438.75994   0.98074212 
   39100    292.90896   -723.39387    140188.24   -41200.265    4022.3992   -45222.665    439.48274   0.98329583 
   39200    289.99586   -593.90248    140407.48   -41176.779    3982.3948   -45159.174    440.84881   0.98176047 
   39300    287.92616   -370.13883    140314.09   -41177.461    3953.9724   -45131.434    442.35805   0.98241393 
   39400    290.47925   -537.88405    140588.32    -41192.64     3989.033   -45181.673    444.17022   0.98049762 
   39500    287.62414   -449.19545    140447.79     -41106.9     3949.825   -45056.725    445.17511   0.98147873 
   39600    291.46444   -90.204778    140617.45   -41074.278    4002.5622    -45076.84    447.37038   0.98029452 
   39700    283.88235   -418.93889    140927.13   -41163.968    3898.4405   -45062.409    449.05516   0.97814037 
   39800    285.75946    -309.0031    140868.02   -41156.189    3924.2181   -45080.408    449.81926   0.97855084 
   39900    284.62349   -554.50181    140822.53   -41345.033    3908.6182   -45253.652    451.26441   0.97886692 
   40000    287.33365    -264.7187    140914.19   -41222.598    3945.8358   -45168.433    453.04496    0.9782302 
   40100    285.89135   -551.59969    141033.54   -41217.574    3926.0293   -45143.603    454.39123   0.97740241 
   40200    293.22215   -337.91944    141256.61   -41084.641    4026.7001   -45111.341    455.96572   0.97585888 
   40300    285.29163   -389.98288    141304.93   -41113.838    3917.7935   -45031.632    456.40634   0.97552517 
   40400    284.61475   -364.24136    141202.06   -41148.113    3908.4982   -45056.612    458.21268   0.97623584 
   40500     288.6143   -384.42507     140998.5   -41161.649    3963.4224   -45125.071    458.55519    0.9776453 
   40600    285.96513   -479.18414    140936.34   -41119.308    3927.0424    -45046.35     460.4288   0.97807644 
   40700    286.32589    -408.0576    140624.39   -41119.435    3931.9966   -45051.432     460.7469   0.98024615 
   40800    288.26966   -575.30554    140091.88   -41168.422    3958.6896   -45127.111    460.84999   0.98397224 
   40900    285.72963   -325.13513    140475.56   -41162.649    3923.8084   -45086.458    462.14574   0.98128467 
   41000    285.26143   -503.56755    140427.13    -41162.78    3917.3788   -45080.159    462.77579   0.98162309 
   41100    287.73696   -395.43771    140381.08   -41164.986    3951.3743   -45116.361     463.2907   0.98194509 
   41200    291.80717   -262.58077    140429.57   -41074.639    4007.2688   -45081.908    463.98245   0.98160605 
   41300    286.26846   -350.97042    140441.35   -41219.941    3931.2079   -45151.149    464.42253   0.98152376 
   41400    285.32536   -673.18395    140244.17   -41188.917    3918.2567   -45107.174    464.78083   0.98290369 
   41500    289.61712     -615.964     140278.1   -41177.851    3977.1937   -45155.045    465.35747   0.98266599 
   41600     288.8023   -608.59617    140243.72   -41132.559    3966.0041   -45098.563    466.40676   0.98290686 
   41700    290.06995   -345.28199    140124.79   -41293.994    3983.4123   -45277.406    466.66929   0.98374109 
   41800     289.1944   -538.02398    140278.41   -41187.422    3971.3887   -45158.811    468.73913   0.98266384 
   41900    285.71999   -764.39331     140091.3   -41153.352    3923.6761   -45077.028    469.40541   0.98397627 
   42000     292.6074   -287.80317    140151.07   -41142.271     4018.258   -45160.529    470.56567   0.98355667 
   42100    289.88845   -380.26905    140485.13    -41126.02    3980.9198    -45106.94    472.23576   0.98121787 
   42200    291.29505    -669.7881    140669.73    -41114.88    4000.2361   -45115.116    473.49267   0.97993022 
   42300    284.89843   -365.62301    140407.37   -41213.895    3912.3939   -45126.289    474.56865    0.9817613 
   42400    290.24987    -486.2624    139866.33   -41165.581     3985.883   -45151.464    473.95021   0.98555895 
   42500    290.88689   -637.87362    139863.71   -41213.824     3994.631   -45208.455    473.91189    0.9855774 
   42600    288.56393   -238.57358    140136.96   -41227.114    3962.7307   -45189.844    475.56867   0.98365566 
   42700    287.01902   -486.10255    140281.89   -41249.564    3941.5151   -45191.079    476.96673   0.98263944 
   42800    282.96479   -633.87304    140168.84   -41266.987    3885.8399   -45152.826     477.8055   0.98343197 
   42900    283.64083   -384.48275    140523.43    -41200.58    3895.1238   -45095.704    479.18871   0.98095041 
   43000    290.08781   -377.14882    140357.84   -41145.591    3983.6575   -45129.248    479.25576   0.98210771 
   43100     290.1722    -306.0768    140221.86   -41157.498    3984.8163   -45142.315     480.2851   0.98306013 
   43200    293.78719   -964.09392    140270.76   -41175.345    4034.4596   -45209.805    481.10669   0.98271739 
   43300    284.55789   -524.06644    140206.35    -41224.75    3907.7174   -45132.468    481.59274   0.98316887 
   43400    286.76194   -196.54704    140260.92   -41238.027    3937.9847   -45176.012    482.34212   0.98278634 
   43500    284.38812   -723.03076    140265.63   -41155.169    3905.3859   -45060.555    483.24299   0.98275335 
   43600    286.25345   -467.71059    140197.88   -41185.992    3931.0018   -45116.994    484.02603   0.98322825 
   43700    288.76761   -689.09549     140145.2   -41133.847    3965.5277   -45099.375    485.26124   0.98359784 
   43800     287.6042   -300.54313    140259.37   -41070.853    3949.5511   -45020.404    486.69363   0.98279723 
   43900    290.26746   -640.41628    140063.67   -41158.243    3986.1246   -45144.368    487.46474   0.98417036 
   44000    286.66762   -703.12356    140221.09   -41076.784    3936.6895   -45013.474    488.39651   0.98306549 
   44100     292.9783   -358.12874    140360.06   -41000.927    4023.3514   -45024.279    488.91096   0.98209216 
   44200    296.67659   -683.18087    140312.26   -41119.303    4074.1385   -45193.441    489.81841   0.98242677 
   44300    288.70353   -543.11492     140343.5   -41267.806    3964.6478   -45232.454    490.78872   0.98220803 
   44400    285.31515    -580.2578    140290.38   -41269.832    3918.1165   -45187.948    491.24049   0.98257999 
   44500     280.4589   -550.23803    140193.07   -41283.004    3851.4277   -45134.431    493.77118   0.98326201 
   44600    290.35537   -381.63394    140280.11   -41265.853    3987.3318   -45253.184    495.86659    0.9826519 
   44700    283.98961   -511.41323    140442.14   -41328.442    3899.9135   -45228.356    497.35441   0.98151823 
   44800    285.61294   -499.79326    140358.64   -41274.027    3922.2059   -45196.233    498.43273   0.98210215 
   44900    280.01828   -557.79888    140304.47   -41295.547    3845.3768   -45140.924    499.90637   0.98248126 
   45000    288.63526   -574.64515    140323.05   -41283.911    3963.7103   -45247.621     501.2556   0.98235122 
   45100    290.00169   -485.44714    139857.03   -41220.594    3982.4748   -45203.069     501.0173   0.98562454 
   45200    284.65683    -463.5935    139983.76   -41231.466    3909.0761   -45140.542    502.53536   0.98473222 
   45300    283.44623   -259.85099    140146.58   -41291.368    3892.4514   -45183.819    504.14526   0.98358815 
   45400    285.52458   -465.58379    140404.64   -41307.214    3920.9925   -45228.206    506.64536   0.98178033 
   45500    286.09786   -635.97336    140481.41   -41226.932    3928.8652   -45155.798    507.26698   0.98124384 
   45600    286.29857   -574.00286    140458.69   -41253.456    3931.6214   -45185.078    508.55941   0.98140255 
   45700    290.85899   -569.95886    140064.32   -41132.521    3994.2478   -45126.769    508.77018   0.98416582 
   45800    288.98415   -650.45878    139964.95   -41121.625    3968.5014   -45090.126    509.25409   0.98486452 
   45900    293.00288   -507.86231    140201.87   -41064.233    4023.6889   -45087.922    510.26974   0.98320031 
   46000    287.58943   -493.38856    139848.73   -41159.137    3949.3483   -45108.485    509.44181   0.98568301 
   46100    285.80925   -455.12441    139793.18   -41109.085    3924.9018   -45033.987    510.77299   0.98607472 
   46200    291.62464   -409.00423     139837.6   -41135.706    4004.7622   -45140.468    511.64039   0.98576145 
   46300    285.97819   -575.55101    139894.26   -41151.666    3927.2218   -45078.887     512.7951   0.98536219 
   46400    286.96768   -567.40476    140166.19   -41149.106      3940.81   -45089.916    514.38255   0.98345052 
   46500    293.94394    -616.4263    140226.31   -41098.333    4036.6121   -45134.946    514.84624   0.98302891 
   46600    293.40132     -75.1337    140272.55   -41021.018    4029.1607   -45050.178    515.45619   0.98270486 
   46700    296.90798   -293.15135    140505.84   -41028.799    4077.3161   -45106.115    517.04772   0.98107325 
   46800    289.54685   -696.14191    140533.03   -41008.061    3976.2287    -44984.29    518.37938    0.9808834 
   46900    289.07702   -192.39888     140520.9   -41045.293    3969.7768    -45015.07    519.24491   0.98096811 
   47000    288.73988   -632.56254    140626.73   -41087.195    3965.1469   -45052.342    520.63592   0.98022987 
   47100    286.73202   -580.92417    140353.38   -41071.799    3937.5738   -45009.372    521.80115   0.98213892 
   47200    292.91829   -381.00072    140209.37   -41122.251    4022.5273   -45144.778    522.78433   0.98314767 
   47300    290.56553   -610.00784     140363.6   -41092.135    3990.2178   -45082.352    523.99868   0.98206743 
   47400     291.5106   -495.17729    139845.08   -41059.591    4003.1961   -45062.787     524.2328   0.98570874 
   47500    291.62043   -587.92973    139556.53   -41136.741    4004.7043   -45141.445    525.86226    0.9877468 
   47600    293.80176   -433.91847    139512.96   -41065.844    4034.6597   -45100.504    527.25571   0.98805526 
   47700    285.82224   -447.47626     139973.2   -41176.752    3925.0801   -45101.832     530.4312   0.98480647 
   47800    289.36279   -566.69561    139980.15   -41212.747    3973.7011   -45186.448    532.18815   0.98475763 
   47900    291.72758   -601.12376    140133.15   -41172.485    4006.1758   -45178.661    533.65593   0.98368243 
   48000     290.0903   -439.17004    140332.58   -41213.736    3983.6918   -45197.427    534.79329   0.98228451 
   48100    287.14457   -498.94181    140380.57   -41237.333    3943.2391   -45180.572    535.82574   0.98194869 
   48200    286.30742   -406.58521    140289.97   -41197.551    3931.7429   -45129.294    536.98827   0.98258285 
   48300    289.41401   -650.73768    140423.91   -41148.343    3974.4045   -45122.748    537.63705   0.98164559 
   48400    292.85728    -510.0393    139989.04    -41094.77    4021.6895   -45116.459    537.95959   0.98469506 
   48500     289.0701   -664.32611    140242.81   -41221.276    3969.6817   -45190.957     539.7287   0.98291324 
   48600    282.15627   -575.23142    140152.36   -41202.642    3874.7368   -45077.379    540.63852   0.98354761 
   48700    285.92111   -454.36073    139987.11   -41298.961     3926.438   -45225.399    541.82807   0.98470864 
   48800    285.27387   -574.02297    139886.46   -41236.513    3917.5496   -45154.062    542.52041   0.98541713 
   48900    291.29448   -705.38995    139993.67   -41151.013    4000.2282   -45151.241    544.17125   0.98466247 
   49000    292.33076   -429.90701    140125.27   -41116.681    4014.4591    -45131.14    545.63663   0.98373773 
   49100    284.39947   -603.31595    139940.75    -41204.58    3905.5418   -45110.122     546.5434   0.98503484 
   49200    285.36836   -292.59726    139904.58   -41262.443    3918.8472   -45181.291     547.7487   0.98528954 
   49300    289.94724    -280.2104    140290.07   -41217.047    3981.7271   -45198.774    549.60019   0.98258211 
   49400    289.94023   -648.43326    140445.62   -41232.478    3981.6308   -45214.109    550.47431   0.98149387 
   49500     281.4082   -533.42706    140126.61   -41251.169     3864.464   -45115.633    550.58048   0.98372831 
   49600     286.8047   -444.04106    140416.79    -41206.15    3938.5719   -45144.722    552.40527   0.98169538 
   49700    291.18257   -664.49886    140002.51   -41202.548    3998.6914    -45201.24    551.98928   0.98460034 
   49800    288.69995   -399.89916    140106.49   -41141.324    3964.5986   -45105.923    554.42947   0.98386957 
   49900    287.67581   -422.30601    140190.46   -41209.982    3950.5345   -45160.516     555.1248   0.98328032 
   50000    286.27924   -526.73593       140179   -41248.984     3931.356    -45180.34    555.99247   0.98336065 
   50100    282.66247    -327.1029    139954.39   -41237.846    3881.6883   -45119.534    556.49059   0.98493884 
   50200    284.77261   -543.83061    140232.69   -41222.407     3910.666   -45133.073    558.98747   0.98298416 
   50300    286.81101   -589.08091    140037.62   -41164.558    3938.6585   -45103.216    560.09785   0.98435346 
   50400     286.1883   -326.41357    140189.56   -41205.895    3930.1071   -45136.002    561.65493   0.98328663 
   50500    287.46302   -735.64398    139912.59   -41207.558    3947.6124    -45155.17    562.14105   0.98523313 
   50600    289.18442   -729.84808    139952.83   -41240.806    3971.2516   -45212.058    563.10724   0.98494983 
   50700    291.58578   -503.14235    139698.84    -41125.06    4004.2285   -45129.288    563.88809   0.98674057 
   50800     288.8854   -120.03756    139864.86    -41121.36    3967.1453   -45088.506    565.07298   0.98556932 
   50900    287.63351   -389.46024    140338.11   -41128.347    3949.9537   -45078.301     567.4954   0.98224576 
   51000    289.48338     -558.443    140348.04   -41170.658    3975.3572   -45146.015    569.05797   0.98217625 
   51100    285.53486   -648.01013    140067.99   -41123.944    3921.1337   -45045.078     569.4565   0.98414002 
   51200      294.689   -552.35154    140138.44   -40998.774    4046.8438   -45045.617    570.74033   0.98364531 
   51300     295.8928   -556.52523    140292.84   -41019.481    4063.3751   -45082.856    571.67326   0.98256272 
   51400    286.04484   -522.91377     140152.9   -41200.996     3928.137   -45129.133    572.73473   0.98354377 
   51500    288.26516   -456.24826    139978.74   -41278.903    3958.6278   -45237.531    572.76066   0.98476754 
   51600    286.63659   -564.45337    140128.38   -41191.943    3936.2634   -45128.206    573.99987   0.98371593 
   51700    284.65754   -468.89772    140342.72   -41187.457    3909.0859   -45096.543    575.66376   0.98221352 
   51800    289.61983   -377.12967    140486.66   -41226.338     3977.231   -45203.569    576.65574   0.98120713 
   51900     284.7956   -801.46995     140216.7   -41284.769    3910.9818   -45195.751    577.80679   0.98309625 
   52000    283.69512   -555.14565    140604.98   -41214.127    3895.8694   -45109.996    580.61639   0.98038146 
   52100    284.42222   -516.11192    140440.39   -41229.043    3905.8543   -45134.898    581.64732   0.98153046 
   52200     286.1175   -529.43232    140626.65   -41253.327    3929.1349   -45182.461     583.4032    0.9802304 
   52300    287.56121   -487.02045    140609.16   -41221.693    3948.9608   -45170.654    584.62899   0.98035235 
   52400    294.15018    -477.6439    140396.77   -41159.008    4039.4444   -45198.453    585.67417   0.98183542 
   52500    286.87229   -616.89223    140374.64    -41163.28    3939.5001    -45102.78    586.57373    0.9819902 
   52600    284.17967    -535.4871    140150.33   -41268.443    3902.5235   -45170.966    586.88912   0.98356186 
   52700    285.14895   -404.41439    140223.57   -41231.824    3915.8342   -45147.658    587.74761   0.98304811 
   52800    282.33254   -315.17274    140063.96   -41272.067    3877.1576   -45149.225    588.51266   0.98416835 
   52900    281.95304   -659.51976    140029.97   -41351.224    3871.9461    -45223.17    589.39937   0.98440727 
   53000      283.709   -441.49346    139931.89   -41417.059    3896.0599   -45313.119    590.30637   0.98509721 
   53100    279.25076   -379.60255    140177.01   -41443.468    3834.8367   -45278.305    591.34171   0.98337462 
   53200    286.42264   -549.20625     140340.5   -41270.143    3933.3252   -45203.468    592.89754   0.98222905 
   53300    289.01986   -383.26738    140191.95   -41267.039    3968.9918   -45236.031    592.83751   0.98326988 
   53400    289.85912   -562.51927    140056.52   -41141.865     3980.517   -45122.382     594.1529   0.98422063 
   53500    293.37469   -582.82005    140455.53   -41169.801    4028.7948   -45198.596    597.28631   0.98142464 
   53600    289.74335   -495.47738    140556.41   -41198.996    3978.9272   -45177.923    598.85919   0.98072027 
   53700    283.74602   -803.17675     140276.9   -41243.891    3896.5683   -45140.459    599.16003    0.9826744 
   53800    282.38329    -544.3665    140272.01   -41288.052    3877.8544   -45165.906    599.83256   0.98270866 
   53900    289.07239   -519.65748    139932.05   -41243.166    3969.7132   -45212.879     600.6341   0.98509613 
   54000    282.61161   -514.57398    140257.04   -41232.508    3880.9899   -45113.498    603.11192   0.98281355 
   54100    284.99752   -540.55234    140109.67   -41232.343    3913.7547   -45146.098    603.98665   0.98384725 
   54200    283.48851   -646.85701    140131.12   -41231.675     3893.032   -45124.707    604.80917   0.98369668 
   54300    286.13969   -436.56612    140306.07   -41141.729    3929.4395   -45071.169    606.65143   0.98247012 
   54400    286.77855   -783.49971    140498.66   -41233.596    3938.2127   -45171.809    608.13288   0.98112337 
   54500    288.20426   -504.91359    140291.28   -41201.395    3957.7915   -45159.186    608.03269   0.98257369 
   54600    290.81613   -353.52353    140464.11   -41215.233    3993.6593   -45208.892    610.03641   0.98136472 
   54700    290.70647   -526.37249    140321.33   -41199.522    3992.1533   -45191.675    610.73595   0.98236322 
   54800    286.28218   -581.84309    140482.88   -41200.932    3931.3963   -45132.328    612.01166   0.98123358 
   54900     287.1851    -534.2545    140454.86   -41135.331    3943.7957   -45079.127    612.66873   0.98142931 
   55000    294.07727   -755.76352    139876.24   -41077.276    4038.4431   -45115.719    611.99833   0.98548913 
   55100    292.11983   -604.71317    140249.85   -41082.082    4011.5624   -45093.645    613.71553   0.98286395 
   55200    288.53793   -545.25775     140359.4   -41145.239    3962.3737   -45107.612    614.32482   0.98209678 
   55300    285.53276   -256.32211    140628.51   -41103.154    3921.1049   -45024.259    616.53411   0.98021742 
   55400    296.22667   -369.43383     140628.5   -41033.871    4067.9599   -45101.831    617.67111   0.98021753 
   55500    287.80424   -444.11331    140871.04   -41115.107    3952.2982   -45067.405    620.11796   0.97852981 
   55600    289.35883   -423.51278    140806.21   -41097.619    3973.6467   -45071.266    621.47046   0.97898041 
   55700    297.24085    -383.4512    141093.44   -41133.183    4081.8873    -45215.07    623.00623   0.97698742 
   55800    291.10254   -491.69628    140996.56   -41228.498    3997.5923   -45226.091    623.61285   0.97765874 
   55900    278.75306   -390.77792    140602.85   -41340.418    3828.0021   -45168.421    623.53038   0.98039631 
   56000    281.45592    -666.6253    140544.98   -41370.166    3865.1193   -45235.286    624.50615   0.98080003 
   56100    285.41542    -683.1982    140705.38   -41297.539    3919.4935   -45217.032    626.78142   0.97968191 
   56200    281.60613   -741.90782    140487.08   -41274.508    3867.1821    -45141.69    627.46033   0.98120422 
   56300    292.97108   -538.16986    140146.38   -41190.954    4023.2523   -45214.206    628.19497   0.98358955 
   56400    292.45079   -577.70362    140141.96   -41113.039    4016.1074   -45129.146    629.44463   0.98362056 
   56500    293.27263   -538.17894    140113.64   -41161.857    4027.3934    -45189.25    630.84732   0.98381942 
   56600    288.97553   -696.10639    139914.07   -41079.888     3968.383   -45048.271    631.63935   0.98522271 
   56700    291.53474   -326.54394    140652.37   -41074.561    4003.5276   -45078.088    634.79155   0.98005118 
   56800    289.44785   -449.16144    140278.93   -41095.802    3974.8693   -45070.672    635.14867   0.98266017 
   56900    285.92196    -625.3173    140414.73   -41133.677    3926.4496   -45060.127    636.42188    0.9817098 
   57000    289.66536    -353.9384    140370.29   -41176.166    3977.8562   -45154.022    637.08777   0.98202059 
   57100    280.11741   -442.32646    140406.38   -41316.655    3846.7381   -45163.393    638.68115   0.98176821 
   57200    282.12536     -478.183    140139.64   -41339.893    3874.3124   -45214.206    639.29532   0.98363689 
   57300    284.24646    -515.3723    139995.76   -41286.039    3903.4406    -45189.48    640.06894   0.98464779 
   57400    288.53932   -638.27608    140219.14   -41303.963    3962.3928   -45266.356    642.74236   0.98307916 
   57500     293.5621   -418.46425    140134.51   -41253.278    4031.3686   -45284.646    644.17267   0.98367284 
   57600    280.56187   -488.83093    139984.12   -41331.718    3852.8417   -45184.559    644.12967    0.9847297 
   57700    283.69719   -528.29322    140481.73   -41289.575    3895.8977   -45185.473    646.32338   0.98124163 
   57800     288.2878   -579.42378    140509.07   -41194.964    3958.9388   -45153.902    646.89832   0.98105066 
   57900    288.61994   -626.30716     140692.6   -41260.524    3963.4999   -45224.024    648.55778    0.9797709 
   58000    284.00999   -347.78342    140719.21   -41234.945    3900.1933   -45135.138    649.51531   0.97958565 
   58100    285.66647   -686.15951    140845.14    -41134.57     3922.941   -45057.511    651.71658   0.97870975 
   58200    291.10534   -509.25391    140911.32     -41201.2    3997.6308   -45198.831    653.29958   0.97825013 
   58300    285.27887   -749.13803    140726.86   -41238.321    3917.6184   -45155.939    654.00712   0.97953236 
   58400    285.47704   -457.86553    140724.34   -41200.424    3920.3397   -45120.763    654.31769   0.97954989 
   58500    294.40558   -432.38698       140584   -41118.763    4042.9517   -45161.715    654.70027   0.98052774 
   58600    289.49107   -482.39935    140323.14    -41209.55    3975.4628   -45185.013    655.38517   0.98235058 
   58700    289.17765   -463.98846    140286.03   -41170.546    3971.1586   -45141.704    656.94366   0.98261044 
   58800    291.28535   -737.18178    140573.29   -41121.262    4000.1029   -45121.365    659.73466    0.9806025 
   58900    290.89653   -579.86749    140585.63   -41082.852    3994.7633   -45077.615    661.48335   0.98051644 
   59000    289.05055   -707.81773    140357.45    -41184.39    3969.4133   -45153.804    661.72503   0.98211047 
   59100    290.13116   -437.84614    140389.87   -41158.527    3984.2528    -45142.78    662.76837   0.98188362 
   59200    287.71239   -519.18947    140295.94   -41205.529    3951.0369   -45156.566    663.84158   0.98254099 
   59300    283.98457   -562.78618    140016.62   -41226.122    3899.8442   -45125.966    663.78655   0.98450113 
   59400    291.41868   -557.64977    140058.49   -41148.646    4001.9337    -45150.58    664.64932   0.98420679 
   59500    290.51459   -371.06883    140275.15   -41190.604    3989.5184   -45180.122    666.24883   0.98268665 
   59600     285.4241   -487.93039    140380.16   -41095.266    3919.6126   -45014.879    667.32193   0.98195157 
   59700    290.25166   -827.42321     140259.6   -41140.757    3985.9076   -45126.665    667.28832    0.9827956 
   59800    290.44683   -643.26294    140101.66   -41175.167    3988.5878   -45163.754    667.86378   0.98390354 
   59900    290.60861   -406.63473    139892.51   -41185.947    3990.8094   -45176.756    668.22139   0.98537457 
   60000    287.11885   -521.42538    140154.54   -41204.492     3942.886   -45147.378    669.63583   0.98353232 
   60100    286.64973   -701.91227    140023.01   -41218.406    3936.4438    -45154.85     670.3584    0.9844562 
   60200    288.20881   -669.24914    140041.43   -41284.852    3957.8539   -45242.706    670.98406    0.9843267 
   60300    281.54846   -180.32454    140148.24   -41221.544    3866.3901   -45087.934    673.17916   0.98357654 
   60400    288.52986   -456.38361    140304.96   -41175.834    3962.2628   -45138.097    674.43848   0.98247785 
   60500    287.61633   -783.98093    139840.62   -41247.183    3949.7176   -45196.901    674.89584   0.98574018 
   60600    288.58141   -422.57555    139984.32   -41146.507    3962.9707   -45109.478    676.48979   0.98472829 
   60700    287.34401   -282.29256    140059.33   -41200.563     3945.978   -45146.541    678.56047   0.98420086 
   60800    288.69462   -246.32752    140412.41   -41201.263    3964.5254   -45165.789    680.31173   0.98172602 
   60900    290.42163   -445.86045    140285.11   -41164.867    3988.2417   -45153.109    680.75012   0.98261689 
   61000    293.07074   -543.85992    140204.22   -41127.864    4024.6209   -45152.485    681.68197   0.98318379 
   61100    289.97804   -461.00044    140781.19   -41074.325    3982.1501   -45056.475    684.98424   0.97915434 
   61200    289.37661   -336.32357    140644.72   -41151.914    3973.8909   -45125.805    686.46633   0.98010446 
   61300      294.147   -337.63852    140638.81   -41102.644    4039.4007   -45142.045    687.84991   0.98014566 
   61400    288.71067   -461.64525    140935.82   -41027.108    3964.7458   -44991.854    689.97261   0.97808007 
   61500    294.48924   -556.71656    140768.62    -41020.09    4044.1006   -45064.191    689.87551    0.9792418 
   61600    286.01278   -323.06738    140477.15   -41157.977    3927.6968   -45085.673    689.65846    0.9812736 
   61700    290.07517   -513.90392    140423.07   -41127.447    3983.4839   -45110.931    690.98324   0.98165148 
   61800     292.0509    -610.2399    140356.01   -41147.003    4010.6158   -45157.618    692.11233   0.98212051 
   61900    284.84148   -690.30936       140342   -41076.198    3911.6118   -44987.809    693.00041   0.98221857 
   62000    287.95641   -450.45931    140107.67   -41144.479    3954.3878   -45098.867    692.81717   0.98386132 
   62100    291.35901   -435.62808    140165.83     -41139.1    4001.1143   -45140.214    694.34875   0.98345308 
   62200    287.82784   -166.64571    140425.83   -41168.295    3952.6223   -45120.917    696.59128   0.98163219 
   62300    291.44023     -552.602       140746   -41202.468    4002.2298   -45204.698    697.68573   0.97939918 
   62400    288.49548   -571.61164    140590.56   -41259.591    3961.7907   -45221.382    697.83002   0.98048204 
   62500    287.50806   -473.72451    140524.39   -41204.611    3948.2308   -45152.842    699.14827   0.98094368 
   62600    290.84824   -349.24138    140575.95   -41176.584    3994.1002   -45170.684    699.98284   0.98058391 
   62700    289.43605   -291.36065    140413.69   -41188.624    3974.7072   -45163.332    700.23653   0.98171705 
   62800    286.21499   -647.69722    140355.82   -41234.557    3930.4737    -45165.03    701.64304   0.98212186 
   62900    292.14932   -385.95177    140413.95   -41220.273    4011.9673   -45232.241    703.12288   0.98171525 
   63000     289.2609   -633.05421    140412.19   -41202.595    3972.3019   -45174.897    704.41761   0.98172753 
   63100     285.6694    -503.7107    140543.65   -41202.074    3922.9813   -45125.055    707.06821   0.98080931 
   63200    286.07827   -803.07131    140068.54   -41228.656    3928.5961   -45157.252     705.8202   0.98413614 
   63300    281.70741   -563.02568    140025.56   -41311.789     3868.573   -45180.362     706.2233   0.98443825 
   63400    284.23913   -583.59167    139948.43     -41335.2      3903.34    -45238.54    707.52384    0.9849808 
   63500    293.69785   -510.90472       139929   -41207.779    4033.2327   -45241.011    709.43202   0.98511757 
   63600    283.60346   -384.55796    139749.64    -41217.05    3894.6106    -45111.66    709.17761   0.98638189 
   63700    283.18278   -348.20013    139582.43   -41274.047    3888.8336   -45162.881    711.10374   0.98756351 
   63800    282.07304    -501.3657    139423.53   -41260.195     3873.594   -45133.789    712.19927   0.98868901 
   63900    290.05166   -397.38566    139736.04    -41182.41    3983.1611   -45165.571    714.02498   0.98647788 
   64000    281.49184   -563.10113    139714.04   -41280.692    3865.6126   -45146.305    715.18632   0.98663323 
   64100    290.87574   -557.81558    139435.64   -41250.915    3994.4778   -45245.392    714.73497   0.98860315 
   64200     284.0026   -585.86391    139814.33   -41297.193    3900.0918   -45197.284    717.07362   0.98592552 
   64300     281.1657   -390.57318    140234.69   -41286.593    3861.1338   -45147.727     719.4404   0.98297016 
   64400    284.11828   -454.73884    140345.83   -41281.609    3901.6803   -45183.289    720.31327   0.98219173 
   64500    284.95045   -600.79121    140063.71   -41325.792    3913.1083     -45238.9    721.11087   0.98417013 
   64600    288.35878   -566.65446    140204.85   -41279.441    3959.9134   -45239.355    722.12822   0.98317936 
   64700    287.97913   -708.05061    140212.16   -41190.596    3954.6999   -45145.296    723.43296   0.98312812 
   64800    287.23442   -428.35851    140032.75    -41079.13    3944.4731   -45023.603    724.52262   0.98438773 
   64900    288.65113    -405.9894    140251.83   -41115.203    3963.9282   -45079.131    726.75795   0.98285004 
   65000    290.83409   -689.43242    140224.26   -41138.066    3993.9059   -45131.972    727.38428   0.98304328 
   65100    285.62892    -604.5984    140244.59   -41253.991    3922.4254   -45176.417    728.43114   0.98290076 
   65200    286.58027   -564.78111    140373.26   -41147.965    3935.4899   -45083.454    730.95827   0.98199981 
   65300    291.56722   -449.51315    140185.96   -41176.167    4003.9736   -45180.141    731.49533   0.98331185 
   65400    284.72121   -432.54896    140132.89   -41276.319    3909.9601   -45186.279     731.8126   0.98368427 
   65500     289.2721   -540.72923    140183.74   -41151.094    3972.4557   -45123.549    731.96649    0.9833274 
   65600    291.57698    -398.1568    139980.32   -41036.548    4004.1077   -45040.656    731.64347   0.98475642 
   65700    295.18466   -499.52406     140134.9   -41051.529    4053.6505    -45105.18    733.68395   0.98367012 
   65800    291.00076   -561.66522    139801.65   -41143.694    3996.1947   -45139.888    733.89747   0.98601493 
   65900    285.60153   -549.70893    139894.32   -41164.058    3922.0493   -45086.108    734.80015   0.98536178 
   66000    283.77896   -774.99851    140133.69   -41162.358    3897.0206   -45059.379    736.04722   0.98367866 
   66100    289.21994   -459.95494       140200   -41132.774    3971.7394   -45104.514    737.28631   0.98321341 
   66200    286.71918   -401.17812    140316.14   -41046.854    3937.3975   -44984.252    738.81662   0.98239959 
[...]
   84600    287.99475   -664.35336    139783.28   -41229.534    3954.9144   -45184.449    913.54388   0.98614449 
   84700    284.47355   -654.35876    139594.39   -41278.469    3906.5591   -45185.028    913.81693   0.98747891 
   84800      288.192   -571.15792    139931.39   -41205.878    3957.6232   -45163.501    916.47668   0.98510075 
   84900    289.34115   -716.82265    139934.88   -41195.284     3973.404   -45168.688    918.48957   0.98507619 
   85000    288.45368   -644.66263    139717.46   -41185.112    3961.2167   -45146.329    919.14396   0.98660908 
   85100    282.44123   -478.43588    139671.24    -41187.25    3878.6502     -45065.9     920.3553   0.98693557 
   85200    285.65037   -174.36155    140128.46   -41100.777      3922.72   -45023.497    923.28806   0.98371536 
   85300    291.70409   -580.54704    139849.24   -41101.032    4005.8532   -45106.886     922.5651   0.98567942 
   85400    291.35369    -412.9911    140226.15   -41120.076    4001.0413   -45121.117    925.55641   0.98303004 
   85500    294.85214   -464.68744    139895.61   -41111.922    4049.0842   -45161.006    925.26033    0.9853527 
   85600    286.75641   -295.32968     139989.4   -41113.269    3937.9088   -45051.178    925.48267   0.98469255 
   85700    288.12113   -462.10182    140028.67   -41118.069      3956.65   -45074.719    926.59494    0.9844164 
   85800    289.67121   -453.82213    139746.18    -41085.93    3977.9366   -45063.867    925.02976   0.98640633 
   85900    287.66984    -707.1175    140084.55   -41139.443    3950.4526   -45089.896    928.24996   0.98402367 
   86000    285.30601   -524.02513     140017.9   -41196.358    3917.9909   -45114.349     927.8679   0.98449209 
   86100    290.06963   -446.70177    139924.37   -41184.983    3983.4079   -45168.391    927.73742   0.98515014 
   86200    288.01767   -307.99591    140156.33   -41191.505    3955.2291   -45146.734    928.55744   0.98351976 
   86300     284.3905   -372.72586    140084.26   -41231.207    3905.4187   -45136.625    929.36573   0.98402574 
   86400    290.91537    -355.3688    140393.14   -41199.725    3995.0221   -45194.747    931.49877   0.98186079 
   86500    290.83971   -287.29202    140547.39   -41105.398     3993.983   -45099.381     932.6635   0.98078316 
   86600    289.04691   -452.18771    140650.38    -41145.85    3969.3632   -45115.213    934.85112   0.98006499 
   86700    287.26328   -468.19663     140092.7   -41178.513    3944.8694   -45123.383    933.84479   0.98396646 
   86800     292.9472   -687.73191    140282.99   -41140.953    4022.9244   -45163.877    935.60883   0.98263172 
   86900    291.86402   -633.68786    140013.69   -41131.445    4008.0494   -45139.495    934.99964   0.98452169 
   87000    292.05741   -620.29449     139986.3   -41162.562    4010.7052   -45173.267    936.26454    0.9847143 
   87100     290.5403   -513.63999    139859.04   -41192.909    3989.8714    -45182.78    936.69231   0.98561034 
   87200    290.21714    -236.0405    139765.65   -41174.323    3985.4335   -45159.757    937.10354   0.98626893 
   87300    283.86893   -192.10994    139954.58   -41088.754    3898.2561    -44987.01     938.9303   0.98493753 
   87400    292.00095   -602.84642    139656.12   -41093.526    4009.9299   -45103.456    939.28703   0.98704241 
   87500    289.11261   -390.44026    139968.23   -41142.611    3970.2655   -45112.877    940.61641   0.98484149 
   87600    288.02289   -389.00426     140008.9    -41168.19    3955.3008   -45123.491    942.08848   0.98455536 
   87700    290.72974   -306.26479    140575.64   -41106.482    3992.4729   -45098.955    945.21817   0.98058605 
   87800    292.85702   -523.98046    140666.68   -41006.054     4021.686    -45027.74    947.08935   0.97995147 
   87900    292.11576   -285.22936    140696.95   -41028.634    4011.5066    -45040.14    948.69306   0.97974062 
   88000    289.39058   -432.58979       140847   -41091.798    3974.0827    -45065.88    951.26181   0.97869686 
   88100    288.58877   -595.07051    140964.48   -41096.259    3963.0718   -45059.331    952.35431   0.97788124 
   88200    293.12854   -474.91534    140623.64   -41031.716    4025.4146    -45057.13    951.92116   0.98025135 
   88300    290.25564   -538.80027    140320.02   -41084.154    3985.9622   -45070.116    950.88823   0.98237243 
   88400    287.80136   -498.27492    140606.12   -41125.126    3952.2586   -45077.384    953.77656   0.98037354 
   88500    288.08651   -616.97902     140555.8   -41148.147    3956.1745   -45104.322    954.54257   0.98072453 
   88600     292.0702   -635.30485    140437.53   -41103.711    4010.8808   -45114.591    956.05819   0.98155041 
   88700    290.43989   -512.98347    140150.83   -41125.377    3988.4925   -45113.869    956.21327   0.98355833 
   88800     291.6492   -493.68663    140228.25   -41111.934    4005.0994   -45117.033    959.72444   0.98301534 
   88900    292.37156   -614.90933    139950.91   -41203.974    4015.0193   -45218.993    960.18337   0.98496337 
   89000    290.89438   -725.47104    139949.23   -41139.432    3994.7338   -45134.166    960.89865   0.98497518 
   89100     295.2714   -365.88805    140064.19   -41099.409    4054.8416   -45154.251    962.01108   0.98416672 
   89200    281.65092   -506.97169    139784.07    -41218.82    3867.7972   -45086.617    961.42629   0.98613897 
   89300    288.56879   -832.96031    139840.17   -41194.114    3962.7974   -45156.912    963.20046   0.98574337 
   89400    290.50732   -359.15078    139989.01   -41158.283    3989.4184   -45147.701    965.67958    0.9846953 
   89500    291.42764   -589.74219    140164.71   -41225.547    4002.0568   -45227.604    966.78388   0.98346092 
   89600    288.37791   -380.49059    140345.33    -41150.09    3960.1761   -45110.266    968.87963   0.98219525 
   89700    291.53934    -783.8586    140321.75   -41139.054    4003.5908   -45142.645    969.96076   0.98236028 
   89800     284.8085   -717.59004     140394.9   -41145.883    3911.1589   -45057.042    971.98929   0.98184845 
   89900    286.18502   -518.50371    140416.39   -41183.691    3930.0621   -45113.753    972.29758   0.98169822 
   90000    287.82732   -469.08296    140267.96   -41136.346    3952.6151   -45088.961    972.39883   0.98273705 
   90100     289.3171   -737.45596    140048.53   -41095.029    3973.0737   -45068.102    973.17108    0.9842768 
   90200    291.67826   -440.34169    140087.72   -41272.628    4005.4984   -45278.126    975.04246   0.98400144 
   90300    289.22752   -768.48706    139917.13   -41280.556    3971.8435     -45252.4    976.41728   0.98520117 
   90400    288.57685   -560.66975    139816.44    -41225.45    3962.9081   -45188.358    977.08694   0.98591067 
   90500    289.07843   -366.42162    139875.65   -41167.916    3969.7961   -45137.713    979.84972   0.98549331 
   90600    288.08574   -510.96126    139954.97   -41185.585    3956.1639   -45141.749    981.75248   0.98493475 
   90700    290.70324   -568.14166    139989.71   -41162.161     3992.109    -45154.27    983.36382   0.98469037 
   90800    286.20833   -361.52995     140204.3   -41135.141    3930.3822   -45065.524    985.30116   0.98318326 
   90900     291.3004   -521.27977    140330.74   -41214.306    4000.3095   -45214.615    987.78179   0.98229734 
   91000    290.05899   -623.78869    140331.06   -41194.995    3983.2617   -45178.256    989.24269    0.9822951 
   91100    286.82816   -481.70117    140322.06   -41139.745    3938.8941   -45078.639    990.09186   0.98235813 
   91200    285.20985   -372.73335    140505.27   -41177.066    3916.6705   -45093.737    992.60906   0.98107723 
   91300    290.82182   -704.67944    140411.35   -41225.324    3993.7373   -45219.061    993.52851   0.98173344 
   91400    285.13049   -461.19506    140366.91   -41243.333    3915.5807   -45158.914    993.83393   0.98204424 
   91500    281.79207   -723.17607    139991.92   -41248.307    3869.7354   -45118.042     991.9644   0.98467481 
   91600    285.61442   -337.00601    140191.71     -41235.8    3922.2262   -45158.026    993.78737    0.9832715 
   91700    280.96319   -628.03145    140473.58   -41325.284    3858.3529   -45183.637    996.77474   0.98129854 
   91800    283.55347   -588.82772    139981.82   -41390.649    3893.9241   -45284.573    996.48821   0.98474584 
   91900    277.94293   -391.82316    140126.27   -41307.846    3816.8769   -45124.723    997.96798   0.98373074 
   92000     287.7004   -576.91862     139945.7   -41215.238    3950.8723   -45166.111    998.29264   0.98500005 
   92100    286.47278   -511.74427    140259.39   -41126.367    3934.0138   -45060.381    999.97234   0.98279703 
   92200    282.35317   -616.04488    140153.78   -41080.346    3877.4409   -44957.787    999.92088   0.98353763 
   92300    288.83683   -478.17509    140245.23    -41105.47    3966.4783   -45071.948    1000.8187   0.98289626 
   92400    292.83129   -504.74945    140084.23   -41083.846    4021.3327   -45105.178    1001.5771   0.98402592 
   92500     293.9952   -361.23968    140355.84   -41067.731     4037.316   -45105.047     1004.706   0.98212172 
   92600     294.0074   -508.65356    140283.39   -41059.201    4037.4837   -45096.684    1004.9493    0.9826289 
   92700    288.00438   -473.06799    140487.71    -41119.35    3955.0466   -45074.397    1007.6708   0.98119983 
   92800    288.41592   -533.51747    140489.24   -41168.941    3960.6981   -45129.639    1007.9902   0.98118915 
   92900    289.43425   -300.57125    140466.42   -41115.386    3974.6825   -45090.069    1008.9748   0.98134853 
   93000    288.36674   -391.73777    140487.25   -41138.216    3960.0227   -45098.239    1010.0326   0.98120304 
   93100    288.00403   -567.00213    140480.35   -41160.581    3955.0418   -45115.623    1011.3768   0.98125124 
   93200    289.65667   -350.31492    140038.58   -41113.334    3977.7369   -45091.071    1010.2174   0.98434673 
   93300    294.42347   -487.81449    140109.97   -41049.082    4043.1974   -45092.279    1011.5687   0.98384519 
   93400    280.98528   -458.58171    140090.07   -41160.136    3858.6562   -45018.792    1010.8783   0.98398491 
   93500    288.71122   -501.91609    140140.13   -41148.237    3964.7533    -45112.99    1012.6072   0.98363345 
   93600    280.43701   -420.87194    139791.68   -41211.133     3851.127    -45062.26    1012.0505    0.9860853 
   93700    286.43613   -298.74782    139839.77   -41191.079    3933.5105    -45124.59    1013.2416   0.98574617 
   93800    290.93756   -320.74063    140100.26   -41064.436    3995.3268   -45059.763    1015.9102   0.98391334 
   93900    290.97604   -836.38879    140303.39    -41104.88    3995.8552   -45100.736    1018.5464   0.98248885 
   94000    285.15602   -219.90557    140429.34   -41201.107    3915.9312   -45117.038    1019.9346   0.98160764 
   94100    290.66675   -724.62942    140453.77   -41191.516    3991.6079   -45183.124      1020.51   0.98143696 
   94200    285.11881   -397.89514    140332.94   -41237.078    3915.4203   -45152.499    1019.0455   0.98228198 
   94300    285.59206   -514.53287    140319.61   -41172.523    3921.9192   -45094.442    1020.0117   0.98237529 
   94400    286.85906   -624.98131    140222.16   -41196.223    3939.3184   -45135.542    1019.8693   0.98305798 
   94500    285.02925   -539.17825    140260.29   -41246.642    3914.1903   -45160.832    1022.1582   0.98279078 
   94600    285.71617   -315.79191    140405.42   -41305.561    3923.6235   -45229.185    1024.1044   0.98177491 
   94700    290.74111   -565.30524    140542.21   -41167.502     3992.629   -45160.131    1025.4564   0.98081931 
   94800    287.14424   -526.61421    140582.56   -41167.687    3943.2347   -45110.922    1027.4196   0.98053782 
   94900    285.58225    -658.4344    140612.66   -41179.349    3921.7845   -45101.134    1029.3176   0.98032792 
   95000    294.93462   -764.34216    140121.21   -41165.323    4050.2168    -45215.54    1027.5389   0.98376626 
   95100    288.93647   -610.35045    139899.31     -41096.8    3967.8467   -45064.647    1027.0253   0.98532666 
   95200    286.29702   -512.42785    139909.37   -41149.527    3931.6001   -45081.127    1028.0136   0.98525576 
   95300    285.31423   -404.11061     139940.5   -41129.782    3918.1038   -45047.886    1028.9153   0.98503664 
   95400     289.2492   -573.88015    139523.99   -41152.289    3972.1412   -45124.431    1027.5031   0.98797716 
   95500    291.57353   -455.17534    139910.99   -41150.427    4004.0603   -45154.487    1030.1943    0.9852444 
   95600    288.12761   -498.27171    140223.63   -41229.642    3956.7388   -45186.381    1033.0044   0.98304771 
   95700    291.56794   -490.77027    140404.32   -41159.028    4003.9835   -45163.011    1034.7469   0.98178262 
   95800    286.63615   -585.20653    140294.05   -41147.337    3936.2573   -45083.594    1035.3347   0.98255423 
   95900    281.80461   -578.93444    140030.03   -41166.691    3869.9076   -45036.599    1034.8692   0.98440679 
   96000    292.40826   -595.17182    140081.71   -41121.049    4015.5234   -45136.573    1036.1502   0.98404366 
   96100    286.81392   -622.39967    139934.93   -41112.014    3938.6984   -45050.713    1036.4907    0.9850758 
   96200     287.9074   -452.85091    139987.64   -41141.887    3953.7148   -45095.602    1037.4992    0.9847049 
   96300    289.82728   -461.58498    140011.78   -41149.981    3980.0798    -45130.06    1038.7286   0.98453512 
   96400    290.72364   -657.30921    140026.83   -41191.102    3992.3892   -45183.492    1039.1779   0.98442934 
   96500    283.79567   -593.88295     139902.2   -41162.126    3897.2501   -45059.376    1038.4173   0.98530628 
   96600    286.06815   -400.89697    139839.82   -41088.685    3928.4572   -45017.142    1039.3749   0.98574584 
   96700    289.03042   -595.97982     139887.2   -41052.845    3969.1369   -45021.982    1040.5575   0.98541192 
   96800     292.8493   -612.79266    140320.19   -41031.575    4021.5799   -45053.155    1042.9628   0.98237122 
   96900     291.8894   -434.91111    140128.58   -41092.636     4008.398   -45101.034    1043.4788    0.9837145 
   97000    288.07863   -309.75211    140336.01   -41107.839    3956.0662   -45063.906    1045.5243   0.98226049 
   97100    288.58985   -523.08676    140476.63   -41141.833    3963.0866   -45104.919    1047.1145   0.98127723 
   97200    288.77359   -294.39847    140060.99   -41120.577    3965.6098   -45086.187    1044.8432   0.98418924 
   97300    290.15453   -490.70411    140122.09   -41160.358    3984.5737   -45144.932    1046.1913   0.98376006 
   97400     290.8529   -485.24062    140226.57    -41144.48    3994.1641   -45138.644    1047.9258   0.98302707 
   97500    289.25202   -775.28292    140187.73    -41168.33      3972.18    -45140.51    1048.4103   0.98329947 
   97600    287.49408   -718.88445    139893.31   -41189.616    3948.0388   -45137.655    1048.6544   0.98536888 
   97700    283.47145   -315.70978    139757.35   -41180.109    3892.7978   -45072.907    1049.0098   0.98632752 
   97800    288.79106   -419.65674    139533.28   -41141.424    3965.8497   -45107.273    1048.3821   0.98791139 
   97900    288.45523   -376.24982    139768.13   -41073.798    3961.2379   -45035.036    1051.2514   0.98625144 
   98000     286.7031   -690.25573    140117.03   -41059.901    3937.1767   -44997.077    1054.0434   0.98379556 
   98100    291.33817   -434.25782     140173.5   -41094.363    4000.8282   -45095.191     1055.683   0.98339925 
   98200    293.11746   -684.80531    140339.87   -41042.777    4025.2625   -45068.039    1057.2204   0.98223343 
   98300    293.21495   -292.38875    140260.21   -41016.791    4026.6013   -45043.392     1057.917   0.98279132 
   98400    291.09518   -539.80959    140471.63   -41048.499    3997.4913   -45045.991    1060.3753   0.98131215 
   98500    293.42048   -452.32261    140132.38   -41047.734    4029.4237   -45077.158    1059.8224   0.98368786 
   98600     286.1104   -317.13354    140317.94   -41128.651    3929.0373   -45057.689    1062.6029   0.98238694 
   98700     288.8709   -509.83769    140377.17   -41080.714    3966.9462    -45047.66    1064.0913   0.98197247 
   98800     287.0042   -467.42981    140301.14   -41096.735    3941.3116   -45038.047    1064.2866   0.98250463 
   98900    294.19563    -414.8242    140547.32   -41092.677    4040.0685   -45132.746    1065.5816   0.98078371 
   99000    290.17651    -399.1486     140367.7   -41009.266    3984.8756   -44994.142    1065.8244   0.98203871 
   99100    289.95606   -489.48718    140289.52   -41056.807    3981.8483   -45038.655    1066.4323   0.98258598 
   99200    290.26724   -350.33412    140593.91   -41070.189    3986.1215   -45056.311    1070.0087   0.98045864 
   99300    289.82937   -680.23028    140898.11   -41059.806    3980.1085   -45039.915    1072.2789   0.97834184 
   99400    286.24113   -540.28171    140662.19   -41029.298    3930.8327   -44960.131    1072.3517    0.9799827 
   99500    293.58692   -630.59205     140677.7   -41038.324    4031.7093   -45070.033    1074.3132   0.97987471 
   99600     286.5735   -317.76997    140773.65   -41145.882     3935.397   -45081.279    1076.0461   0.97920678 
   99700    285.74621   -416.27531    140634.26   -41088.917    3924.0361   -45012.953    1077.0134   0.98017733 
   99800    284.40419   -551.37122    140663.04   -41116.404    3905.6067    -45022.01    1078.2148   0.97997684 
   99900    292.71201   -591.26587    140976.27   -41034.071    4019.6945   -45053.766     1081.499   0.97779944 
  100000    290.69609   -535.10745    141033.08   -41083.049    3992.0108    -45075.06    1083.4765   0.97740556 
  100100    286.60242   -815.18458    141025.65   -41123.831    3935.7941   -45059.625    1084.9626   0.97745703 
  100200    293.40945   -372.47975    140583.28   -41084.179    4029.2722   -45113.451    1083.9454   0.98053281 
  100300    288.46056   -437.31935    140551.47   -41136.512    3961.3111   -45097.823    1084.7126   0.98075473 
  100400    289.15766   -86.607284    140947.01   -41126.771    3970.8842   -45097.655    1087.9168   0.97800244 
  100500    288.98303    -404.6949    141217.39   -41205.999     3968.486   -45174.485    1090.4831   0.97612992 
  100600    289.88591   -417.69293    141245.29   -41223.346    3980.8849    -45204.23     1091.555   0.97593706 
  100662    291.43939   -608.78367    141030.42   -41178.901    4002.2182   -45181.119    1090.2819   0.97742398 
Loop time of 116.034 on 6 procs for 100000 steps with 4608 atoms

Performance: 372.306 ns/day, 0.064 hours/ns, 861.820 timesteps/s
99.0% CPU use with 6 MPI tasks x no OpenMP threads

MPI task timing breakdown:
Section |  min time  |  avg time  |  max time  |%varavg| %total
---------------------------------------------------------------
Pair    | 97.375     | 98.241     | 100.13     |   9.4 | 84.67
Neigh   | 6.9652     | 7.0713     | 7.2146     |   3.8 |  6.09
Comm    | 6.2196     | 8.0123     | 9.0464     |  32.5 |  6.91
Output  | 0.17205    | 0.17291    | 0.17636    |   0.4 |  0.15
Modify  | 1.8402     | 1.9145     | 1.9907     |   3.2 |  1.65
Other   |            | 0.6217     |            |       |  0.54

Nlocal:        768.000 ave         779 max         755 min
Histogram: 1 0 0 1 0 1 1 1 0 1
Nghost:        1557.17 ave        1567 max        1545 min
Histogram: 1 0 1 0 1 0 1 0 0 2
Neighs:        0.00000 ave           0 max           0 min
Histogram: 6 0 0 0 0 0 0 0 0 0
FullNghs:      21798.3 ave       22034 max       21365 min
Histogram: 1 0 0 0 1 1 0 0 0 3

Total # of neighbors = 130790
Ave neighs/atom = 28.383247
Neighbor list builds = 7011
Dangerous builds = 0

undump              1
unfix               2
unfix               3
unfix               4


################################################
#######         Run Simulation         #########
################################################

reset_timestep      0
log                 log.run_${NAME}
log                 log.run_liq_289K_-500atm_ML
