LAMMPS data file via write_data, version 29 Oct 2020, timestep = 100000

8512 atoms
1 atom types

-0.12334159446083959 104.801082121467 xlo xhi
-0.22776061270785775 51.32802374941936 ylo yhi
-0.22776061270785775 51.32802374941936 zlo zhi

Masses

1 18.015

Atoms # atomic

205 1 4.701470793908395 2.6306228403098157 1.7935361633883868 0 0 0
206 1 6.708103037064924 1.0361494328139604 0.6491612960035829 0 0 0
208 1 11.437295002401367 2.4278521773788366 2.247905174462608 0 0 0
207 1 12.950381143775699 1.0758035780646742 0.4505483458740196 0 0 0
209 1 17.47917746517272 2.545134923412342 1.8272393508652032 0 0 0
932 1 23.824010478690383 2.541535332203838 1.9278258121504521 0 0 0
933 1 30.141332243463307 2.3206311983606978 1.9979412008136697 0 0 0
211 1 1.2135154437827167 5.736204308481867 1.8175413543111754 0 0 0
212 1 3.1462587968661886 4.352249852380365 0.16794696650183794 0 0 0
213 1 8.01940770421121 5.754965115730509 1.7640016745774212 0 0 0
215 1 9.979853738863774 3.9420583872602206 0.41067811185790204 0 0 0
217 1 14.224792929104456 6.331486484659911 2.012075841426209 0 0 0
105 1 15.999191458099332 4.3417219366822115 0.6412149035482602 0 0 0
934 1 20.53721840250188 5.601124258696951 2.2789379896954154 0 0 0
931 1 22.166741096936065 4.357289637736809 0.3666624991295606 0 0 0
936 1 26.964104948466755 5.676884795691226 1.9577137417592008 0 0 0
935 1 28.777796499958136 4.004836835392298 0.6946097691893242 0 0 0
852 1 34.67849426854872 4.029967994948356 0.563552593458236 0 0 0
937 1 33.45596161539943 5.646372782751855 2.163118130544544 0 0 0
218 1 4.445458717478566 8.715007657925886 2.1238497536059424 0 0 0
110 1 6.3274738370529615 7.426070026539439 0.21930229223956083 0 0 0
220 1 11.145187511819046 8.946259109166514 2.1988057354187966 0 0 0
112 1 12.714553599975185 7.722365036899202 0.2787692870852896 0 0 0
222 1 17.684033998432337 9.705792941762953 1.6791310668934079 0 0 0
1075 1 19.259323779471924 7.690424921401945 0.6371763368754363 0 0 0
939 1 25.258943866236123 7.27349648871447 0.5653599008243243 0 0 0
938 1 24.11027349607924 8.89477650742889 2.0577954129442912 0 0 0
940 1 31.34802259643268 6.836713318050509 0.8170352445738995 0 0 0
941 1 29.952650074794217 8.834350999886464 1.9107309553298308 0 0 0
224 1 1.4697033983135435 11.677610245847825 1.842708585343313 0 0 0
115 1 3.315258458779601 10.24523533575465 0.3288078997904489 0 0 0
226 1 7.508454794193429 11.516409330955689 1.8706849488331159 0 0 0
118 1 9.52791795321022 10.415210630282235 0.3494291102961621 0 0 0
228 1 13.752868879583254 12.027489637370614 2.1650956406187682 0 0 0
120 1 15.792801714813875 10.93363445437678 0.43727268852255907 0 0 0
943 1 22.070221828920126 10.421774679944418 0.5097902051048524 0 0 0
942 1 20.78582521707469 12.37017833322197 1.9062798709334623 0 0 0
861 1 28.119837734205348 10.147730693651534 0.3503092312195061 0 0 0
944 1 26.74814010308878 11.809670306053171 2.1364816278153627 0 0 0
945 1 34.72576276494266 10.2837874390749 0.07506892205363519 0 0 0
946 1 33.561420757334915 12.104959703634519 1.7459211340844083 0 0 0
43 1 0.10971215624971348 13.800019280043202 0.2574051485776767 0 0 0
229 1 4.8855825481054564 15.272730791756823 2.0143084937701063 0 0 0
124 1 6.259503824121101 13.596105426307847 0.3211037004476659 0 0 0
231 1 11.067234973951264 15.467687120884122 2.2108445745740934 0 0 0
127 1 12.914641935597118 13.98826484740322 0.6723847235108886 0 0 0
232 1 17.648157643754676 15.28007425951784 1.6064529681904287 0 0 0
791 1 19.362865472877537 13.875591037116562 0.3245291571958604 0 0 0
950 1 25.219599983901603 13.58805138592573 0.6586640472111198 0 0 0
949 1 23.813908356945817 15.100850328788674 2.2918278445924676 0 0 0
952 1 31.353758636554314 13.175531170117006 0.44799805118551805 0 0 0
951 1 30.162671213222797 15.149658853709992 2.280339701663737 0 0 0
6560 1 0.13714131819930014 6.117530955737926 24.727814400202504 1 0 2
233 1 1.3131641548376993 18.80296072121282 1.5619878586572338 0 0 0
234 1 3.171695363182447 16.816045337317558 0.33854657396500387 0 0 0
236 1 8.12285920961089 18.703546297722266 2.026574624801313 0 0 0
130 1 9.789342343878065 17.026780859313163 0.45894195866003307 0 0 0
238 1 14.475014577575225 18.69469350258418 2.000196219715939 0 0 0
133 1 15.844673225773215 16.83299992363866 0.08841312598279116 0 0 0
953 1 20.8651985775353 17.975320559687294 1.931977873914291 0 0 0
871 1 22.216817402066457 16.69603463039654 0.27227158181525135 0 0 0
955 1 26.876526950764617 18.33662528345577 2.1854934562118897 0 0 0
954 1 28.589071174044218 16.609784309027486 0.8636853257967814 0 0 0
87 1 -0.12321479862661547 26.319968198713077 0.24829022365493242 0 0 0
962 1 33.568452938370065 18.7235184628342 2.1831631676839462 0 0 0
245 1 4.609804784543272 21.464619000623568 1.3756913860422477 0 0 0
137 1 6.6143380035710555 19.705174601830674 -0.0763250629792088 0 0 0
242 1 10.91662862952317 21.74903364593958 2.0426613615317124 0 0 0
243 1 12.68620927681595 20.103914657333835 0.33780007012440316 0 0 0
1592 1 4.669992154068815 50.550692069819135 24.43170170968963 0 0 0
244 1 17.65353853800252 21.717998395228935 2.0744928463177885 0 0 0
794 1 19.250347767496223 19.942216784923158 0.38846411188875807 0 0 0
958 1 23.783021129653726 21.55707150827237 2.28453225334595 0 0 0
959 1 25.408350253490408 19.90466531160777 0.61856984109119 0 0 0
880 1 31.60707873172756 19.990235477011925 0.9178901699293747 0 0 0
8419 1 -0.01068308146368642 14.136205149003018 13.164783744432482 1 -2 2
144 1 2.9972227063520904 22.95065659678002 0.007020664973478613 0 0 0
249 1 1.5510321427780756 24.51179515056335 1.7539954714887955 0 0 0
251 1 7.59233959378829 24.41449681633926 1.942554056038443 0 0 0
147 1 9.523806180614121 23.03760344968381 0.2568181223798012 0 0 0
149 1 15.997061709676203 23.148072784565954 0.48104670954978856 0 0 0
3130 1 34.8185740237738 32.906484461408155 3.449340230223539 0 0 0
964 1 20.75061971683245 24.865633492823253 2.1018993850155234 0 0 0
963 1 22.291370280852792 23.38985701659291 0.4174658120961743 0 0 0
884 1 28.267731883087478 23.221266137707055 0.41796991732094324 0 0 0
965 1 26.486898884698892 24.682329822774186 1.794133580825695 0 0 0
961 1 30.118300540504304 22.298859540523946 2.283266249958967 0 0 0
886 1 34.65309560796709 23.57059872960609 0.3163370635494598 0 0 0
254 1 4.7885901901270325 27.68772087543102 1.7732059755894731 0 0 0
250 1 6.204857662093791 25.88885975834133 0.3162251206418396 0 0 0
252 1 12.526659340735382 26.681550691700213 0.16599297459090723 0 0 0
247 1 14.462762297683907 25.057001171606903 1.9543965655008044 0 0 0
968 1 19.339812691815073 26.66441177934681 0.48879771219172374 0 0 0
969 1 25.215841712314347 26.40478792782652 0.29511228720419025 0 0 0
889 1 31.281292684515062 26.567277491503823 0.362465680976247 0 0 0
967 1 33.08956706927097 25.37415857641742 2.158620839487228 0 0 0
156 1 2.9816680613432673 29.628979776738046 0.643064336649724 0 0 0
255 1 9.098123479488173 29.93523825439517 0.30929343401728204 0 0 0
256 1 10.886868435322997 28.17478663405289 1.5761400088495028 0 0 0
161 1 15.441304791444542 29.803727225643826 0.5236684477403172 0 0 0
257 1 17.42634243394692 28.32293937034016 1.8230935264768648 0 0 0
892 1 22.028193990208 29.82148826030625 0.44204663719994897 0 0 0
972 1 23.546005623488973 28.21274273131084 2.047178591717052 0 0 0
973 1 28.688246609685333 29.526337302812603 0.4496002681999459 0 0 0
974 1 29.870518313335335 27.96369864518674 2.1605158194768714 0 0 0
259 1 1.1073334358450924 31.52845975044055 1.9328036839576885 0 0 0
163 1 6.081510024272679 32.87829476115242 0.1382843147834985 0 0 0
261 1 7.600095169549046 31.46502409979976 2.285252630338001 0 0 0
262 1 12.529136822256271 32.76895051815491 0.373795581332947 0 0 0
263 1 13.78243166654438 31.28460011420676 2.219491273228503 0 0 0
459 1 18.961025405495736 32.85029184422879 0.2768884474576353 0 0 0
975 1 20.57941102693855 31.663778628737315 2.0103512243032733 0 0 0
897 1 25.249871059803834 32.76984100379295 0.5913194373623792 0 0 0
977 1 26.96799781363408 30.963378454454563 1.8874193753833968 0 0 0
901 1 31.606293190695933 32.90531506165169 0.28251446750370823 0 0 0
979 1 33.27953005381671 31.074797376084966 2.135567172040384 0 0 0
169 1 2.7066398912749228 35.95523510814067 0.6310272754326995 0 0 0
266 1 4.483312418254523 34.11595543032162 1.8481183312970835 0 0 0
171 1 9.083023208008798 36.009801286986914 0.09133267873383444 0 0 0
267 1 11.019019283403884 34.54822670633408 1.6187825932352693 0 0 0
173 1 15.691766612948534 35.93760504958735 -0.03399658988428786 0 0 0
269 1 17.038934342640932 34.52548680087712 1.7223028513223588 0 0 0
903 1 22.13409158969126 35.77992317240049 0.4285006536697771 0 0 0
980 1 23.989238084799958 34.457688275502036 2.135959747513041 0 0 0
904 1 28.141496162178687 36.172935356417995 0.5054661823366355 0 0 0
982 1 29.910299801360143 34.374037964124966 2.143605693262163 0 0 0
22 1 -0.11191909213647804 42.71405042590352 16.498109018943897 0 0 0
271 1 0.9128883146887659 37.72077282539638 2.1819545398540034 0 0 0
175 1 5.699712930605475 39.3186537618987 0.4980523829196667 0 0 0
273 1 7.464477612828924 37.89995594113117 1.8136137299586381 0 0 0
274 1 12.286180846782349 39.25478937511119 0.29480935626046256 0 0 0
275 1 14.06739495144643 37.69878901656543 1.7483932953550907 0 0 0
984 1 20.59151400679667 37.446405651717654 2.0375922341564516 0 0 0
764 1 18.994897300637984 38.97872114236553 0.259445296549988 0 0 0
909 1 25.131572533423316 39.381133350522845 0.16885170045501224 0 0 0
986 1 26.865523882664238 38.32019429175659 2.038365696450005 0 0 0
911 1 31.81215164559547 39.04054907891748 0.5276198459604201 0 0 0
988 1 33.612812579043776 37.41575296146098 2.2334589094031343 0 0 0
183 1 2.3352950714891483 42.55358830348047 0.14697605478720172 0 0 0
278 1 3.8702478180159177 41.020424409957954 2.0731851828901804 0 0 0
185 1 9.253955052000634 42.55984365305706 0.400650649836068 0 0 0
280 1 11.084148547797225 41.06577080460393 1.9210487969875176 0 0 0
283 1 17.55892396912361 40.61416099424014 1.6974424744378551 0 0 0
282 1 15.810692720882717 42.18688811686572 0.0826950243869975 0 0 0
913 1 21.880525512499613 42.09413369751351 0.34915034679878243 0 0 0
990 1 23.6620475799928 40.70364981089293 1.992773360782302 0 0 0
915 1 28.862515658688483 42.07501500324129 0.038344147806826046 0 0 0
992 1 30.54434635018389 40.93458730020639 2.0580689788432753 0 0 0
993 1 34.69385756380954 42.59407012519442 0.5510327442326024 0 0 0
284 1 1.0723985558145999 44.30371769925638 1.8735501514481285 0 0 0
190 1 5.874689002397639 45.30558078047423 0.36037516766649225 0 0 0
285 1 7.768913223493699 43.98251086642446 2.0367770134749708 0 0 0
287 1 14.875070675354412 44.09650580151525 1.7091666732335533 0 0 0
193 1 12.804203875553593 45.43455968833764 0.8308539476872587 0 0 0
818 1 19.093163729813746 45.269263953522895 0.4144408422568969 0 0 0
996 1 20.636210449335827 44.1101230221296 2.2091125544769077 0 0 0
919 1 25.037581627853513 45.45561289221992 0.47648868402829725 0 0 0
998 1 27.335752683684046 43.756208037796526 1.8090640851764692 0 0 0
921 1 31.75341767069058 45.573280714477804 0.36386429567361966 0 0 0
1000 1 33.083206407429344 44.085645578224884 2.08964525265138 0 0 0
289 1 3.132194707622362 48.486578363034454 0.1705859942560231 0 0 0
290 1 4.654451375137412 47.07195251128367 2.015751136270768 0 0 0
198 1 9.182058145772174 48.912980761566615 0.3859267991075147 0 0 0
292 1 11.014517226181988 47.51400689893468 1.9054055713889513 0 0 0
200 1 15.812511445801599 48.79657139627592 0.3880355804186598 0 0 0
294 1 17.749826734789995 47.300943732993275 1.948498183545356 0 0 0
1005 1 22.143321026727754 48.60925412751473 0.38568229671073173 0 0 0
1001 1 23.883819684368778 47.348771089075456 1.8851105009804012 0 0 0
1002 1 28.2253562207769 48.83072968220675 0.4271776012561016 0 0 0
1003 1 29.96604110846208 47.21172471690551 1.858202593920136 0 0 0
270 1 -0.08810596554833322 0.46558860423816595 0.37146940552630936 0 0 0
295 1 1.2925306249056245 50.05768889651594 1.768458269709004 0 0 0
2321 1 25.477028854337902 48.37384123230835 22.59238089641104 0 0 0
297 1 7.809443769288387 50.50849734006192 2.3279498119618953 0 0 0
2320 1 33.647606170357946 46.787521706865434 24.09974488574977 0 0 0
298 1 14.412362410239048 50.33948796305458 1.8495004471374816 0 0 0
777 1 19.109928820691113 0.48426870193556215 0.3842660341775209 0 0 0
1006 1 20.722199063247935 50.44963504184335 1.7079921292872329 0 0 0
844 1 25.32274156888756 0.4899737087650108 0.3411882724101293 0 0 0
1008 1 27.094368934700988 50.7262158011046 1.9023721701800502 0 0 0
1009 1 32.000649736971745 0.3646576615082485 0.7329359744262822 0 0 0
300 1 1.462421611310723 2.1961802794795973 4.987444059089 0 0 0
301 1 7.778981795117846 2.74049094378552 5.0548997873785595 0 0 0
387 1 9.596932442597929 1.060724926286895 3.790342150580953 0 0 0
304 1 14.336475979705904 2.583509335024124 5.071384817330207 0 0 0
299 1 15.807975128715773 0.9997838264541865 3.4058543978331186 0 0 0
1011 1 20.464003888265182 2.4069337697500215 5.055969841326221 0 0 0
1007 1 28.454238143494894 1.0714636014478547 3.63010274457595 0 0 0
1012 1 26.853856355921685 2.7298949001276123 5.323200284679432 0 0 0
1013 1 33.33819733231664 2.5766427361326025 5.214162499182397 0 0 0
214 1 6.164196554902736 4.318198522358786 3.452534174350919 0 0 0
306 1 4.851132292334994 5.762726918651548 5.245633451652663 0 0 0
307 1 10.981961454623441 5.887236076520341 5.001686989838921 0 0 0
216 1 12.6503216933309 4.499744097117851 3.520016828050482 0 0 0
308 1 17.311443509109044 5.993617258243386 5.044769568691122 0 0 0
772 1 19.082121495981653 3.9316043122121505 3.5834784994411106 0 0 0
1015 1 23.83246547956439 5.656679026036658 5.077811142524942 0 0 0
1016 1 25.42808320841246 3.98135955168061 3.670825268607456 0 0 0
1017 1 31.58493943459164 4.125714995067928 3.6020163355471406 0 0 0
219 1 2.6700351939865046 7.163529138895461 3.6259288465640696 0 0 0
310 1 1.3754945897153248 9.211405939454023 4.9419964687152165 0 0 0
221 1 9.34894519706878 7.543505371977463 3.6604275581817145 0 0 0
312 1 7.654981074681629 9.110336074421689 5.469202496409654 0 0 0
223 1 15.718427462034658 7.96173649731632 3.496505198605018 0 0 0
314 1 14.25435745139333 9.410948311222397 5.235358707885361 0 0 0
1020 1 20.66217914875451 8.92982635244648 5.491530904849666 0 0 0
1019 1 22.18817296827878 7.474897583420344 3.6556919574985884 0 0 0
1021 1 27.20329662046333 8.337529779442502 5.266093711190676 0 0 0
1022 1 28.792098182431864 6.976039699163596 3.4344788261913743 0 0 0
1023 1 33.487278776487315 9.079250952311163 5.008125296104076 0 0 0
225 1 5.894451659554161 10.424390657300181 3.7360999314882974 0 0 0
316 1 4.175736223101146 12.054961171901013 5.10212227900986 0 0 0
227 1 12.393146140383914 10.654809575200705 4.098431958725499 0 0 0
318 1 11.05448713656599 12.31090132798493 5.357758415752823 0 0 0
319 1 17.69740568812741 12.382805947737948 5.1478142223762795 0 0 0
1045 1 19.456734153268158 10.761554086264205 3.746084624387187 0 0 0
1025 1 23.770357957215545 12.055374020483562 5.308496150614008 0 0 0
1026 1 25.535972387832572 10.343822937114176 4.061839999378696 0 0 0
1028 1 30.21004728765055 12.117322641236678 5.095337254840248 0 0 0
1027 1 31.927977497639525 10.721255069495392 3.4529878602599267 0 0 0
320 1 2.8886078309032595 13.76560370361522 3.304646687848577 0 0 0
321 1 1.2781342174156383 15.482572190670322 4.803716485484514 0 0 0
230 1 9.234677926537914 13.23907481310311 3.491098507869246 0 0 0
322 1 8.058124329607802 15.022376987483613 5.115337600164269 0 0 0
325 1 15.649444387197997 13.986262273234958 3.2796795242092456 0 0 0
324 1 14.304984308689544 15.629404333371545 5.414726596575842 0 0 0
1029 1 21.06762636018972 15.323862813929761 5.308182790853242 0 0 0
948 1 22.39012927179986 13.551987752048168 3.8234671269773557 0 0 0
1031 1 27.1279524090635 15.280760492547845 5.508218773906195 0 0 0
1030 1 28.56844040123607 13.767613391115292 3.5975938902099607 0 0 0
1032 1 33.48938422538675 15.293000439342872 5.206341552070779 0 0 0
328 1 4.348390690564351 18.290016918767623 4.996363499010375 0 0 0
235 1 6.38592230672871 16.702644388649237 3.7099389046110622 0 0 0
329 1 10.760924800547128 18.578083804835302 5.3394159310065135 0 0 0
237 1 12.654083026646596 17.24991122737851 3.7522689519616947 0 0 0
331 1 17.580100921657447 18.313624931572175 5.160544787398809 0 0 0
1362 1 19.026242732577543 16.69066570528666 3.339801867880292 0 0 0
1034 1 23.95927715629436 18.638037159157232 5.32638828154217 0 0 0
1033 1 25.490667071088534 16.714310290398387 3.9995727664088125 0 0 0
1035 1 30.194025580702444 18.64363303148305 5.327405984496381 0 0 0
956 1 31.952461138069296 17.13405548498315 3.7522559753802276 0 0 0
332 1 2.8585134012869107 20.477236066415873 3.4893973824099214 0 0 0
333 1 1.2608963195191207 21.67208267639436 5.168968880425586 0 0 0
334 1 7.699991526653456 21.723862119749253 5.066836770588982 0 0 0
241 1 9.481509348330999 20.13983727350777 3.5308513650858657 0 0 0
337 1 15.830579248016159 20.383319354482953 3.648601587412017 0 0 0
957 1 22.147602781438884 19.87492032661061 3.701143340262143 0 0 0
960 1 28.47802620525605 20.152948593298234 3.5633458999123295 0 0 0
1038 1 26.59460981980711 21.597750224860413 5.419432195343916 0 0 0
375 1 -0.11566182069946042 39.39944941403647 0.27442670181511297 0 0 0
339 1 5.681819019275157 23.32212663971312 3.759659724679725 0 0 0
340 1 10.855444434340235 24.84765983907816 4.592065531490425 0 0 0
336 1 14.104812796558155 21.98185617828089 5.111919865994635 0 0 0
246 1 12.65757904452611 23.748531334539273 3.428320740156648 0 0 0
346 1 17.597462388344216 24.76225736735925 5.551607610751912 0 0 0
785 1 19.401281393183183 23.267250761998504 3.8344909359950954 0 0 0
1042 1 25.139490471376853 23.142012579636454 3.687675043901278 0 0 0
1043 1 23.733650148232506 24.72434295226763 5.231658472725787 0 0 0
966 1 31.44455527442181 23.70192827107472 3.904368361744768 0 0 0
1040 1 33.29293349158214 21.98329207130901 5.171619641355042 0 0 0
341 1 2.9471862538779368 26.352538198026124 3.32916835563638 0 0 0
347 1 0.8644177153878041 27.718284148224704 5.04243836330711 0 0 0
342 1 4.302812564004659 25.010165763362256 5.410307449210814 0 0 0
344 1 8.96650227089637 26.28053744204736 3.143265905027448 0 0 0
350 1 14.228098566258373 27.68459508756049 4.60899786158714 0 0 0
345 1 16.30806282181173 26.297264939347766 3.5368465698957876 0 0 0
1046 1 22.24999230658437 26.569775402890706 3.8682997500195944 0 0 0
970 1 28.148741502392337 26.21892860049445 3.6826620246656914 0 0 0
1048 1 29.601366167969434 25.08001995757082 5.46682514500658 0 0 0
1049 1 34.65209203075492 26.87527624602764 3.667784522055092 0 0 0
349 1 5.8872913285519575 29.630263427162703 3.4826241440330614 0 0 0
343 1 7.636282104016527 28.054172017256075 5.036604247829585 0 0 0
351 1 12.15865277003741 29.688380474974075 3.667564734019267 0 0 0
239 1 18.803482827504595 30.216176110294825 3.460056510611054 0 0 0
1051 1 20.42670157063569 28.053679235775814 5.165344387894878 0 0 0
1053 1 25.17729874034545 29.677413290505065 3.444447665624677 0 0 0
1047 1 26.618421233257997 28.01766745233768 5.125497838886321 0 0 0
1055 1 31.714996071286645 29.596291188592623 3.587495887702304 0 0 0
1050 1 33.09164236241889 28.13252739187483 5.526899994599553 0 0 0
260 1 2.760621192777872 32.848112152355 3.5494966667211147 0 0 0
352 1 4.1720419051669815 31.216474333358704 5.205398998345284 0 0 0
354 1 9.433604736718392 33.21927050177122 3.2464098956465954 0 0 0
355 1 10.823357756674648 31.803172734012957 5.033669592636673 0 0 0
264 1 15.367279679143948 32.87688799967148 3.484143451521429 0 0 0
357 1 17.109438763930047 31.641098973830506 5.230984048827487 0 0 0
976 1 22.543772917212916 32.956741013820746 3.87081292472926 0 0 0
1057 1 23.77459464174396 31.283712569827966 5.491618699962045 0 0 0
978 1 28.353125313541817 32.53096179117517 3.495490749862553 0 0 0
1059 1 29.964826438156997 31.034867058867658 5.182640127811917 0 0 0
4290 1 0.030111207264190865 1.2670787042894571 8.127253173982075 1 0 0
359 1 0.7862265560028353 34.54710648778308 5.23933892700405 0 0 0
360 1 5.779378516266676 35.94333692435842 3.1398374006376875 0 0 0
361 1 7.637328557163565 34.74989487481403 4.877767943663153 0 0 0
268 1 12.51784353710421 36.09142234891728 3.4535261283458647 0 0 0
362 1 14.261787527816612 34.84458040462307 5.02556997899353 0 0 0
338 1 18.831833049933515 35.85394427186971 3.3221619813974876 0 0 0
1061 1 20.666943249908158 34.43973489196273 5.145862851943419 0 0 0
981 1 25.679378913824436 36.30691997710814 3.4253083868596126 0 0 0
1063 1 27.07241615356929 34.60064386120035 5.035238692592991 0 0 0
983 1 31.622053010937105 36.011059448638235 3.4975643219443415 0 0 0
1065 1 33.30496847337262 34.51021428640246 5.247282924614412 0 0 0
272 1 2.8328984605998913 38.949182799919896 3.7255060742303128 0 0 0
364 1 4.498003765644819 37.14590014687673 5.350107441338976 0 0 0
365 1 9.411694566427041 39.379411555632316 3.5507373534896716 0 0 0
366 1 11.099588355424792 37.82087283349496 5.3256809684633994 0 0 0
368 1 17.570437787679193 37.54373061095366 4.698746689474336 0 0 0
276 1 15.82621723312034 39.25322643255613 3.3379567785624373 0 0 0
1066 1 23.785361199940024 37.25358300546259 5.128036627695703 0 0 0
985 1 22.318439233073473 39.05826474200717 3.5311133109721236 0 0 0
987 1 28.96408996401218 39.38959928392876 3.7060925046650985 0 0 0
1068 1 30.587361383260294 37.58603600545402 5.2018531651448585 0 0 0
370 1 1.2184745924559799 40.70578526652065 4.8944086815461025 0 0 0
279 1 6.223031212422205 42.19488599220374 3.4660796452029974 0 0 0
371 1 8.19257145809799 40.66136824382046 5.472617216594213 0 0 0
372 1 14.418823268322841 41.36633523675316 4.714506905843704 0 0 0
821 1 19.019126541279267 42.26101725787029 3.580748613361864 0 0 0
1069 1 20.685931614679838 40.63294679008955 5.057877437441594 0 0 0
991 1 25.176400392003597 42.751922321584416 3.127521707243538 0 0 0
1071 1 27.0900032801358 41.2612633425163 5.002832521586047 0 0 0
1074 1 33.19615181416312 40.455274862624165 5.2274824615308475 0 0 0
1073 1 31.842180355268585 42.60486315169989 3.9458647552407786 0 0 0
376 1 4.424432628579401 43.494290136871 4.956936279836233 0 0 0
374 1 3.1045468668878025 45.36330076923464 3.4034142993884893 0 0 0
286 1 9.385524714192387 45.84977091114037 3.683215043533601 0 0 0
377 1 11.158063604560292 44.51485191829447 5.403262388253045 0 0 0
281 1 12.696657612496246 43.080249705668976 3.424367766408137 0 0 0
288 1 16.085708389413405 45.48200564095113 3.673482922258209 0 0 0
379 1 17.930165131838134 43.969021497091475 5.323716969578547 0 0 0
997 1 22.33144242024625 45.70601522134125 3.4483402914145693 0 0 0
1076 1 23.970311961355666 44.00061925001262 5.169123072381516 0 0 0
999 1 28.410187385705306 45.82346320556266 3.5692281010010096 0 0 0
1077 1 30.036168598491695 44.184638609476735 5.407869328692522 0 0 0
2343 1 22.409216676656644 10.46335605402522 25.50570017818013 0 0 0
380 1 1.2763618146596585 46.90011728277862 4.9114234518795845 0 0 0
291 1 6.045434719305942 48.99440491012331 3.8317546259558233 0 0 0
381 1 7.8074987615132185 47.37686784951286 5.363160088669495 0 0 0
383 1 14.424228799607206 47.23831434867138 4.973836982917335 0 0 0
293 1 12.723029800788572 48.93320950703642 3.901882736148961 0 0 0
829 1 19.418503554974397 48.83363731128142 3.625257915049193 0 0 0
1078 1 20.831341881190095 47.16698711232729 5.346972692931104 0 0 0
1079 1 25.840745287096855 49.106475619720456 3.537407362563036 0 0 0
1081 1 26.91267742375728 47.23786349022188 5.336723214265536 0 0 0
1082 1 31.287940024216038 48.46535790206431 3.862980568158223 0 0 0
1083 1 33.120174174463415 46.977838201199646 5.534750320978052 0 0 0
296 1 2.696372771196272 0.3887389054545325 3.043724075861252 0 0 0
386 1 4.3097986844370615 50.775570287019946 5.013983464098268 0 0 0
388 1 11.184249833882758 50.59136566524941 5.493768938572982 0 0 0
390 1 17.495780996095238 50.522784817303716 4.977322078483715 0 0 0
1085 1 22.347002519591417 0.3020405332449949 3.569650219313227 0 0 0
1086 1 23.882447406873894 50.23753819169296 5.4093430802383935 0 0 0
1088 1 29.77076820523776 50.260678563646735 5.255166888636775 0 0 0
1010 1 33.13468135170263 49.98238658262417 2.548841558987905 0 0 0
392 1 4.420516528102093 2.59037659621086 8.435306471622496 0 0 0
303 1 6.250461838643173 1.0243450374319556 6.506615105625348 0 0 0
394 1 10.786559350386655 2.4154113839115343 8.37044868726568 0 0 0
389 1 12.759799088959566 1.2668263143229481 6.886307184563089 0 0 0
396 1 17.4977741308913 2.3801286044013095 7.987776116800655 0 0 0
1090 1 23.806595325325173 2.179853441570175 8.412044821970175 0 0 0
1092 1 30.2056257226271 2.141389164269053 8.343386861727003 0 0 0
305 1 2.9639366235073425 4.269809227326503 6.641311077265268 0 0 0
398 1 1.062691027548333 5.660720834914267 8.064107625909916 0 0 0
400 1 7.969704091040638 5.808834509411872 8.301106835543495 0 0 0
302 1 9.560253344948466 4.168143175059918 6.6947857459078985 0 0 0
401 1 14.34127095908712 5.779523978200673 8.542826199354327 0 0 0
309 1 15.821403075777969 4.188636363889685 6.6138745290007135 0 0 0
1093 1 20.77042808396878 5.689172013732433 8.184683796808276 0 0 0
1089 1 22.591220287299432 3.835813558063494 6.652026852378998 0 0 0
1095 1 26.83662866958492 5.657386292439869 8.522335402248919 0 0 0
1091 1 28.51096602668072 4.1292576040491875 7.102301995531541 0 0 0
1018 1 30.15651499377886 5.85739085699409 5.635073898405795 0 0 0
1096 1 33.25987419155126 5.8357819037257945 8.45017444786827 0 0 0
7200 1 -0.0028899947010800897 31.87372625708669 5.5143398724549 1 -3 1
311 1 6.1571936729004335 7.5187165942171985 6.843518310789454 0 0 0
403 1 4.099546516754689 8.917857704666742 7.834959258057706 0 0 0
405 1 11.200549704067964 8.923294087071236 8.051476252138372 0 0 0
313 1 12.724632426240381 7.368538258048446 6.463111592432471 0 0 0
142 1 18.8825032079599 7.210496633231065 7.08115424426678 0 0 0
406 1 16.82384334475095 8.879707891302246 8.495556624148028 0 0 0
1094 1 25.219067567272003 7.120441461244496 6.644925334287875 0 0 0
1097 1 23.625659031230583 8.599165680952567 8.662036795495084 0 0 0
1099 1 29.783598822112797 9.21195578152737 8.51159979339295 0 0 0
1098 1 31.681613313852072 7.6712582153639115 6.934316308429971 0 0 0
315 1 2.459398222095679 10.638453139118889 6.696040400830214 0 0 0
409 1 0.892781058451404 12.354332596180097 8.435841044168049 0 0 0
411 1 7.7972709511194 12.208972112831026 8.692307223795348 0 0 0
317 1 9.489599037188317 10.672661715730575 6.839781033443089 0 0 0
412 1 14.529921693829586 12.573179058056231 8.640536707959507 0 0 0
414 1 15.895989741649093 10.841883617222166 6.965029403525071 0 0 0
1101 1 22.073486431583422 10.463506017468623 7.018857179145261 0 0 0
1100 1 20.416663076335468 12.124440427828098 8.50537175743813 0 0 0
1102 1 28.203907078518988 10.612852213490582 6.495314550836754 0 0 0
1103 1 26.981097110310024 12.119011264850478 8.540181211733008 0 0 0
1105 1 34.59976182921078 10.654842989531168 6.88667819719023 0 0 0
1104 1 33.09263513108461 12.090140631820256 8.419173053996333 0 0 0
417 1 6.104823749559609 13.513599661653299 6.788845539841004 0 0 0
415 1 4.508849661065496 15.10035840227723 8.204827129298506 0 0 0
323 1 12.414034411531343 13.775540907143412 6.952246000459479 0 0 0
418 1 10.842760675095894 15.690634816848934 8.438656848518132 0 0 0
419 1 17.378503165870093 15.37554417923755 8.228371834646596 0 0 0
858 1 19.1621905151065 14.111971777261896 6.665536821960159 0 0 0
1107 1 25.308401101898365 13.606444512510281 6.9330275722879335 0 0 0
1106 1 23.907789892101725 15.348411968963346 8.635654479921325 0 0 0
1109 1 30.336741470046835 15.319719627307734 8.716340789612362 0 0 0
1108 1 31.725810074236215 13.787592415448955 6.837001269568678 0 0 0
422 1 2.8864854992569517 16.53050721622611 6.753547829453994 0 0 0
421 1 1.3856517114232936 18.393354068189417 8.276099244900616 0 0 0
330 1 9.07852652887393 17.02899978804816 6.61215409547251 0 0 0
423 1 7.606075439233677 18.333510582814753 8.438401422885196 0 0 0
424 1 15.840216934996239 17.344767246370754 6.9077700592374285 0 0 0
1112 1 20.560111615948944 18.239867152267223 8.56723732612385 0 0 0
1111 1 22.416802715549213 17.17708048267471 6.950266627317745 0 0 0
1114 1 26.938158097462537 18.161875349823184 8.77025390619054 0 0 0
1113 1 28.679073523177927 16.824481773349255 7.047963658507386 0 0 0
1115 1 33.59959627297893 18.644879440863956 8.601364254954888 0 0 0
2323 1 23.8620149492591 49.98698843872009 24.22486596487976 0 0 0
427 1 6.181044883230835 20.055175330478892 6.351008226189479 0 0 0
428 1 4.483900819838401 21.60598589889175 8.029971984011153 0 0 0
335 1 12.403729644900393 20.456823058394438 6.543521928468205 0 0 0
425 1 13.994821302328184 19.034582642561634 8.334987135248795 0 0 0
431 1 17.51952684889853 21.556210467887592 8.560186894644826 0 0 0
995 1 19.086509012279382 19.965872767248936 6.914774217299546 0 0 0
1037 1 20.808549623859626 21.547171651758912 5.747206710735542 0 0 0
1118 1 25.274284813441934 19.856736678011156 7.210654838936848 0 0 0
1120 1 29.91091003173004 21.72753412969691 8.406621814066007 0 0 0
1039 1 31.7648571169154 20.15253309780547 7.03796117501322 0 0 0
432 1 2.695856999280788 23.18332747892025 6.802242157012432 0 0 0
439 1 1.3320505586967293 24.82362465875966 8.500428039906234 0 0 0
433 1 9.22992464256538 23.610652349926934 6.578032872336482 0 0 0
430 1 10.780038370301273 21.955379081483184 8.225439092645594 0 0 0
437 1 15.593617351499407 23.357188081729294 7.0544098668529305 0 0 0
1041 1 22.2390455456549 23.184411540512485 7.379061415668551 0 0 0
1044 1 28.07486474353543 23.22082029109157 6.941150723170486 0 0 0
445 1 4.582545697008609 27.845920429799463 8.22129886011439 0 0 0
440 1 6.248014477737171 26.374532149961453 6.671053129290515 0 0 0
434 1 7.613115154780699 24.98400003024417 8.637662850086995 0 0 0
442 1 12.37347352971582 26.417868480316596 6.313518457072405 0 0 0
436 1 14.19006702271283 25.153622723864903 8.280766186636528 0 0 0
1121 1 20.49355022351645 24.980632110839295 8.462837027836343 0 0 0
812 1 19.05361160752188 26.6068746055796 6.860146105550588 0 0 0