LAMMPS data file via write_data, version 29 Oct 2020, timestep = 200000

4608 atoms
1 atom types

-0.10864301439961821 57.379153014398796 xlo xhi
-0.09657156835609726 51.00369156835603 ylo yhi
-0.09657156835609726 51.00369156835603 zlo zhi

Masses

1 18.015

Atoms # atomic

1408 1 15.691254671496985 22.557238826635587 25.30359314573624 0 0 0
29 1 5.106506112579252 1.9641321454007152 1.4245954452061464 0 0 0
25 1 3.665413327468913 0.10767799119728855 3.027250814147352 0 0 0
285 1 11.67216611734619 1.1959101695118126 1.4374559054501508 0 0 0
1344 1 15.792859322527876 9.663247290646447 25.356660074671595 0 0 0
541 1 17.580727601120493 1.4416697555751323 1.8564244224391266 0 0 0
544 1 16.12924176325382 3.3006407469329995 -0.06027002938036774 0 0 0
30 1 1.5102568548476976 4.7958019090963235 1.128673950682132 0 0 0
740 1 17.50902201319707 49.54286914846262 24.039034866889086 0 0 0
1440 1 15.76752087432407 28.34646323293372 25.36055171361538 0 0 0
286 1 8.151782426514094 4.737421739269394 1.4767097889652852 0 0 0
542 1 14.594005828436021 4.889952826376942 1.4514125839572591 0 0 0
57 1 3.0110268337568242 6.5135710201395804 2.9482300265641768 0 0 0
61 1 4.584956943229073 7.916591995296081 1.58763827692717 0 0 0
313 1 9.542356406251782 6.22967645742134 3.081819342429105 0 0 0
832 1 3.0512866185834056 9.397170194111528 25.412504970717308 0 0 0
317 1 11.099011238207595 7.589439855792941 1.4458259519549124 0 0 0
570 1 12.619266800102645 9.56383544051497 2.9532260010343423 0 0 0
569 1 15.673677308352687 6.228952007148086 3.6743235632044167 0 0 0
573 1 17.46246505791871 7.789154482198372 1.8384275657211158 0 0 0
62 1 1.7001109071117229 11.143792489247804 1.3942058398467865 0 0 0
194 1 -0.04044537896414897 41.666648993749064 22.389330229258825 0 0 0
318 1 7.745772534858491 11.115994015378806 1.6884804880045496 0 0 0
314 1 6.022053716455043 9.638717002811756 3.326491494221729 0 0 0
574 1 14.630049709408343 11.199216035259266 1.568236557985613 0 0 0
93 1 4.627064433189212 14.627132367676147 1.4353186727812 0 0 0
349 1 11.177790239515017 14.415536067828757 1.5071407757208164 0 0 0
601 1 16.087710813152075 12.67985009590817 3.2194414079199083 0 0 0
605 1 17.8675214182966 13.974436040578034 1.6831803688915146 0 0 0
94 1 1.3094751361110069 17.440376210758288 1.3826233962045684 0 0 0
106 1 0.008737065159289417 22.174122597276973 16.045116034103646 0 0 0
162 1 0.011385100817469657 35.20098814985154 22.384167707920096 0 0 0
346 1 6.367679243867379 16.010745336052853 2.8185263649646854 0 0 0
350 1 7.883389539165678 17.946716540322235 1.6775229521480588 0 0 0
480 1 9.591878410661824 41.71256239794173 0.21164062824024948 0 0 0
606 1 14.461344924883743 17.68102453681486 1.3645696508114318 0 0 0
1471 1 12.56812292882183 31.681643441849033 25.420701078879794 0 0 0
154 1 0.1004777781570041 28.508104090551484 3.116371648257621 0 0 0
381 1 11.366269905395148 20.9033638449386 1.3592760069431844 0 0 0
66 1 0.08563910252927581 15.816689985194456 22.449815356282006 0 0 0
637 1 17.50487157621416 20.833274025150978 1.4226424562443027 0 0 0
82 1 -0.08681801552726187 16.242915115543234 9.333339225575722 0 0 0
87 1 0.18112377397426388 12.76071882546246 6.153176591862956 0 0 0
125 1 4.44224654226335 20.802248361063413 1.3758560805402476 0 0 0
1184 1 9.410517861103276 28.475341226731526 25.40957354044684 0 0 0
126 1 1.3818565279210488 24.0752768865941 1.1577607944779507 0 0 0
153 1 2.9767777562146844 25.55864969595215 2.770716245420212 0 0 0
226 1 -0.0029285478759793065 47.70849389650756 22.04545777308195 0 0 0
382 1 7.866356336943992 24.413977946172253 1.7712578821423504 0 0 0
413 1 11.028470655337598 26.945897635569448 1.2506171512867432 0 0 0
638 1 14.40141943671126 23.668077152464587 1.6224415715190075 0 0 0
2 1 0.008948849303632614 3.2356502046073428 22.264942520928237 0 0 0
157 1 4.866747836882261 27.311842723670317 1.6382860062091744 0 0 0
666 1 12.647852254054127 28.538762337498078 2.839515663794116 0 0 0
669 1 17.104257121233267 27.22004887956414 1.6130536525514378 0 0 0
158 1 1.6026363380499455 30.064574039413476 1.4168479017709434 0 0 0
185 1 2.6981705720631672 31.797711940900815 3.128254245637311 0 0 0
414 1 7.583226545844834 30.342066166649822 1.66564530539523 0 0 0
1056 1 9.11787015731049 3.2557438925700404 25.107573164098003 0 0 0
670 1 14.245920573996429 29.97807413820569 1.2229911885385867 0 0 0
1023 1 0.04631891770402899 44.724523456287656 25.19542287438536 0 0 0
697 1 15.77076941516843 31.720727402222177 2.7907059423121163 0 0 0
189 1 4.236602743070755 33.64016243779452 1.6213908712384562 0 0 0
442 1 5.831422541912946 35.10205939136181 3.2174806062973964 0 0 0
445 1 11.157458028203333 33.26631759469081 1.3279425538266414 0 0 0
58 1 -0.03660530671342402 9.648710230182266 2.794209972121466 0 0 0
698 1 12.688303382422168 34.817790807130464 3.279888207758944 0 0 0
701 1 17.851036322366042 32.821866094015895 1.171145199600095 0 0 0
26 1 0.08295287422625305 3.097984036855572 3.209722434066473 0 0 0
513 1 15.812799221403 50.709648330231495 22.25774922096576 0 -1 0
190 1 1.238790455859709 36.53398102712298 1.5978534098925834 0 0 0
217 1 2.7437522082029187 38.2361052634795 3.089517779926562 0 0 0
199 1 -0.10699808526510424 38.28068599281441 19.212654708445413 0 0 0
446 1 7.966767883065312 36.508923879162246 1.677413202314915 0 0 0
702 1 14.097081122059672 36.243197654551885 1.4982379645678627 0 0 0
242 1 -0.090101005450272 47.61275085871417 9.199786223860508 0 0 0
221 1 4.685310435117646 39.81812197895337 1.610141320289242 0 0 0
474 1 6.28306257821849 41.38217184828884 3.2420706828973618 0 0 0
477 1 10.99306690872093 39.87183294156117 1.6321336437018457 0 0 0
733 1 17.167772893554655 39.66194558977846 1.5871289456284468 0 0 0
222 1 1.6844091095554148 43.33361175744636 1.4273038974618588 0 0 0
249 1 3.614504191666353 44.85719444118675 2.669833932387998 0 0 0
478 1 7.777439323544299 43.147402528763216 1.7010144822803832 0 0 0
74 1 -0.10131077973682778 15.871191266917174 15.572819313144477 0 0 0
734 1 14.305087008590583 43.188865474711555 1.3206789631002223 0 0 0
253 1 5.0361741623762075 46.62954804308361 0.9611670702918489 0 0 0
151 1 -0.05173792068160162 25.277159972252594 6.144064220710637 0 0 0
509 1 11.158102264372122 46.09301183535674 2.0413522554365393 0 0 0
762 1 12.577888804221987 47.883814347446894 3.3857689383210317 0 0 0
765 1 17.481691268238787 46.17325737569892 1.5585680636455137 0 0 0
254 1 1.7780568467670785 49.625595341357126 1.759320711257594 0 0 0
416 1 9.175739892696882 28.69577034614303 0.2054289293198271 0 0 0
510 1 7.8347106283404475 49.721105707244405 1.3137381281638065 0 0 0
766 1 14.224714278361319 49.57575224418762 1.8275114152279845 0 0 0
537 1 15.89604734814963 50.981920886287575 3.5028796004984897 0 -1 0
27 1 1.5607179155831972 1.3561709253694412 4.6112352064510365 0 0 0
484 1 10.843974349060911 49.62781882598713 23.886908012340726 0 0 0
283 1 8.453399567883922 1.2667457113909883 4.4236192065128215 0 0 0
281 1 10.042566820540411 50.63688470235182 3.001209524022465 0 -1 0
539 1 14.55788299988156 1.8072924822971437 5.001330658694697 0 0 0
28 1 4.818322872575437 4.903234350842843 4.378874362522562 0 0 0
282 1 6.752493691439272 3.2728231110048975 3.2811948617129922 0 0 0
284 1 11.644059146441677 4.417784188382832 4.684609073581375 0 0 0
538 1 13.135370757448865 3.0308781222971364 2.980577269875846 0 0 0
536 1 16.06615124706122 3.305071456927978 6.536878813082649 0 0 0
540 1 17.80835076743941 4.898616626084591 4.9313506820896365 0 0 0
2367 1 19.00025154801192 6.85212184615055 25.106385739904542 0 0 0
59 1 1.5874871493441032 8.157003551429355 4.37653354179492 0 0 0
1504 1 15.797275118309834 41.27754880525123 25.399602918763343 0 0 0
311 1 6.397143395786378 6.388555390743694 6.115084410977862 0 0 0
315 1 7.964716671272633 8.06335153901121 4.517879531235116 0 0 0
567 1 12.782433661088172 6.6847673867625925 6.174534744681226 0 0 0
571 1 14.228017914617507 8.277186308977196 4.558714440603922 0 0 0
448 1 9.73171676208954 35.36693186065804 0.10403610541970135 0 0 0
56 1 3.3857719637999115 9.20693084140081 6.2245593378374835 0 0 0
60 1 4.487146535084032 11.295102458759715 4.717132429578869 0 0 0
316 1 11.40093538966753 11.358383862228166 4.9436628854166 0 0 0
312 1 9.596690828742355 9.376858513165478 6.245174770803219 0 0 0
572 1 17.959812690189562 10.947520647396084 4.632305835674648 0 0 0
568 1 15.859819328944136 9.895137088064788 6.3329937374888345 0 0 0
91 1 1.4305279793579286 14.658579671749372 4.426049546008945 0 0 0
89 1 3.1268790266447515 12.760609905155855 2.9954807379735207 0 0 0
345 1 9.60535340087733 13.079387344491604 3.540315399330606 0 0 0
343 1 6.3291924263268005 12.556862103212948 6.216857297015955 0 0 0
347 1 7.953735408332305 14.586455801285576 4.878648302174824 0 0 0
603 1 14.35824964350777 14.387416176299292 4.705935319532999 0 0 0
599 1 12.982465937037324 12.94891165119277 6.568039900053047 0 0 0
576 1 15.966363714800696 9.229807838210425 0.0009217100249897248 0 0 0
92 1 4.630158886058025 17.33590884886708 4.2950368989501655 0 0 0
344 1 9.858041974931583 15.986576348046878 6.354656936446881 0 0 0
348 1 11.326654226821237 17.58330338976791 4.525191067173087 0 0 0
602 1 12.89692993279191 15.935053338992567 3.017672423517533 0 0 0
600 1 15.911676306823178 15.792849704871378 5.984231916542977 0 0 0
604 1 17.638844368530233 17.591045226029774 4.5337417739406884 0 0 0
228 1 4.739013871586188 49.85742281555261 23.942218004459196 0 0 0
121 1 2.9110414218373646 19.074239788183213 2.8389819547677217 0 0 0
375 1 6.6839271902468145 18.66421967262491 5.819539883040086 0 0 0
379 1 7.976088632516083 20.585103014766254 4.146972666505923 0 0 0
377 1 9.958581610180838 19.12241742996179 2.977260632147659 0 0 0
633 1 15.80846401761662 19.476642235983967 2.94560066540709 0 0 0
635 1 14.743299848756623 20.505900578655627 5.0414568422057675 0 0 0
1583 1 18.948655166160595 6.173042395627852 12.975013846268748 0 0 0
123 1 1.3732584738272275 20.483195497352806 4.648129553752153 0 0 0
120 1 3.067825316917081 21.908792365903764 5.9028622596352065 0 0 0
378 1 6.022069931264184 22.63510728728734 2.7331971642601447 0 0 0
380 1 11.247760294704195 23.882853837624456 4.797559101213222 0 0 0
376 1 9.592580208160323 21.99571485850595 6.152589730135023 0 0 0
634 1 13.053272244277778 22.412355108079275 3.7619279301609523 0 0 0
632 1 16.0640220953415 22.10615324268447 6.376755494146591 0 0 0
167 1 0.3856927326862676 32.101507250556104 19.0062778549893 0 0 0
155 1 1.698757426363501 26.807975075613477 4.770156415550825 0 0 0
124 1 4.335572381849622 23.890078906696612 4.487480848542123 0 0 0
409 1 9.526634495448667 25.67654594613539 3.239635093449089 0 0 0
665 1 15.775267809357247 25.427560136193268 3.3397128105833227 0 0 0
636 1 17.549142922921867 23.745758440352375 5.080877644208091 0 0 0
152 1 3.0522750299251946 28.58524444922881 6.538727728020024 0 0 0
319 1 6.316987986225026 6.202905240414155 0.10519195496038336 0 0 0
411 1 7.64248164545604 27.07544564351654 4.807500839508454 0 0 0
410 1 6.031533638540254 28.84161571119373 3.3685716910283645 0 0 0
667 1 14.160367908151805 27.317223741659163 4.5522774969363295 0 0 0
664 1 15.508420886089716 28.75994293833519 6.419365290807907 0 0 0
156 1 4.031705748370979 30.32657019439467 4.867010624551952 0 0 0
439 1 6.151248495822748 31.833649058064733 6.034089132702739 0 0 0
441 1 9.563799880482847 31.685455514058653 3.0790917287070325 0 0 0
412 1 11.250593767458092 29.900464217297532 4.554979950857412 0 0 0
668 1 16.879457108429275 30.155894270020838 4.3569119955643885 0 0 0
1674 1 18.962888221942585 28.568795699872975 16.12261287682442 0 0 0
187 1 1.100585072134147 33.53071376380128 4.598258597977228 0 0 0
184 1 2.7773239157687395 34.90972732447356 6.526694039282187 0 0 0
443 1 7.780372728360596 33.4268414160262 4.322560460909554 0 0 0
440 1 9.15192073175474 34.964278215260336 5.9871506513095705 0 0 0
699 1 14.08253139346164 33.04577068729028 4.5598139307002015 0 0 0
696 1 15.75881253454981 34.89210220541315 5.86185649677118 0 0 0
188 1 4.226238665969121 36.7023630123356 4.817784990135218 0 0 0
471 1 5.76955837200946 38.27220363370342 6.3937564029586165 0 0 0
473 1 9.311709680065805 38.409653444596884 3.4171378775826082 0 0 0
444 1 10.771225757064917 36.489114509801865 4.650140613415272 0 0 0
729 1 15.60590904165134 37.8789412156403 3.1336835351064387 0 0 0
700 1 17.483801253055123 36.41416712320986 4.531127116018445 0 0 0
1658 1 19.00312594923833 22.54808740094758 3.0014404782123583 0 0 0
219 1 1.2163099265370894 40.07774534010947 4.2138795542518315 0 0 0
388 1 10.909251369510944 30.13953220493672 23.796351927528697 0 0 0
216 1 2.4060831373751106 41.50623182873852 6.042778437501401 0 0 0
475 1 7.640710421723186 39.88263655507434 4.931724852918656 0 0 0
472 1 9.322804684983314 41.51248542572786 6.296381959368037 0 0 0
730 1 12.68919292206081 41.57581944726167 2.911033327201902 0 0 0
731 1 14.002773781595945 39.868301078225294 4.576519998478722 0 0 0
739 1 14.032846017085 46.620327083610825 23.842729402807436 0 0 0
220 1 4.58093484866914 43.10221630313378 4.550765172390918 0 0 0
503 1 5.944485419948017 44.25745326730061 6.2561177613663865 0 0 0
505 1 9.392125084671786 44.856931709283565 3.3532763250369877 0 0 0
476 1 11.117894708210557 43.06179593814946 4.862137981479992 0 0 0
759 1 12.872058818935239 44.386396038544596 6.72646472517524 0 0 0
761 1 15.967851583478634 44.612510522672416 3.297756598302801 0 0 0
732 1 17.665914968003484 42.60884097409401 4.572594039521937 0 0 0
251 1 1.793991417122149 45.82555970656149 4.330899997251143 0 0 0
507 1 7.555740133193964 46.48876809188805 4.727453309005001 0 0 0
504 1 9.250927922443363 47.8638425464866 6.281662233888655 0 0 0
763 1 14.341529186622095 46.22735645419315 4.8213349830359 0 0 0
760 1 15.879523537765131 47.747465796148425 6.2837704243728085 0 0 0
506 1 6.091900432876863 47.99805729244243 2.9043232722540466 0 0 0
252 1 4.850690515321886 49.78643013173433 5.086484300005825 0 0 0
508 1 11.185526720784315 49.48189830207438 5.05045719133306 0 0 0
764 1 17.59301424062733 49.19936709626526 4.810482932105493 0 0 0
21 1 4.771595917419986 1.5944517670863596 7.688877221756623 0 0 0
279 1 6.777665953158374 0.0004250905654055309 6.544822979160553 0 0 0
535 1 13.018195131997624 0.04006812573193019 6.346265675338375 0 0 0
277 1 11.50553291895184 1.391737915347471 8.143118930167333 0 0 0
533 1 17.545722599624913 1.508987801731939 7.72257096645592 0 0 0
7 1 -0.06645688398422528 50.77572262188494 18.96409910410342 0 -1 0
22 1 1.284617803845089 4.699163130164498 7.712875687034492 0 0 0
24 1 3.2168196513020155 3.3155964229716237 6.063743473698708 0 0 0
278 1 8.08860322602268 4.717918681111097 7.6593510077596125 0 0 0
274 1 6.233911859786053 3.2815546332682923 9.347410423588775 0 0 0
280 1 10.04849999346078 2.9055198830877638 6.306406611949602 0 0 0
530 1 12.71821975059457 3.46304934356561 9.41487417036127 0 0 0
534 1 14.29224985949431 5.29427852338735 7.9073556705240335 0 0 0
53 1 4.5156555690751246 7.677131894523679 8.01909826649041 0 0 0
49 1 2.740729474187238 6.126088060391522 9.520756515016298 0 0 0
309 1 11.21350726947341 7.908318554977798 8.09403324754035 0 0 0
305 1 9.417768216224065 6.505957833778756 9.555245560970342 0 0 0
565 1 17.750521737284394 8.667639585474227 7.574504178665934 0 0 0
561 1 15.785465913941946 6.924071781372859 9.391369128277612 0 0 0
54 1 1.5407339810141014 10.638904436403097 7.738035866846913 0 0 0
306 1 5.964242540109659 9.386035968173127 9.630896732798556 0 0 0
310 1 7.577793472040871 10.477748685916435 7.766004392069687 0 0 0
562 1 12.461116251708967 9.616390328541438 9.993127243799261 0 0 0
566 1 13.82045803111194 10.988685800602186 8.060332597453414 0 0 0
85 1 4.95565608817685 14.233017720794633 7.909587697335393 0 0 0
337 1 9.303532960481634 12.199931520922942 9.38596395235935 0 0 0
341 1 11.13557657192818 14.427919428107188 8.106068713718457 0 0 0
597 1 17.714655434249476 14.240359131102275 7.501846442520964 0 0 0
86 1 1.384238595860707 17.76225856943464 7.4573937909826835 0 0 0
88 1 3.24224909093789 15.775899868794477 6.234295283482498 0 0 0
338 1 6.455575489684336 15.66253069219393 9.60474303557708 0 0 0
342 1 8.192025746936356 17.662871999342897 7.92185039170791 0 0 0
594 1 12.721980030079656 16.209644200647602 9.647061223122662 0 0 0
598 1 14.542401402210528 17.65402168453368 7.895479377182376 0 0 0
1682 1 18.869656925210837 29.17227626527773 9.354930652280858 0 0 0
738 1 12.518572728689325 48.173954255952914 22.206273661647813 0 0 0
369 1 9.550295226375777 19.098760562856228 9.425705671834628 0 0 0
373 1 10.985012423575224 20.70750607931214 7.937932621343123 0 0 0
631 1 12.754097279289503 19.06284801128751 6.233548988793425 0 0 0
629 1 17.720034820907813 20.67647952389087 7.969755187755235 0 0 0
117 1 4.679955590543536 20.42317111976011 7.271149513910422 0 0 0
626 1 12.725475068464535 22.706443559413803 9.32320377338386 0 0 0
630 1 14.530152555096906 24.014546796446993 7.849692554867186 0 0 0
644 1 17.542359749996443 29.92971957261155 23.870525986715514 0 0 0
118 1 1.6220399392289544 23.469493528292812 7.649347608155157 0 0 0
407 1 6.274561574767153 24.846172317523482 6.21198008406409 0 0 0
374 1 7.661654769244115 23.372222454590972 7.837853363375887 0 0 0
663 1 12.594592045050588 25.63864115900394 6.0617900292469615 0 0 0
482 1 6.280403612398056 48.000851518290226 22.366689470224667 0 0 0
149 1 4.858690904995334 26.644529439389398 7.668552729960215 0 0 0
408 1 9.167016772522121 28.89141712103414 6.205050339522249 0 0 0
405 1 10.955260567425382 27.131458734548858 7.47154197610184 0 0 0
661 1 17.49290237143389 27.279569962199307 7.718426303622167 0 0 0
483 1 7.8921098939361425 46.445568690153394 23.830972056164512 0 0 0
150 1 1.1784655454107051 30.4841922368586 7.828105723101895 0 0 0
177 1 2.831290093081194 31.803474905671486 9.444345749529985 0 0 0
406 1 7.669408172089488 30.42077435927737 8.180455922233959 0 0 0
695 1 12.59706883244432 31.724335450549386 6.269534414973438 0 0 0
662 1 13.850012535331603 30.24040092390424 8.114712989787154 0 0 0
689 1 15.434416513747285 31.83224269072396 9.379010844641396 0 0 0
1312 1 16.122428098866475 3.3617728419157875 25.117326244450354 0 0 0
181 1 4.553498664205265 33.07096296613368 7.74344409712737 0 0 0
437 1 11.087374390193402 33.50311313070713 7.514172613117613 0 0 0
690 1 12.585778711383572 35.04587640903831 9.348402099663325 0 0 0
693 1 17.1056028220412 33.480379596393554 7.617663867456142 0 0 0
23 1 -0.016638924210324646 50.971363858693735 6.267208890902468 0 -1 0
182 1 0.9840749028415512 36.674770382876034 8.07718677325283 0 0 0
209 1 2.903547110647501 37.90283618810775 9.620305843670428 0 0 0
438 1 7.5338286119658795 36.853903296050525 7.708949163102224 0 0 0
727 1 12.354180927067134 38.20835714009203 6.190570319836469 0 0 0
694 1 14.134895980754171 36.6527927333505 7.643747001608871 0 0 0
721 1 15.893225485070687 38.20679463543371 9.232865129477542 0 0 0
227 1 1.8620469346353492 46.506450778683536 23.929561611036625 0 0 0
213 1 3.940605829105496 39.973497488824044 7.968447890702048 0 0 0
466 1 6.2927300333277225 41.14763001674658 9.360952099343667 0 0 0
469 1 11.15248540701991 40.01883117855861 7.8163541295524475 0 0 0
722 1 12.764542687610868 42.032745673772524 9.319251907158213 0 0 0
728 1 15.877705322407127 41.13963438221084 5.978515417014312 0 0 0
725 1 17.62544676062972 39.5673478978023 7.592810455818737 0 0 0
214 1 1.1435404532468216 43.255870882685315 7.768868791928002 0 0 0
470 1 7.838178927500381 42.9347540438508 7.932049921931716 0 0 0
497 1 9.454337484695566 44.80149092970175 9.57802666184721 0 0 0
726 1 14.942345414425644 43.04871704045529 7.6045313697913635 0 0 0
753 1 16.15264393852915 44.43382869800633 9.568297267265189 0 0 0
248 1 3.202759502458902 47.43755961508596 6.066381762064626 0 0 0
245 1 4.724589672296467 46.02333010558886 7.911029935644528 0 0 0
498 1 6.115183298240978 47.94524388206203 9.726524627248919 0 0 0
501 1 11.082873594333778 46.4652606408156 7.800715286788843 0 0 0
754 1 12.79090748708574 47.884065624374436 9.796633089326122 0 0 0
757 1 17.816296040187588 46.252257169768896 7.8437958254890034 0 0 0
246 1 1.3636108469199604 49.008229963272285 7.663806354266677 0 0 0
17 1 2.7670596722763956 50.894535691246546 8.938714863311146 0 -1 0
502 1 7.878698117665068 49.45891210173638 8.22314114119118 0 0 0
758 1 14.47976678842152 49.2899500768683 7.744825825733997 0 0 0
529 1 15.874988491640943 -0.035930327074687796 9.300743725559347 0 0 0
19 1 1.5334542341832624 1.1601309260323314 10.881890265539006 0 0 0
275 1 7.848244678166328 1.704289088309013 10.949327094445852 0 0 0
272 1 9.62901716092436 3.1315413276685895 12.588753598556195 0 0 0
271 1 6.320152974183727 -0.011375997524102135 12.400635678910234 0 0 0
531 1 14.403901619339804 1.5473514618081314 10.965807505710464 0 0 0
16 1 3.0345485599880146 3.233178895688023 12.535293912158869 0 0 0
20 1 4.921215484493521 4.725678309372224 11.14000731998887 0 0 0
276 1 11.050326944075902 4.8501525829356025 10.896129205781323 0 0 0
532 1 17.37803563835758 4.956503959351607 10.9391997139883 0 0 0
528 1 15.888412676532901 3.152028774826874 12.507865050918243 0 0 0
51 1 1.4465515673326703 8.173391097853884 10.836455408426282 0 0 0
303 1 6.2269109398137195 6.481176001204743 12.73744449234804 0 0 0
307 1 7.7242786995843025 8.072349550032992 11.363513726374109 0 0 0
559 1 12.792509663522768 6.3310397411936465 12.357144354297441 0 0 0
563 1 14.321806098553987 8.372877562914997 11.129735454943644 0 0 0
48 1 2.530151517429101 9.600038475117621 12.590007901956573 0 0 0
52 1 4.246008644094117 11.016149638306203 10.996536355533857 0 0 0
304 1 9.558382648707802 9.634237467354687 12.733708262092593 0 0 0
308 1 11.122832306163634 11.272018086455311 11.25210086952024 0 0 0
564 1 17.763889680570536 11.343902560358854 11.042215497177342 0 0 0
81 1 2.9592408725993575 12.72631289140582 9.199564371405943 0 0 0
83 1 1.3492184729378716 14.442800327474089 10.698214167736682 0 0 0
339 1 8.127309004003935 13.982734059301848 11.009747974090322 0 0 0
591 1 12.481998670492997 12.736247310781682 12.846141719279887 0 0 0
595 1 14.372418771489906 14.589591331536488 11.309053089305056 0 0 0
593 1 15.716502166412567 12.946909638096054 9.174604202931908 0 0 0
708 1 17.062787898582116 43.27313547142973 23.96218857688987 0 0 0
132 1 4.632911983949192 30.19245121214151 23.660879464879688 0 0 0
84 1 4.41861473815837 17.249458480822934 10.89080720645996 0 0 0
340 1 10.829352218859402 17.5374446578616 11.233763523872454 0 0 0
336 1 9.147425312475379 15.988794655093766 12.506145099411922 0 0 0
596 1 17.64661777991918 17.273059879261673 11.054942495418686 0 0 0
113 1 2.92915487467837 19.436064825186715 9.38426330351222 0 0 0
115 1 1.3319854046628625 20.630576669475474 11.063364228228492 0 0 0
371 1 7.769276540769812 20.6823416055449 10.96126073321665 0 0 0
623 1 12.471696790995646 19.415657536373153 12.43753216139834 0 0 0
627 1 14.1723033423355 20.94026338068909 11.00633119748357 0 0 0
625 1 15.897586277841075 19.342174426332324 9.543422903537866 0 0 0
1714 1 18.897999204625894 34.808464867325625 9.217074757614206 0 0 0
370 1 5.751669474098929 22.280158332359406 9.654449925134188 0 0 0
372 1 10.923845370650303 23.80526411604595 10.486622512967367 0 0 0
145 1 3.0178028833869113 25.30972084627715 9.224079168844487 0 0 0
116 1 4.373049381432651 23.9677245102966 11.304635180072761 0 0 0
403 1 7.705584967896119 27.010877910905947 10.931036680842643 0 0 0
401 1 9.035432440851825 25.237740263084152 9.038228803383753 0 0 0
657 1 16.374936072858983 25.25446307376379 9.431699196940283 0 0 0
628 1 17.663974382362998 23.71988557193252 11.445895752895222 0 0 0
147 1 0.9356178837722071 26.67508414913057 10.93686916174932 0 0 0
144 1 2.8332335768902164 28.24099046108981 12.663431777982343 0 0 0
402 1 5.957084215250395 28.586527740007156 9.377491962825035 0 0 0
659 1 14.295554570491886 26.641404527283786 10.503550099055154 0 0 0
658 1 12.226688580452231 28.64462850489692 9.5623807371524 0 0 0
148 1 4.242315361214155 30.172294230170625 11.099784139353853 0 0 0
431 1 6.0461655124451275 31.845798406458304 12.290745604354315 0 0 0
433 1 9.502404036419529 32.174529265938816 9.1413438956745 0 0 0
404 1 10.891767682856951 30.75882825282515 10.92810284786571 0 0 0
687 1 12.741888911979743 32.302343773748156 12.83665491601338 0 0 0
660 1 17.176087489780024 30.59679990159714 11.125362021554098 0 0 0
1698 1 18.725908866759013 35.120319011502055 22.49875556032868 0 0 0
179 1 0.8574486315652351 33.501993226011955 11.133714558906183 0 0 0
434 1 5.849201637395881 34.89783247426288 9.034801259573959 0 0 0
435 1 7.706631127853839 33.70472479688403 10.772244878576112 0 0 0
691 1 14.329234093258508 33.7993837982121 10.920005503528726 0 0 0
688 1 15.839944047294543 35.08117927524755 12.430726416266268 0 0 0
180 1 4.568185895452673 36.10005876908635 11.244452038715012 0 0 0
465 1 9.480500004801733 38.332944404644316 9.445586088689332 0 0 0
436 1 11.16792088880548 36.77484234549539 11.220032409517069 0 0 0
719 1 13.132307522868125 38.1491552025472 12.47580769401957 0 0 0
692 1 17.63695735330594 36.49777777116742 10.593273781598615 0 0 0
608 1 16.17034281664908 15.72654436783967 0.0559802279911073 0 0 0
211 1 1.2895755630907333 39.65894649928598 10.788880954146782 0 0 0
467 1 8.261718463821666 39.61454192110833 11.366927489840968 0 0 0
723 1 14.486225836337109 40.31931140018558 10.609029582355925 0 0 0
720 1 16.211512246051992 41.3384336923093 12.412894002397897 0 0 0
241 1 3.1751194079475478 44.315157084382285 9.29830431076801 0 0 0
215 1 -0.044187058909833085 38.35297664894747 6.170193376093534 0 0 0
212 1 4.494635371152203 42.44667010135711 10.851391033792025 0 0 0
468 1 11.226379754660227 43.466945947275676 11.297592092962512 0 0 0
751 1 13.026266412207969 44.89330548508274 12.722401511037539 0 0 0
724 1 17.99658391099362 42.921268453899856 11.218068960894511 0 0 0
243 1 1.3474465667641813 45.85154302094951 10.805890957374265 0 0 0
499 1 7.876753654831527 46.328160014277714 11.257501029025331 0 0 0
496 1 9.526250270868443 47.684433901559295 12.70364724336308 0 0 0
755 1 14.491629853128748 46.189645332613125 10.868287001724548 0 0 0
752 1 16.17113016997608 47.55308599227169 12.876215736015237 0 0 0
737 1 15.606600429336623 44.844410304504564 22.319375429850293 0 0 0
244 1 4.380033544531339 49.72591022163727 10.908422234880593 0 0 0
273 1 9.66568598202152 0.024993698609228482 9.685123754598536 0 0 0
500 1 11.252558647266389 49.54175720932136 11.388073285644147 0 0 0
527 1 12.82766647343562 0.23103734226767708 12.780221377765654 0 0 0
756 1 17.56232147865935 49.47319557599104 10.87177112085527 0 0 0
1215 1 6.470216817065149 31.671155479615997 25.1638072353562 0 0 0
13 1 4.490720367867258 1.5542167989633846 14.32878667454514 0 0 0
265 1 9.465319443216462 0.09247353714420489 15.833870862429208 0 0 0
269 1 10.85497958654821 1.379300607475828 14.263947061692772 0 0 0
522 1 12.720390343643729 2.8894151321381822 15.618791677203712 0 0 0
525 1 17.564314055029755 1.344027713303748 13.881381706368074 0 0 0
1183 1 6.1413643278472065 25.359661148217622 25.328950801027986 0 0 0
14 1 1.1338356447835969 4.623700805150359 13.957691829326466 0 0 0
266 1 6.42136443039044 3.0510843036458555 15.84223557824664 0 0 0
270 1 8.038913538543738 4.7717729819561425 14.194624637797311 0 0 0
526 1 14.40869525528988 4.742470662811536 14.436276277978097 0 0 0
41 1 3.175204005343849 6.0728378572451085 15.64577742563044 0 0 0
45 1 4.169840284169309 7.879925107831028 13.728607663030367 0 0 0
297 1 9.689086932854144 6.367323773970621 15.746372067484652 0 0 0
301 1 11.268853950641937 7.8853599670988155 13.945063994545228 0 0 0
557 1 16.890572087188605 7.841785983075314 14.389019946507506 0 0 0
452 1 11.02291125411375 43.118547990603595 23.91759216906385 0 0 0
671 1 12.706170601102848 25.145411359748223 -0.022002643367102948 0 0 0
46 1 0.9639732801469918 11.315437186311017 14.32932109731572 0 0 0
298 1 5.801498969681119 9.527667808374218 15.390540765908042 0 0 0
302 1 7.866528710010932 11.170117429279877 14.585715421630937 0 0 0
558 1 14.597293134885586 11.534222332963873 14.533959410579115 0 0 0
554 1 12.927869706911299 9.623742923927548 15.575542161528665 0 0 0
560 1 15.962978445112043 9.803411957164636 12.858921540760322 0 0 0
77 1 4.579028752128877 14.060693625682605 14.098371906682138 0 0 0
73 1 3.153525927936059 12.554113942623337 15.813148302028985 0 0 0
335 1 6.174555689195673 12.474379454580264 12.68278703932234 0 0 0
333 1 10.911165165073099 14.650804659786214 14.3321361127494 0 0 0
589 1 17.44507650670447 14.33580230257365 14.121910015401944 0 0 0
585 1 15.73405927667134 13.140797684527646 16.219370950591244 0 0 0
78 1 1.4567058432729725 17.352766677798833 14.169624053646432 0 0 0
80 1 2.9571191355764994 15.490441748236613 12.647499218458274 0 0 0
334 1 7.675386766253969 17.29293995904885 14.331880758680322 0 0 0
592 1 15.907221264585 16.304473643390406 12.801678239088044 0 0 0
590 1 14.06234266493006 17.9938155962016 14.228495445102702 0 0 0
196 1 4.788076363345324 43.10444683290715 23.732037632887074 0 0 0
367 1 6.2507554676401655 19.014122339953946 12.245072396572477 0 0 0
109 1 4.554086900933829 20.56449841061216 13.92356575136812 0 0 0
361 1 9.319095410055695 19.36054628722786 15.964032907127951 0 0 0
365 1 10.848460433476696 20.91379370210128 14.11897809508036 0 0 0
621 1 17.586060678477658 20.514736925419573 14.453632109241557 0 0 0
112 1 2.766544044866998 22.14139805956835 12.696179903101582 0 0 0
368 1 9.29878100825901 22.568603204994048 12.47203343617623 0 0 0
366 1 7.682424509451419 23.941566108152603 14.531086357888588 0 0 0
618 1 12.571116678021903 22.840738102152255 15.618739909767074 0 0 0
622 1 14.257533682420217 24.11114127779958 14.17428968782388 0 0 0
624 1 15.66069077203226 22.31520995105086 12.94827696195065 0 0 0
676 1 16.7822289807671 36.387411588190645 23.773131324446116 0 0 0
110 1 1.403119708228764 23.781235669774414 14.39388999741833 0 0 0
399 1 6.317706298966114 25.331708636067315 12.565027631215314 0 0 0
393 1 9.57654728408029 25.89031207219911 16.201124543921374 0 0 0