LAMMPS data file via write_data, version 29 Oct 2020, timestep = 200000

4608 atoms
1 atom types

-0.3826919730474678 53.78269197304548 xlo xhi
-0.31710987002078284 51.2242298700211 ylo yhi
-0.31710987002078284 51.2242298700211 zlo zhi

Masses

1 18.015

Atoms # atomic

1203 1 4.140474505599568 50.84432370651129 3.4474205948583267 1 -1 1
461 1 4.344219438580371 0.7501793541746831 1.2525569348233392 0 0 1
2907 1 1.7665852821433878 48.65555522812976 2.574660756010845 1 0 1
3478 1 12.07943496636864 0.7460264439612097 1.4841298925096027 1 1 1
3470 1 0.9331171204104074 49.71621402662835 -0.015894777271150906 1 0 0
2257 1 -0.17489276269178863 20.591682909422694 15.902061222480182 1 0 -1
3063 1 5.610748995058426 3.408438534533168 2.041460687592459 0 0 0
3457 1 8.437312185440584 5.356032332068903 2.016491028758164 1 0 0
1245 1 7.295382093540107 0.4181281114071338 3.1702842953386705 -1 0 0
4299 1 0.340941875526133 8.650990175266696 16.364386108934113 2 0 1
1042 1 2.3167356567991617 12.697040610461999 18.374228143343206 1 1 0
4300 1 2.5299662155359997 33.80671196876311 0.800782794654328 1 0 0
3409 1 -0.15413635930950972 16.58187720998243 9.312059189013384 1 0 0
1890 1 6.4492608366028445 6.955805932678098 1.2452247489895165 1 2 -1
4600 1 10.912643545476223 6.91243467400976 2.839628210935536 0 0 1
2602 1 1.2790562300722006 46.30629672825708 17.16688956324584 2 0 0
434 1 -0.08905797310356461 45.53486045490277 9.113530030792564 0 1 -1
418 1 2.825960811912787 9.09017381002501 1.5276409680904468 0 1 0
2464 1 5.570731110627165 8.566972231470633 3.0856229717401775 1 0 1
2864 1 10.404041025139769 10.40986568845235 3.7827792460465943 1 0 1
527 1 3.1639719210841832 36.47048988573198 4.732095933029812 0 0 1
2694 1 15.437881453537694 46.528821234691705 1.0093106839791548 0 0 1
2348 1 1.5173481535237598 11.078079673612171 2.6165421572395644 0 1 1
4458 1 3.5738559512514807 41.40053798816926 23.742932847007157 0 0 1
1301 1 0.05466157033460367 22.170267000446174 11.531880855935619 0 0 2
1733 1 2.7764383383089313 13.363348077522883 1.2679511190290713 1 0 0
2274 1 5.755370213627835 16.160406494202135 2.289358638074447 0 0 0
3891 1 8.238873562642175 12.263600126267029 -0.18673502235035666 0 0 1
4025 1 0.007487684621306445 32.147752420871214 4.1384254701987135 2 -1 1
2621 1 0.2300167247624012 30.603193898181907 9.480945256234017 0 0 1
3982 1 3.256817552305753 25.385901053441454 19.458759952063744 1 0 0
649 1 4.560296136629623 24.19684352670021 22.758015819527152 0 1 0
4281 1 9.514638150108894 17.27163183393856 1.8358824803073142 1 0 1
3100 1 12.022585317583252 16.693949869107666 1.5260440113657308 0 1 0
3237 1 13.504619763741395 18.059020911779445 3.595960333526402 1 1 1
3256 1 12.755756507641786 16.283786517197168 5.4870713001887435 0 0 0
660 1 5.383719459170907 18.296007938101262 0.7602780657111063 0 1 -1
943 1 6.495762082316327 20.392540001135412 4.59099140240868 -1 0 2
1029 1 9.224938672510708 19.820002815331495 3.357831161284007 1 -1 1
4598 1 13.549198968893517 22.22111262932961 5.328058298694555 1 0 2
3103 1 13.78605773878524 20.342264399446425 0.9903234784463302 1 0 0
3718 1 0.8416759252924155 25.138658650342506 0.7087970193215405 0 0 0
4381 1 0.4335360962166007 19.745774750196933 3.2038609471187978 3 0 1
734 1 4.084617623827616 22.046004889829923 2.597010781403586 0 -1 1
2339 1 9.883710279747138 22.745788055985617 4.028826489137849 1 1 0
3412 1 2.5258229576473656 23.31403073919424 6.74230468309824 0 0 0
1273 1 10.57896417892896 20.446295109904316 0.779326976930137 1 -1 1
2145 1 -0.3730560990769618 9.818405161855164 21.00790845543395 1 1 0
4585 1 15.739484212886946 50.30082756014532 7.025438359241781 1 -1 1
1335 1 4.833227891619618 25.967396208190426 3.361406477692768 0 0 1
2718 1 -0.09412912241517851 38.9035400674251 13.26824820015279 1 0 1
4165 1 14.73171551349122 22.81395073246941 2.2170237642592325 1 -1 1
1872 1 3.5467912512269857 24.64054869328691 1.2274384723891816 0 0 1
1536 1 1.6166168345178176 7.42291485212989 0.02563581696481143 0 0 1
4046 1 0.27290343525484995 35.75058651673818 0.97154679102829 1 0 0
1507 1 13.748856087314138 25.281796371838535 2.690577420646729 -1 1 1
3341 1 11.193730392606719 27.763161150739425 5.445018268493146 1 0 0
941 1 1.5920035039078873 0.3948276246922686 6.60251435571494 1 1 1
712 1 2.5644734313368542 29.2901445591998 1.0256707797634161 1 0 0
3451 1 4.330961214656567 35.72900349441642 2.199663084737391 1 1 1
2791 1 6.098377031713891 31.617663229605068 1.8701159184367189 0 -1 0
1049 1 10.408547689521562 31.332014816074416 25.251883914038117 1 0 -1
1561 1 0.9741313106373917 13.845082440304258 8.641214283626613 0 -1 0
1881 1 15.27386332975396 29.780870288917427 2.881231074853922 0 -1 1
2619 1 17.054392526614826 12.299933842128974 0.5795491711245165 1 1 0
4369 1 13.581413798908805 44.65991406022363 0.06025875463730335 0 -1 0
4142 1 9.569349872580734 27.148211658331892 24.50889424525767 1 2 0
1180 1 10.48075342460485 41.44241983161503 24.103802894522627 0 -1 0
350 1 0.5491579074303183 39.693731472005055 20.207508083467513 0 -2 0
3602 1 1.169764428472448 15.67386815509344 18.10684172013873 1 0 1
2891 1 9.18438878031316 29.12614287372287 2.5906499066606754 1 -1 1
1710 1 9.924819199373003 31.37274255219718 0.5623266470954961 0 -2 0
3008 1 11.46360955949818 34.055640758823955 1.624309929383268 0 -1 0
4562 1 1.2229861339326118 45.48560330008398 19.798176584184873 1 -1 0
4075 1 10.20035325145331 37.36786430333672 0.05977483573732312 1 -1 2
1926 1 4.621969966583821 21.51508696489229 24.071997364230647 1 0 0
760 1 17.114820718393283 36.59506003323526 10.333612038847951 0 -1 1
4118 1 13.661238049936424 34.73271858971724 3.1820764269815998 2 0 0
13 1 17.495522241196166 4.051307484091012 18.2071318457049 -1 1 0
3694 1 15.994055482696524 26.433311736742475 4.7755081996675806 0 1 -1
169 1 0.24346853250741218 2.0896810254625056 2.0306694525208977 0 0 0
3110 1 1.8019780670320356 2.6449993020577764 8.620961418374755 1 -1 1
2816 1 0.8292489082248624 42.78670328830076 1.9612262416990163 1 0 0
3435 1 3.200994577916136 9.68924378455066 12.160482284747005 2 1 1
3655 1 1.7800935500983943 45.335409992550154 1.4574231324174491 1 0 1
578 1 0.01424865413000631 8.249047596552627 3.746681466824043 1 -1 0
1395 1 13.718096951568556 29.370237994041407 0.17647048174398217 0 0 1
4175 1 11.495818148735859 5.033643647734247 0.609435241848411 1 1 1
3903 1 2.553499853974456 12.435206783080444 12.653305691052115 2 1 -1
3939 1 9.343619864906284 46.861178157301936 22.78490363510725 1 0 1
3160 1 1.618513066948811 10.95188650609725 22.288075528695526 0 -1 1
3999 1 4.174461748735253 44.91818790510405 -0.029775699565429692 0 0 2
3445 1 16.24200096648033 24.497283132998405 0.4800517673322596 0 -1 -1
2198 1 0.917114584365867 35.06694921063469 3.642009850138393 1 -1 -1
2736 1 1.4623604481035137 36.25014783857476 16.1612531212353 0 0 0
1846 1 16.45000976310941 31.227237007990738 4.895595928028726 -1 -2 0
884 1 0.7570607396385134 42.484462470686964 13.64934373486262 0 0 2
4013 1 0.1428537541634496 39.228545186686716 15.946885874446018 0 -1 0
3888 1 1.2123734245190791 11.926743800615517 25.02461729022903 1 0 1
1900 1 4.718593633424291 16.62659460845414 23.10444014660117 0 -1 -1
2488 1 5.14297528724936 48.243150375743014 25.240604938215565 1 0 0
3735 1 5.75524727662361 48.39187847229593 4.367926268831745 1 0 0
4406 1 10.011788546978508 1.5401602733848738 3.236132652540879 0 0 1
3768 1 8.35516474931171 0.6193301488084209 6.52805485568639 0 0 1
4417 1 14.038833783903002 0.9326175261034568 5.078240735442034 0 0 1
1517 1 -0.3236868313190939 23.58241869821165 3.0782718332688646 0 0 1
2130 1 14.459873808281007 -0.23732783503723776 25.33466488672486 0 1 0
3968 1 3.341539908964979 1.5486268584927578 4.720800920839047 1 1 0
2485 1 5.9024971996641415 2.592689312593793 5.078906321099813 2 -1 0
3142 1 11.688999140497883 50.822757568701945 4.574244058972654 1 -1 0
3809 1 0.24575899136747326 49.725083480639896 4.611043519138491 0 -2 1
742 1 15.357253339921794 3.6897124908606465 3.753851843344913 0 0 1
3123 1 8.70030897774006 37.55697129859311 23.690428327490363 0 0 -2
1344 1 2.522746024189607 3.8197249655588816 3.320067354708577 0 0 1
3507 1 9.641352593876384 2.920761368881757 5.713260126503749 1 0 0
789 1 7.358929283076856 7.456480577326945 5.766826649843282 -1 1 1
2852 1 11.527425353590914 7.984570131085821 5.424027336258244 -1 1 0
1774 1 16.09633765980308 9.399666939047563 1.0498172786765374 1 0 0
2331 1 11.765989942649908 9.927898917362043 -0.3157727514265212 2 0 1
381 1 6.184881168644348 11.675122137266296 3.5259327530753075 0 0 0
4412 1 12.297455378926681 12.792311115046973 4.077138359187845 1 0 1
2963 1 8.052354229203017 10.309711105971774 5.125555225347555 0 1 0
2012 1 15.72596632256722 10.026046465053785 5.645465594389771 0 2 1
2385 1 1.381537586866952 27.619531260685093 13.20552005577018 0 0 1
902 1 1.0730061202296042 16.923000423062838 4.124601380410576 1 0 1
3725 1 3.583595196433213 15.42785748410072 3.83024837701217 1 -1 1
119 1 9.398674544666402 12.952333082184062 2.3099027578917886 0 0 0
792 1 12.881669375830999 13.937866553857937 1.8390526055543241 0 0 1
4392 1 10.339053349790397 14.697422190592741 5.203331186605321 1 -1 1
2060 1 15.638252743807026 14.5137463752059 1.4207901246181829 1 -1 0
4130 1 16.682769824328254 15.883765882437391 3.5440995411351914 2 0 0
976 1 0.7048392132694197 17.578726207467973 6.805195337167618 0 2 1
2943 1 8.251172556986589 15.22121354648812 3.4332075237618223 0 2 0
2853 1 15.227096446332185 14.685235029360312 5.897707031645447 1 1 1
870 1 5.469322128638509 17.98412531806142 4.673206068851182 0 0 0
1778 1 9.995276479564172 20.903231965400984 6.456795372354062 0 -1 0
367 1 12.401155194657614 20.28226131143748 3.764963228343696 0 1 1
2985 1 4.8042709315039005 23.366503479282432 4.9740032842799184 1 0 1
2535 1 6.269730892699373 20.784054560066394 1.677429203241926 0 1 0
537 1 7.716129229375037 22.995019878343957 6.1243992327161 1 0 0
1669 1 11.678046612565101 17.93437816645034 12.536186676241138 1 0 1
1112 1 16.168282592163983 21.66872242965688 4.453319232877581 0 0 1
887 1 15.70055898095545 22.869767952215813 10.72442309872916 1 0 -1
4039 1 4.635323995242199 27.241043743932117 -0.011241217992695174 1 1 1
804 1 7.539335259745518 25.39496654920685 4.133146752627391 0 1 1
1116 1 17.374913780085574 34.184000490769634 7.260232738270284 0 0 0
1040 1 8.907128528499234 24.7051324139535 1.93294893665928 0 0 0
1454 1 11.027136763816603 22.701058493570663 9.288012005878157 0 -1 0
1678 1 16.210814612678274 27.250446936280326 23.91438127020431 1 -1 1
3118 1 16.591977224549478 38.23333808762864 1.118808028451315 0 0 1
2041 1 2.945512044044813 27.948602858658635 3.4075471852926236 0 0 0
2627 1 4.340876847943174 31.949468540027834 3.902828377120862 0 -1 1
2235 1 6.4310787935969325 29.053422082551602 6.569850878292365 0 1 -1
4568 1 14.074732841603849 27.923899541735185 4.185137647602178 1 0 2
3944 1 15.881538589819417 5.520156693329446 1.6735627363541152 1 0 1
3356 1 0.0964673329403054 27.075451597167536 2.4224041774888794 1 -1 0
1672 1 6.781461092925113 35.7634639696665 3.954116060782294 1 1 0
164 1 10.11532652060521 32.48149785776617 5.153538020649756 0 -1 0
560 1 4.19778914830745 29.48979736991684 5.220655094233239 1 0 2
2394 1 11.678840754419026 30.473371033438433 4.067429592049886 1 1 1
347 1 4.50808066293169 38.02083078564526 0.6891682999733115 0 1 1
2290 1 17.573768863452536 17.33801730299563 24.616936642558855 0 -1 0
4368 1 13.583006017267936 34.78613853658709 6.20284797420564 1 0 0
4250 1 12.72868460948081 31.558386379776554 1.6162399549788926 1 0 0
1567 1 0.7756913370953653 38.939044082354684 1.5684398993116042 0 1 0
2693 1 2.717711780326026 18.462574657174294 -0.04871838798823891 2 0 1
718 1 11.279838217155193 38.32741801860816 2.495196290108851 0 -2 -1
452 1 13.908954848525005 37.36957144916494 3.1424205108761227 1 -1 0
135 1 12.778253854535876 26.464525355874162 0.3401078006860513 -1 -1 1
1092 1 1.20291505778771 24.92307794300618 21.593381547537195 0 0 1
2369 1 7.188471551064403 38.592253167591466 0.08830334441057264 1 0 1
968 1 9.442067749371075 40.280324746924066 3.853528043451292 -1 -1 0
3829 1 -0.029283524799240512 33.32718864140908 11.492527687559491 0 0 0
1318 1 14.175859650984206 7.672430095093835 4.703389724224314 0 0 2
3865 1 17.21070110621776 37.57770319595939 3.834918457518051 1 0 -1
1727 1 2.784580184408911 42.20031928045732 3.899813721205983 1 -1 0
2935 1 6.654103314731033 43.84969531392967 1.2728936130557147 0 0 1
1871 1 8.748709935974063 44.313743433183944 2.9663981199496994 1 0 1
4314 1 11.767815276505205 41.385620711524396 1.9963766468721778 1 -1 0
2951 1 14.516653444774553 40.82361802958674 2.857449849033583 1 -1 1
1272 1 4.581558803354144 36.88568155065897 25.247883050783052 0 -1 0
748 1 16.848201037320884 41.464944328053505 1.1481245452475248 0 -1 0
1898 1 0.18953206242908072 45.13921930833769 6.134794075000548 0 0 0
4031 1 6.395467232476675 46.89568434632784 1.2501565926300238 1 -1 0
4275 1 10.957938192011108 47.23595694892178 2.0199464956621562 1 0 1
4413 1 7.510925302474717 42.28288254315024 5.035058383931436 0 -1 1
3568 1 11.425447312672008 44.030112705624845 1.842632948435809 0 -1 1
2953 1 0.7190920468884319 27.434519697330227 19.96900992021142 0 0 1
1671 1 0.40735197225289954 46.41826772358661 3.9744851465839 1 -1 1
2036 1 9.104227001459323 49.88686782190851 4.02095637528072 0 0 0
2524 1 3.971091692567322 46.65810588865112 3.0283834790749835 0 -1 1
3940 1 9.720953198461935 49.77026062819121 1.0682115979963371 0 0 0
4340 1 13.963123599359365 43.923227689405735 3.6497857271124983 0 0 1
2283 1 16.306003599889657 45.68946701176314 3.639775449273719 0 -1 0
856 1 2.029914683361376 50.23800908488923 8.640997845602916 0 0 0
3608 1 5.439563858900129 51.095523043373866 6.420001659596631 1 -1 0
3906 1 11.132358226898713 50.310836993455254 7.251277528422839 -1 0 0
3932 1 14.520678558660006 2.9924172066916324 9.602630887277906 1 0 -1
197 1 13.65823182182559 1.867759019305185 12.0457189443091 1 -1 -1
658 1 0.5143680736009609 32.284185955481846 23.767327454671907 0 0 -1
1624 1 4.400292898972765 4.09133505317754 9.113093208745086 0 1 0
3918 1 6.324396562105515 2.340530634423844 7.972208357842092 1 -1 0
1961 1 9.680974946603957 -0.02782736070734021 9.408224279189861 0 1 0
1905 1 10.561333420865893 4.541205442665541 11.384066469244003 0 2 -2
860 1 16.74581624012879 6.035649142752871 7.769956749068941 0 -1 1
3872 1 16.689932438838063 4.668992441889611 10.030000719060535 1 0 2
682 1 1.2060726497884855 5.830349549689212 4.642213455576794 -1 1 0
685 1 1.243662597226476 10.044659870232755 5.465469052123337 1 0 -1
12 1 3.9366048353843714 6.75667866689739 5.159553019440666 0 0 -1
1422 1 7.763487108036696 4.906681001532106 4.701024073845234 0 1 1
1886 1 9.97317528641266 6.119392194802553 7.03805698010948 0 0 -1
2552 1 15.7219027101313 8.607821332625251 7.929277355464281 0 1 1
2876 1 16.99140236476408 29.92988094827078 9.570399482391494 0 0 1
1413 1 1.8408478697768853 12.700858656739968 4.9383986986464095 -1 0 0
3282 1 3.245732531337303 7.274798517166949 7.918856614011318 1 0 1
716 1 8.96597000638935 11.062437760914449 7.615984524283632 1 0 1
399 1 12.008650751814153 4.316106136594027 7.081013750306805 -1 0 0
1129 1 4.819332958778049 13.236937846082743 5.395620550452901 0 1 0
2007 1 4.766536509860809 11.681043596918071 7.666328417276106 -1 1 -1
3929 1 6.62280591839934 10.274567081483164 9.114574521159208 1 0 1
2631 1 11.651974655917522 10.255300258396288 7.344436325220544 0 0 0
2561 1 14.597461181521176 12.930380012776588 9.234199329890323 1 1 1
687 1 0.037381344711987896 28.670027907832484 0.15154967209845582 -1 -1 1
374 1 6.571423145137472 15.308202935253773 6.216523364602429 1 0 0
2628 1 4.803178453877225 16.422408590459963 8.425287971110489 0 1 1
1275 1 8.866666226286144 13.960584927531308 7.345271160233109 0 0 1
4032 1 10.107117585859342 15.4811675993446 9.257889006067158 0 0 0
4132 1 3.7245579873200914 18.42615491785134 6.731375069216826 0 1 0
232 1 7.258828754305662 16.171225001036582 10.190549528138726 0 -1 0
4379 1 8.05917233737086 21.21148843449698 8.872168265887648 0 1 1
1754 1 11.122538730380137 18.202434744193063 9.626832768461753 1 0 1
4179 1 14.18775152834616 20.09453167391514 7.178327855450688 0 1 0
4201 1 5.223239177235246 44.931282582436864 20.98535944573608 1 -1 1
4602 1 3.453335953229711 20.789069023583465 8.642588556068562 0 0 0
379 1 6.103247493146565 18.8858841915498 9.764434366181392 1 1 0
3884 1 4.8009430508388995 21.565628435965383 10.927724371991486 1 1 1
337 1 6.291360069859696 23.3298485692172 8.892592725408528 0 -1 0
1792 1 9.71589598791534 24.506096136081283 7.479609011375605 -1 0 -1
1525 1 14.329782889163676 20.545238533366625 9.87203607752562 1 1 1
2948 1 10.127642446757536 26.740887138343687 0.7912479831155572 0 -1 1
4394 1 0.6961844978905891 27.2348965943228 5.572173578684034 1 0 1
1544 1 1.6657586491355394 25.6331118377602 7.782311544559908 0 0 0
424 1 14.963602792099362 26.09443651624205 7.324263377185931 1 0 1
480 1 12.761092930112458 24.48096432614278 7.1713710586172805 0 -1 0
677 1 11.564752898144329 25.24184113727215 4.368518604638718 -1 0 0
1460 1 2.0678761191359447 29.79213636486756 6.97305376911307 0 -1 0
738 1 8.88199879186236 30.68569775855642 7.099402254459969 0 0 0
1073 1 7.281457729269684 32.94701889818411 7.1495738692958035 0 0 0
974 1 11.636516495909559 27.53858621453109 8.401238084889723 1 -1 0
1697 1 14.281620561212515 28.55365618030052 8.682084233106082 1 -1 1
3383 1 16.23960605451639 43.763637006241595 24.568682335472598 1 0 -1
1892 1 5.111750977935274 34.0127639775358 5.60244935135046 0 -1 0
3838 1 15.160486252369347 10.131730117189798 9.885393955375855 1 0 0
1797 1 7.785956409455222 37.65639607771482 6.424200151364121 0 0 0
3668 1 13.96014470464214 30.229919829106407 6.1564368484908885 0 1 1
2228 1 15.386463681145715 12.722904556807338 20.10245888764102 0 1 0
1263 1 3.223501400807809 35.214589917779904 7.514676346271525 0 0 1
3992 1 10.63408606021242 34.887923352546224 6.086365670295192 1 0 0
2053 1 11.424138957415787 37.68164203411105 7.9527562055356285 0 0 1
2514 1 8.631804262564597 32.491406191199644 2.6741998287041544 0 0 1
3279 1 14.507196379022263 32.65914850875119 7.606219214156 1 0 0
2009 1 3.2739908357800593 38.969157402617 6.309557523714101 1 -1 0
3504 1 2.770664009621356 38.89872405098669 3.164742272514434 1 1 0
1362 1 9.022362382599646 35.23379370606217 2.05725288468054 0 -1 0
937 1 10.000570236429844 36.96843355517875 4.421013864526931 0 0 1
2057 1 9.458975230998798 38.0971589890942 9.841384358666177 0 0 0
3654 1 15.070984880994748 37.27541227493448 5.864355457076798 1 0 0
4333 1 1.0305272345489604 40.37721567703542 7.136792564383062 1 0 0
2086 1 5.34487657642036 40.46267734238256 3.324193469203837 1 -1 0
1980 1 8.841593068479142 40.125700914468666 8.192038066067733 0 0 1
3591 1 14.202619173280448 40.33265066982831 5.789174975382408 1 -1 1
3287 1 15.94678919422294 38.52658769292256 8.18343825824664 0 0 1
2453 1 2.066088759141689 47.62521644330218 7.99932470262404 1 1 1
2408 1 1.914605525696321 42.76610787770355 6.442335966336713 1 1 0
2799 1 6.202744957179568 41.65087740715937 0.11149721558831671 1 -1 1
3151 1 7.526198013975164 38.87340697728497 2.9970027364928 1 -1 0
2518 1 11.456497130975816 40.014981976725096 6.101682558197744 0 -1 1
3904 1 15.681376145692145 44.00014591574511 7.336875178184703 0 0 0
1877 1 4.895663110176968 43.88676420075198 3.8123579824678853 1 0 0
494 1 8.249423105777453 47.08657659378781 3.9716812670732935 -1 -1 0
1604 1 12.998565404591142 43.56626444827667 6.510788334772735 1 0 0
2272 1 12.69950301939256 48.18880059432114 3.9013033989992394 0 -2 0
1751 1 2.3758204616981855 46.869721718302344 10.6462636359431 0 0 0
1989 1 7.110487402927909 48.775971910311156 6.59070195806854 0 -1 1
1145 1 12.696622755756133 46.449482010482086 5.989447170884047 -1 -1 0
1865 1 15.948420207965253 50.723478055092585 3.802233537396967 0 0 0
793 1 13.99053834941829 47.75258068525265 10.057360600341672 1 0 0
820 1 13.63838132997646 50.3423275552811 8.84876037386854 0 -1 0
2280 1 15.029456811590011 46.78278211515804 7.617763599066352 0 -1 0
3068 1 4.600007430028469 -0.09834880439568566 9.10595358340237 1 1 -1
1941 1 3.804356309819301 46.53029215510824 6.207745175466783 0 -1 0
2311 1 4.182375134383735 2.0743762435014808 10.889915275083641 0 1 0
4512 1 10.052071992849694 47.49852517012363 6.411159588126818 1 -1 1
3803 1 8.567464559933702 1.1852670442702977 13.355991727978866 0 0 0
1206 1 10.926339434513567 1.6891761264624474 11.730005009456903 -1 0 1
4289 1 14.610798013834458 50.821113744089075 11.399292272137172 -1 -1 1
3220 1 3.3205196419048493 17.695888737623278 16.596045353973924 1 0 0
3149 1 4.07758446818347 2.370103071577149 14.518364721281753 0 0 1
2050 1 6.991794063940846 2.7524955981529233 11.054132921025488 0 -1 0
3990 1 9.06821671827356 2.7486428798738074 9.209486525957853 0 1 0
3596 1 12.758741818883536 5.31265501014451 9.854716271515564 1 0 0
2091 1 15.608468919085759 4.817369534218423 12.740868508397988 -1 0 -1
4242 1 3.5556001283024816 5.9117424294055985 12.823601731307532 1 0 1
1659 1 4.976572280402631 6.706552577755252 10.165568529290825 -1 0 0
4086 1 7.233446173649305 7.782427285308788 8.518679673149503 0 1 0
1269 1 9.884111701461414 7.05500249030396 9.685841538068889 1 0 1
246 1 13.224597890612817 7.456012776437864 14.489713277882183 0 1 1
2965 1 5.770514152657051 18.904841949318723 24.328497939717394 1 0 1
2765 1 6.130370401121649 9.561214688700025 11.794014830949127 0 1 -1
2789 1 6.8987064804211755 7.08425373398729 12.716713788290305 1 0 0
3309 1 9.489225047858211 7.659789291521958 12.891618603923455 0 0 1
1329 1 12.916770380791347 8.03987414892388 8.538480722676079 0 0 1
2784 1 10.704282501257168 11.479796556579263 11.163506234510704 -1 0 0
2630 1 13.941247024554935 12.161809984895184 6.344661092316407 0 0 1
4524 1 2.5384946318056425 9.96086949727223 8.001949440687918 0 -1 0
3097 1 0.13371600941049488 29.533934619467612 21.61322484154952 -1 1 -1
2159 1 4.609630132332746 14.210595029086054 11.57611897116845 1 1 1
2398 1 6.21356830587418 12.141456982746242 12.733663052734242 1 0 1
2019 1 8.842380032240051 12.106186971123742 12.965407821277925 1 0 0
2952 1 11.826071187640382 13.258379882047764 8.494534280330386 0 0 0
3153 1 13.367698560177898 15.99125290893583 11.4195460995583 1 -1 0
1381 1 3.839269512070633 14.0098208942529 8.887029962425522 0 0 2
684 1 3.185688929051467 16.530431946375028 12.804161842702873 0 0 -1
1455 1 7.381862646042395 15.066548286812658 12.735590194541334 0 0 0
4203 1 10.145588818896812 14.89578412472001 11.89095132065377 0 0 0
1516 1 14.992939351197911 11.832421865355286 23.058114676348342 -1 0 1
1622 1 13.738780290141811 16.09915180419929 8.385530425127246 1 0 0
113 1 3.1991114222469856 46.81386801731345 20.925430601554037 0 -1 -1
1528 1 10.840152927655247 19.60431465239813 15.300553309304881 1 0 0
3997 1 9.13496689129606 17.688140681363553 13.961120444895759 0 0 0
3724 1 11.927212001749739 18.649737801585104 7.129759464690589 0 0 0
3476 1 12.882965766069258 42.13481887021534 22.45948977468887 1 -1 1
2990 1 3.4214160996691074 23.894747551136984 12.3709873268066 1 1 1
920 1 1.2665316411529892 20.160865600126687 9.58929661822081 -1 0 0
2340 1 6.226742928941748 23.766401013040173 13.567745573073282 0 0 1
1432 1 7.81275155111314 22.604949041759877 11.796821397280205 0 0 0
1477 1 12.47946463338883 24.114405707786545 14.352970843509315 -1 0 0
533 1 1.7008023756504498 25.761593113179952 10.9581243455397 0 -1 0
2625 1 8.312133337982232 22.0273551291146 0.21356876536546932 0 0 0
4529 1 6.495041353018024 26.46326954594402 12.770767956817402 0 1 1
2085 1 8.816521190776541 27.090908138764846 8.136482857427243 0 1 0
3565 1 10.188486941215439 24.489926504703632 11.132868997460097 1 1 1
2992 1 13.687616561064626 25.002802793999983 12.038354381998012 -1 0 0
1094 1 5.669723895180268 28.205146678534657 9.220662559207886 1 -1 0
1069 1 2.7210389676627256 28.257290092019698 9.196601747454249 0 -1 1
2487 1 1.3199857407552968 30.68265938762881 13.327673891516593 1 -1 1
3079 1 8.443145860284659 27.525181846239345 5.045773151635967 2 0 0
1367 1 6.253493993091051 30.345945572283135 15.25994715816041 -1 0 1
4448 1 10.449322507787691 30.14025982998001 9.17335149449219 1 -1 1
1431 1 10.497508242882624 22.465749933984796 13.174339347264016 0 -1 0
3191 1 11.528752674786544 27.086262987541225 11.208369110494415 0 0 0
48 1 6.601026931044664 30.854759153630926 10.747010085407416 1 0 0
2786 1 9.317936895055604 31.2185055757081 11.254057166978686 1 -1 0
3641 1 13.093836393959066 31.224681072650213 9.598551838926673 0 -1 -1
3974 1 13.50798513607125 34.80028338843343 9.601823600435432 1 0 1
659 1 14.82860737557709 27.869748997235067 11.431601738824893 1 1 -1
108 1 1.032233997782567 33.30695450928067 8.482060482456003 0 0 -1
1995 1 3.268531691421473 37.658452354905734 8.739774547566427 0 0 1
2817 1 5.527062922844325 38.707173214549286 10.196848480233008 0 -1 0
653 1 10.70179042909703 34.791264855565075 8.995796518250232 0 -2 1
2685 1 9.089374320937615 34.02375704067869 10.997009457330423 0 -1 1
2854 1 1.8963217437066957 21.03402427013234 1.134933483612942 1 0 1
1378 1 15.99043694696477 34.41054664247373 11.923463013734798 0 1 1
1688 1 1.2976859791702882 37.98616496419986 10.644453827542225 1 0 -1
3714 1 3.5920862235050524 38.03314081490099 12.198432314247215 1 0 0
3382 1 9.887185596175339 38.99623024865548 12.42650982920527 1 -1 0
3508 1 12.630280123693206 39.45042876592417 11.499170944964051 0 -1 0
1999 1 13.731919360030128 37.66168861645805 9.646682336259937 -1 0 0
1870 1 1.300712419607132 31.775532422354463 17.5921936517377 1 -1 0
4028 1 2.9774188087802353 40.3875247535816 13.575614413824793 1 -1 1
1014 1 1.054314469138414 40.534423613310196 9.803522738763535 -1 -2 1
3 1 5.931204173130094 40.09288891032469 6.389085127466411 0 -1 0
3208 1 13.313948932212806 41.5074993381664 10.119584923128597 0 -1 0
1769 1 2.867377242106554 42.02905702470812 11.168531894350716 0 1 -1
3911 1 4.804111368180932 43.55381436059878 9.674072835753966 1 0 1
353 1 6.43640158453035 41.18972703374942 9.299142563855606 0 0 0
2176 1 11.330803530199333 42.446011508680726 8.165604272528931 0 0 -1
2829 1 9.607084204485043 43.947214202865595 10.494323189816683 0 -1 1
253 1 15.213988490951424 32.16973489463609 22.94240139434144 0 -1 1
3207 1 15.593111544522726 33.68903667773321 14.619295230745987 1 0 -1
4473 1 16.310667787236685 19.25251970370549 0.25649556617659874 1 0 1
478 1 0.10811748100990026 46.885783320026434 13.651124723662251 0 -1 1
3922 1 4.588200998341126 44.22027826154488 7.104210889631429 1 0 1
97 1 8.481930118851263 43.0651417708342 7.416833611358388 1 -1 0
812 1 7.936984417736548 45.89063705023452 14.344131719185532 0 0 0
3095 1 1.1637264199264181 35.69565025661687 23.035497277655338 1 1 0
220 1 16.51016942177585 33.43894268220623 3.1896942388041305 0 0 0
2310 1 0.5744145640432098 51.01462266334718 10.546057121497311 1 0 0
2393 1 6.0136477601198415 46.836042087582555 8.420261843365273 0 0 0
2546 1 8.520161184426884 45.942074475252426 8.397894887520795 -1 0 0
2163 1 11.031669615909477 47.3365783517237 12.571185499163805 0 -1 -2
4045 1 1.5893044119896003 50.019075142195575 15.231113125577913 1 0 0
4185 1 14.696318164118303 20.783845848336153 17.817584311344387 1 0 0
2751 1 11.538964726371288 51.17898221822742 14.304768640220102 -1 -1 0
491 1 7.273986269475123 50.246579255649465 9.140819067227255 0 -1 0
10 1 15.71765432271258 0.28246731763187916 16.000456502643797 -1 0 0
1215 1 9.56723958425811 14.967911084781257 24.943435158867604 0 0 0
3127 1 5.256831485186614 4.761784054648373 15.291702305248434 1 1 1
340 1 9.115314424464767 2.929720173788334 15.852600824626151 0 1 0
2878 1 12.653306667469723 4.8374036026019605 13.287618624384972 0 0 1
2553 1 16.34401224811183 2.3467493524008427 13.661799847165815 0 1 0
1114 1 2.2686942987039287 3.134762747560112 12.91182137256564 0 -1 1
4603 1 2.6946939457808696 6.073622334709926 16.624613732137245 1 1 0
4121 1 10.40257624184314 5.829348005807286 14.91087311990569 1 0 1
1220 1 16.27166801166139 7.387748512907738 13.457242718598762 1 0 2
3235 1 16.751982050004113 39.449431264199845 22.033179706790822 1 0 0
4404 1 3.5408141792116883 9.922476197249287 15.460231944116362 -1 2 2
2341 1 6.849243595021107 7.277035486056564 17.495334308884775 -1 0 1
2152 1 14.849093128692136 6.884019099019317 16.83339746061069 1 1 0
3612 1 12.49275826679313 13.818353507997015 15.09940395886871 1 1 0
1987 1 17.18576969953582 8.512547359460276 11.20202746299554 0 1 -1
3091 1 5.583281691021564 7.654159023793702 15.04563709614894 0 2 0
3228 1 7.422426338850686 10.246917295913516 17.0528457149115 1 1 0
2362 1 11.737856322164781 8.985159747263477 11.178556715133832 0 0 1
3353 1 13.03848678604232 13.28498846717959 11.731735917932117 0 0 1
106 1 1.3409635904297157 15.461489933375553 14.164186875677382 1 0 -1
1504 1 6.142525798227093 16.215706477041465 14.995557151279039 1 0 0
1621 1 8.909896233900641 15.756314170095717 16.056705323395743 0 0 -1
1279 1 14.168836472736883 21.225444678336324 13.451243241655794 0 0 0
4330 1 7.138961871885206 19.768343528998663 13.13207878142547 1 -1 2
1944 1 3.8257202853222907 19.463769926744167 12.729809958026845 0 0 0
4104 1 1.9544642265437173 21.548984820938283 13.369230913908286 1 0 1
1451 1 -0.14308335263121355 39.16900380640156 23.635433271668834 1 0 1
2657 1 15.890124903788355 45.879851703856104 20.72658898972464 -1 -1 -1
4558 1 16.12059933599937 1.532384569268009 7.177093874926776 0 0 -1
2584 1 7.540419410832222 19.09335216842308 17.03126006033535 0 -1 0
1260 1 8.578812918679292 21.5678616264117 15.13778922966638 -1 -1 0
3699 1 14.690078354424898 48.98156290788228 2.2546993177818195 1 -1 1
3093 1 3.3208307699649446 4.60751287769803 24.33940237160704 1 2 0
4434 1 2.027402800111812 31.48132580792932 2.2515136896779273 1 0 1
1960 1 3.865551704317183 26.14687917666023 14.63321956896469 0 1 1
3759 1 7.857007960776874 25.48659252729521 10.170452297929275 1 0 1
3630 1 16.359427753699524 22.893802487178526 16.96987598770965 -1 0 -1