
# Import phase coexistance setup
#
read_data           data.coexist_${TEMP}K_${PRES}atm_ML
read_data           data.coexist_299K_${PRES}atm_ML
read_data           data.coexist_299K_-1000atm_ML
Reading data file ...
  orthogonal box = (-0.12334159 -0.22776061 -0.22776061) to (104.80108 51.328024 51.328024)
  3 by 1 by 2 MPI processor grid
  reading atoms ...
  8512 atoms
  reading velocities ...
  8512 velocities
  read_data CPU = 0.032 seconds

# Define potential
#
pair_style 	    sw
pair_coeff	    * * /data/emrosky-sim/Freezing_Simulations/Melting/MLmW_fancy/ML_mW.sw mW
Reading sw potential file /data/emrosky-sim/Freezing_Simulations/Melting/MLmW_fancy/ML_mW.sw with DATE: 2019-02-27

# Reset velocity/set timestep
#
velocity	    all create ${TEMP} 120598 rot yes dist gaussian
velocity	    all create 299 120598 rot yes dist gaussian
timestep	    10.0

# Define output
#
compute	            1 all msd
compute             2 all orientorder/atom nnn NULL degrees 2 4 12
thermo              1000
thermo_style        custom step temp press vol etotal ke pe c_1[4]

# Neighbor lists
#
neigh_modify        delay 0 every 1 check yes

# Set fixes
#
fix                 1 all momentum 10 linear 1 1 1 rescale
fix                 2 all nph iso ${PRES} ${PRES} ${PCOUPL}
fix                 2 all nph iso -1000 ${PRES} ${PCOUPL}
fix                 2 all nph iso -1000 -1000 ${PCOUPL}
fix                 2 all nph iso -1000 -1000 10000.0
fix                 3 all temp/csvr ${TEMP} ${TEMP} ${TCOUPL} 837492
fix                 3 all temp/csvr 299 ${TEMP} ${TCOUPL} 837492
fix                 3 all temp/csvr 299 299 ${TCOUPL} 837492
fix                 3 all temp/csvr 299 299 5000.0 837492

# Run very short equilibration
#
dump		    1 all atom 50 eq.${NAME}.dump
dump		    1 all atom 50 eq.melt_299K_-1000atm_ML.dump
run	            500
Neighbor list info ...
  update every 1 steps, delay 0 steps, check yes
  max neighbors/atom: 2000, page size: 100000
  master list distance cutoff = 6.0032907
  ghost atom cutoff = 6.0032907
  binsize = 3.0016454, bins = 35 18 18
  2 neighbor lists, perpetual/occasional/extra = 1 1 0
  (1) pair sw, perpetual
      attributes: full, newton on
      pair build: full/bin/atomonly
      stencil: full/bin/3d
      bin: standard
  (2) compute orientorder/atom, occasional, copy from (1)
      attributes: full, newton on
      pair build: copy
      stencil: none
      bin: none
Per MPI rank memory allocation (min/avg/max) = 4.599 | 4.600 | 4.601 Mbytes
Step Temp Press Volume TotEng KinEng PotEng c_1[4] 
       0          299   -917.88692       278889   -75254.738    7585.5326    -82840.27            0 
     500    351.61696   -748.21897    274462.97   -77037.114    8920.4078   -85957.522    16.079862 
Loop time of 1.16806 on 6 procs for 500 steps with 8512 atoms

Performance: 369.845 ns/day, 0.065 hours/ns, 428.061 timesteps/s
99.7% CPU use with 6 MPI tasks x no OpenMP threads

MPI task timing breakdown:
Section |  min time  |  avg time  |  max time  |%varavg| %total
---------------------------------------------------------------
Pair    | 0.39563    | 0.64529    | 0.93168    |  27.0 | 55.24
Neigh   | 0.12755    | 0.14778    | 0.16271    |   3.5 | 12.65
Comm    | 0.03432    | 0.33557    | 0.60557    |  39.6 | 28.73
Output  | 0.0086104  | 0.0092241  | 0.0097983  |   0.4 |  0.79
Modify  | 0.024161   | 0.024793   | 0.025363   |   0.2 |  2.12
Other   |            | 0.005402   |            |       |  0.46

Nlocal:        1418.67 ave        1436 max        1407 min
Histogram: 2 0 1 0 1 0 0 1 0 1
Nghost:        2051.83 ave        2082 max        2021 min
Histogram: 1 1 0 0 2 0 0 0 0 2
Neighs:        0.00000 ave           0 max           0 min
Histogram: 6 0 0 0 0 0 0 0 0 0
FullNghs:      39452.0 ave       39994 max       38287 min
Histogram: 1 0 0 0 1 0 0 1 0 3

Total # of neighbors = 236712
Ave neighs/atom = 27.809211
Neighbor list builds = 84
Dangerous builds = 0

reset_timestep      0
undump              1
unfix               2
unfix               3


################################################
#######         Run Simulation         #########
################################################

log                 log.run_${NAME}
log                 log.run_melt_299K_-1000atm_ML
