

read_data data.ice_${TEMP}K_${PRES}atm_ML group ice
read_data data.ice_299K_${PRES}atm_ML group ice
read_data data.ice_299K_-1000atm_ML group ice
Reading data file ...
  orthogonal box = (-0.10864301 -0.096571568 -0.096571568) to (57.379153 51.003692 51.003692)
  3 by 1 by 2 MPI processor grid
  reading atoms ...
  4608 atoms
  reading velocities ...
  4608 velocities
  read_data CPU = 0.020 seconds
read_data data.liq_${TEMP}K_${PRES}atm_ML add append shift ${X_HI} ${YZ_LO} ${YZ_LO} group water
read_data data.liq_299K_${PRES}atm_ML add append shift ${X_HI} ${YZ_LO} ${YZ_LO} group water
read_data data.liq_299K_-1000atm_ML add append shift ${X_HI} ${YZ_LO} ${YZ_LO} group water
read_data data.liq_299K_-1000atm_ML add append shift 51.003691568356 ${YZ_LO} ${YZ_LO} group water
read_data data.liq_299K_-1000atm_ML add append shift 51.003691568356 0.0965715683560973 ${YZ_LO} group water
read_data data.liq_299K_-1000atm_ML add append shift 51.003691568356 0.0965715683560973 0.0965715683560973 group water
Reading data file ...
  orthogonal box = (-0.10864301 -0.2205383 -0.2205383) to (104.78638 51.320801 51.320801)
  3 by 1 by 2 MPI processor grid
  reading atoms ...
  4608 atoms
  reading velocities ...
  4608 velocities
  read_data CPU = 0.012 seconds

write_data data.icewater_test
System init for write_data ...
WARNING: Communication cutoff is 0.0. No ghost atoms will be generated. Atoms may get lost. (../comm_brick.cpp:167)

# Define potential
#
pair_style sw
pair_coeff * * /data/emrosky-sim/Freezing_Simulations/Melting/MLmW_fancy/ML_mW.sw mW
Reading sw potential file /data/emrosky-sim/Freezing_Simulations/Melting/MLmW_fancy/ML_mW.sw with DATE: 2019-02-27

# Delete water and ice atoms that are overlapping
#
delete_atoms overlap 2.5 water ice
System init for delete_atoms ...
Neighbor list info ...
  update every 1 steps, delay 10 steps, check yes
  max neighbors/atom: 2000, page size: 100000
  master list distance cutoff = 6.0032907
  ghost atom cutoff = 6.0032907
  binsize = 3.0016454, bins = 35 18 18
  2 neighbor lists, perpetual/occasional/extra = 1 1 0
  (1) command delete_atoms, occasional, copy from (2)
      attributes: full, newton on
      pair build: copy
      stencil: none
      bin: none
  (2) pair sw, perpetual
      attributes: full, newton on
      pair build: full/bin/atomonly
      stencil: full/bin/3d
      bin: standard
Deleted 704 atoms, new total = 8512

# set timestep
#
timestep 10.0

# Define output
#
compute 1 all msd
thermo 50
thermo_style custom step temp press vol etotal ke pe c_1[4]

# Neighbor lists
#
neigh_modify delay 0 every 1 check yes

# Set fixes
#
fix 1 all momentum 10 linear 1 1 1 rescale
fix 2 all nph iso ${PRES} ${PRES} ${PCOUPL}
fix 2 all nph iso -1000 ${PRES} ${PCOUPL}
fix 2 all nph iso -1000 -1000 ${PCOUPL}
fix 2 all nph iso -1000 -1000 10000.0
fix 3 all temp/csvr ${TEMP} ${TEMP} ${TCOUPL} 837492
fix 3 all temp/csvr 299 ${TEMP} ${TCOUPL} 837492
fix 3 all temp/csvr 299 299 ${TCOUPL} 837492
fix 3 all temp/csvr 299 299 5000.0 837492


# Fix ice atoms in place
#
velocity ice set 0.0 0.0 0.0
fix 4 ice setforce 0.0 0.0 0.0

# Run 1.0 ns equilibration of water
#
dump 1 all atom 1000 eq.all.${NAME}.dump
dump 1 all atom 1000 eq.all.coexist_299K_-1000atm_ML.dump
run 100000
Neighbor list info ...
  update every 1 steps, delay 0 steps, check yes
  max neighbors/atom: 2000, page size: 100000
  master list distance cutoff = 6.0032907
  ghost atom cutoff = 6.0032907
  binsize = 3.0016454, bins = 35 18 18
  1 neighbor lists, perpetual/occasional/extra = 1 0 0
  (1) pair sw, perpetual
      attributes: full, newton on
      pair build: full/bin/atomonly
      stencil: full/bin/3d
      bin: standard
Per MPI rank memory allocation (min/avg/max) = 4.588 | 4.597 | 4.605 Mbytes
Step Temp Press Volume TotEng KinEng PotEng c_1[4] 
       0    137.31235   -1967.8743    278654.66   -82916.768    3483.5695   -86400.337            0 
      50    161.00787   -1609.7789    276596.51   -82588.088    4084.7172   -86672.805   0.87647824 
     100    172.11953   -924.40836    273229.38   -82328.976    4366.6164   -86695.592    1.9075854 
     150    176.84586   -466.21627    271732.52    -82001.82    4486.5218   -86488.342    2.9830459 
     200    178.97137   -514.52375    272107.29   -81688.201    4540.4454   -86228.647    3.9454843 
     250    185.92257   -1119.5786    273458.44   -81378.011    4716.7951   -86094.806    4.9950142 
     300    188.43986    -1254.095    274591.68   -81061.093    4780.6578    -85841.75    6.2135115 
     350    199.73959   -1013.8727    274866.53   -80736.178    5067.3285   -85803.507    7.5202907 
     400    202.43725    -1096.937    274579.85   -80539.537     5135.767   -85675.304    9.0185238 
     450    205.25379   -837.42711    273979.87   -80317.324    5207.2218   -85524.546     10.55014 
     500    206.28405    -610.9374    273885.58   -80098.973    5233.3592   -85332.332    12.167018 
     550    212.13014   -768.61139    274791.02   -79895.325    5381.6726   -85276.998    13.811147 
     600    217.06878   -1113.4765    275776.72   -79658.024    5506.9643   -85164.988    15.587962 
     650    219.37424   -1177.6038     276113.9    -79472.37     5565.453   -85037.823    17.391378 
     700    219.94051   -1403.7349    275959.57   -79230.415    5579.8191   -84810.234     19.22706 
     750    224.78541   -957.84195    275448.99   -79068.588    5702.7326   -84771.321    21.091193 
     800    224.89067   -1007.9978    275444.31   -78884.947     5705.403    -84590.35    23.167855 
     850    233.94587   -980.37155    275743.08   -78740.113    5935.1305   -84675.243     25.29019 
     900    237.97326   -938.85539    276025.05   -78588.284    6037.3041   -84625.588    27.650811 
     950    237.76602   -1044.3794       276590   -78430.383    6032.0464    -84462.43    29.944158 
    1000    240.44097   -1355.4152    276768.02   -78237.684    6099.9092   -84337.593    32.033674 
    1050    241.91377   -1058.2089    276328.76   -78121.274    6137.2735   -84258.547    34.128285 
    1100    247.24643   -887.48989    276234.86    -77955.28    6272.5615   -84227.841    36.439091 
    1150    244.01711   -522.63583    276644.01   -77781.452    6190.6345   -83972.087     38.91076 
    1200    248.68309   -1163.3065    277472.76   -77684.047    6309.0089   -83993.056    41.312297 
    1250    255.16974   -1189.3842    277720.83   -77570.454    6473.5731   -84044.027    43.831167 
    1300    249.75108   -998.06854    277489.22    -77500.71    6336.1035   -83836.813     46.35456 
    1350    258.69934   -820.59844    276975.43   -77345.095     6563.118   -83908.213    48.948447 
    1400    260.35884   -1038.9384    276988.67   -77235.856     6605.219   -83841.075    51.708672 
    1450    263.22598   -1148.6104    277549.35    -77106.78    6677.9574   -83784.737    54.533302 
    1500    263.25727    -1112.297    277873.28   -77065.492    6678.7511   -83744.243    57.638483 
    1550     264.9108   -923.32615    278152.94   -76940.011    6720.7007   -83660.712    60.563311 
    1600    266.75265   -1199.7265    278520.19   -76850.126    6767.4278   -83617.554    63.190411 
    1650    263.69601   -711.67105    278249.06   -76787.873    6689.8818   -83477.755     66.38057 
    1700    272.38087   -929.13665    277873.78   -76727.332    6910.2139   -83637.546    68.983618 
    1750    266.17198   -739.35447    277799.89   -76615.669    6752.6965   -83368.366    71.710597 
    1800    267.01701    -1140.822    278277.23   -76573.258    6774.1345   -83347.393    74.901679 
    1850    272.75872   -989.97611     278358.7   -76465.518    6919.7999   -83385.318    77.629008 
    1900    273.52208   -1030.9981    278185.93   -76411.178     6939.166   -83350.344    80.560071 
    1950    284.79862   -838.18127    278012.37   -76353.511    7225.2483   -83578.759    83.642903 
    2000    278.81126   -887.75464    278337.56   -76239.424    7073.3509   -83312.775    87.038419 
    2050    280.74223   -1054.2592    279022.43   -76189.348    7122.3389   -83311.687    90.563306 
    2100    275.64353   -1073.3331    279485.07   -76133.108    6992.9866   -83126.094    93.586949 
    2150    281.58888   -1048.3859    279564.58   -76026.678    7143.8181   -83170.496    96.538576 
    2200    282.23167    -1104.784    279061.79   -75968.275    7160.1256   -83128.401    98.791649 
    2250     284.8471   -634.56159    278486.05   -75957.196    7226.4783   -83183.674    101.47158 
    2300    282.77908   -853.06813    278675.39   -75929.863     7174.013   -83103.876    104.75706 
    2350    286.24756   -1051.3015    279062.03   -75857.842    7262.0075   -83119.849    108.04288 
    2400    290.96383   -1038.0758    279254.29   -75861.945    7381.6577   -83243.603    111.64766 
    2450     286.2003   -914.62281    279249.03   -75889.499    7260.8085   -83150.307    114.67668 
    2500    287.20228   -1117.8193    279018.57   -75902.478    7286.2283   -83188.706    117.51916 
    2550    288.15497   -884.50472    278503.61   -75823.927    7310.3978   -83134.324    120.62322 
    2600    285.51767   -1012.5103    278382.99   -75830.853    7243.4904   -83074.344    123.43393 
    2650    288.52934   -1185.2472    278595.12   -75847.143    7319.8953   -83167.038    126.38624 
    2700    290.24785    -1037.157    278875.59   -75795.802    7363.4934   -83159.295    128.91945 
    2750    287.42588   -1006.3982    279220.66   -75750.585     7291.901   -83042.486    131.92147 
    2800    287.63534   -1105.0902    279290.89   -75779.236     7297.215   -83076.451     135.2945 
    2850    290.45819   -1225.8274    278839.19   -75748.115    7368.8297   -83116.945    137.38388 
    2900    288.93727   -908.53217    278402.64   -75720.505    7330.2445    -83050.75    140.49356 
    2950    291.31775   -961.12335     278595.7   -75719.327    7390.6365   -83109.964    143.67716 
    3000    286.61387    -1244.523    279056.33   -75708.754    7271.3006   -82980.055    146.60324 
    3050    290.15896    -837.1727    279213.24   -75680.455    7361.2383   -83041.693    149.39562 
    3100    291.80869   -1101.8355    279585.42   -75599.654    7403.0915   -83002.746    152.48868 
    3150    297.21437   -1212.8069    279431.95   -75555.319    7540.2317    -83095.55    155.38228 
    3200    294.05214   -1043.4324    279260.72   -75522.292    7460.0071   -82982.299    158.07762 
    3250    298.56759   -831.73195    279366.78   -75490.508    7574.5625   -83065.071    161.15801 
    3300    290.36176   -1090.2089    279660.64   -75494.829    7366.3833   -82861.212    164.21031 
    3350     290.9558   -805.99827    279512.75   -75518.879    7381.4538   -82900.332    166.57688 
    3400    288.76398   -1130.5074     279191.6   -75536.923     7325.848   -82862.771    169.78017 
    3450    291.74052   -464.44694    278816.65   -75603.852    7401.3621   -83005.214    172.68389 
    3500    293.75654   -1203.9019    279038.48   -75602.032    7452.5077    -83054.54    176.60937 
    3550    288.00842   -987.92819    279235.93   -75580.357    7306.6799   -82887.037    180.51002 
    3600    292.14663   -917.14752    279395.75   -75554.785    7411.6648    -82966.45    184.03155 
    3650    289.53471   -988.24495    279274.93   -75530.605    7345.4013   -82876.006    187.13401 
    3700    297.74759   -871.84947       279024   -75491.796    7553.7594   -83045.556     191.1163 
    3750    303.01621   -1267.2902    279161.73   -75392.492    7687.4225   -83079.915    195.25407 
    3800    296.55491   -1216.6039     279399.7   -75379.654    7523.5015   -82903.156    199.32122 
    3850    295.95901    -860.5659    279437.33   -75330.757    7508.3836    -82839.14    202.62329 
    3900    301.83304   -1185.5849    279709.67   -75293.988    7657.4058   -82951.394    205.78769 
    3950    295.98131    -871.6111    279746.59   -75291.993    7508.9495   -82800.943    209.99796 
    4000    299.49275   -1106.9318    279503.91   -75361.621    7598.0335   -82959.655    213.70735 
    4050    298.16278   -883.50996    279119.79   -75370.077    7564.2926   -82934.369    216.84335 
    4100    297.09975     -1033.34    279200.51   -75352.877    7537.3238   -82890.201     220.2756 
    4150     292.3897    -913.1735    279413.09   -75388.189    7417.8314   -82806.021    224.00282 
    4200    295.83366   -847.09985    279561.91   -75352.913    7505.2037   -82858.116    227.32141 
    4250     297.2603   -988.37831    279838.92   -75326.842    7541.3971   -82868.239    230.62423 
    4300    296.00789   -989.90878    279657.03   -75310.008    7509.6238   -82819.632    234.37069 
    4350    300.78742   -823.81831    278974.23   -75314.544    7630.8789   -82945.423    238.28175 
    4400    296.65026   -911.81453    278710.21   -75344.319    7525.9204    -82870.24    240.74277 
    4450    296.99046   -863.82938    278926.56   -75323.066    7534.5513   -82857.617    243.82867 
    4500    298.04236   -952.88682    279537.93   -75296.904    7561.2375   -82858.142     247.8607 
    4550    295.42911   -1115.1528    279869.87   -75276.743    7494.9402   -82771.683    251.40085 
    4600    295.25498   -1074.6518    279744.71   -75250.429    7490.5227   -82740.952    254.73229 
    4650    298.39817   -827.53046    279518.18   -75262.815    7570.2643    -82833.08    257.24698 
    4700     299.8846   -945.64427    279677.84   -75257.837    7607.9747   -82865.811    260.19913 
    4750    298.44127   -870.33705    280027.94   -75280.281    7571.3579   -82851.639    264.03641 
    4800    293.55237   -1125.9539    280295.63   -75235.032    7447.3281    -82682.36    267.81512 
    4850     301.1925   -1045.5053     279899.4   -75208.216    7641.1557   -82849.372    270.45603 
    4900    300.80715   -990.74195    279359.99     -75216.3    7631.3794   -82847.679    272.66991 
    4950    291.25768   -802.70092    279219.51    -75220.37    7389.1124   -82609.482    275.52145 
    5000     300.2828   -846.98627    279433.43    -75210.38    7618.0767   -82828.457    278.68866 
    5050    294.60925   -930.16144    279772.29    -75211.71    7474.1407   -82685.851     282.3485 
    5100    293.58471   -1268.9191    279987.06   -75179.514    7448.1485   -82627.662    286.21319 
    5150    300.08142   -999.53778    279803.01   -75206.975    7612.9679   -82819.943    290.00796 
    5200    300.47745   -933.95822    279632.43   -75158.493    7623.0149   -82781.508    293.05241 
    5250    299.79851   -1093.6266    279798.91   -75137.952    7605.7906   -82743.742    296.70088 
    5300    300.26104   -1042.6106    279744.76   -75082.781    7617.5248   -82700.306    299.79745 
    5350    301.45513   -853.44759    279714.47   -75075.323    7647.8183   -82723.142    303.45716 
    5400     294.8609   -954.03563    279830.52   -75084.879     7480.525   -82565.404    306.75917 
    5450    304.52934   -975.96415    279721.68   -75074.229    7725.8101   -82800.039    309.11138 
    5500    301.75987   -1094.7232    279806.86   -75074.588    7655.5496   -82730.137    312.69171 
    5550    300.03969   -1046.8378    280004.06   -75114.299    7611.9092   -82726.209    316.25243 
    5600    303.35461   -978.32614    280036.03   -75080.294    7696.0077   -82776.302    319.79443 
    5650    304.94146   -1036.9911    279859.25   -75077.971    7736.2655   -82814.237    322.65256 
    5700     302.2625   -1176.1366     279943.6   -75022.509    7668.3012    -82690.81    326.03446 
    5750    299.67887   -856.99331    280028.28   -75043.845    7602.7552     -82646.6    329.12621 
    5800     299.5206    -1108.383    280085.81   -75062.523    7598.7401   -82661.263     333.6719 
    5850    298.64501   -1106.7011    279678.96    -75052.93    7576.5266   -82629.456    336.99754 
    5900    304.31548   -987.28472    279600.71   -75019.385    7720.3847    -82739.77    339.82279 
    5950    302.64921   -933.50097     279763.7   -74992.866    7678.1119   -82670.978    342.99735 
    6000    297.72615   -881.97874    279836.65   -75037.952    7553.2154   -82591.167    346.36414 
    6050    298.53357   -1155.7089    279998.57   -75086.485    7573.6995   -82660.184    349.33023 
    6100    303.37877   -1108.5595    280009.18   -75086.879    7696.6206   -82783.499    351.56728 
    6150    302.37153   -1022.0425    279998.73   -75053.844    7671.0673   -82724.911    354.54519 
    6200    302.23756   -895.42985    279837.83   -75046.333    7667.6684   -82714.002    358.44895 
    6250    301.73549   -882.07542     279885.3   -75002.037     7654.931   -82656.968    360.79723 
    6300    304.79816   -1362.6399    280247.86   -74999.257    7732.6299   -82731.887    363.06363 
    6350     299.9109   -795.98388    280074.97   -75037.287    7608.6419   -82645.929    365.81772 
    6400    305.55575   -1056.3076    279949.58   -74980.958    7751.8498   -82732.808    370.25652 
    6450    302.13923   -1007.9557    279643.95   -74979.515    7665.1739   -82644.688    374.20762 
    6500    306.47224   -1187.0267     279415.4   -74987.336    7775.1009   -82762.437    376.49082 
    6550    304.94311   -967.68073    279471.85   -74994.062    7736.3075   -82730.369    379.13349 
    6600    299.66011   -1019.6834    279663.85   -75080.062    7602.2793   -82682.341    383.05608 
    6650    303.75432   -1084.2777    279832.83   -75111.411    7706.1482   -82817.559    386.01824 
    6700    297.56961   -1030.5316    279948.98   -75126.229    7549.2442   -82675.474    390.15898 
    6750    301.16255   -987.67951    279987.12   -75155.041    7640.3958   -82795.437    393.36863 
    6800    296.95645   -1154.4563    280084.28   -75159.435    7533.6884   -82693.123    395.81173 
    6850    295.25625   -1040.1309    279909.49    -75170.65    7490.5548   -82661.205    397.67325 
    6900    299.03118   -878.52143    279438.72   -75193.652    7586.3237   -82779.976    399.91157 
    6950    302.14006   -887.56397    279393.39   -75176.118     7665.195   -82841.313    403.51596 
    7000    305.64826   -911.11889     279735.4    -75167.57    7754.1967   -82921.766    407.39676 
    7050     297.7191   -1054.9043     280174.2    -75134.13    7553.0366   -82687.166     409.6315 
    7100    300.65824   -967.30648    280197.37   -75086.826    7627.6016   -82714.428    412.45976 
    7150    298.18632    -748.7856     279965.1   -75101.628    7564.8897   -82666.518    415.88502 
    7200     299.4115   -642.74565    279480.42   -75076.702    7595.9723   -82672.674    417.72773 
    7250    308.41515   -778.44621    279365.27   -75047.878    7824.3919    -82872.27    420.04626 
    7300    301.07572   -1042.4052    279768.14   -75022.549     7638.193   -82660.742    423.50553 
    7350    303.40161   -910.77776    280132.71   -75046.145       7697.2   -82743.345    426.89718 
    7400    301.12853   -970.70168    280296.03   -75045.159    7639.5326   -82684.692     430.1244 
    7450    301.00275   -1058.8227    280073.15   -75027.131    7636.3418   -82663.473    432.64279 
    7500    301.06139   -608.74368    279626.31   -75057.737    7637.8294   -82695.566    435.44263 
    7550    306.01965   -893.28967    279475.99   -75122.849    7763.6189   -82886.468    439.42164 
    7600    299.66443   -1145.6517    279605.22   -75120.452     7602.389   -82722.841    442.68737 
    7650    303.14735   -1291.8611    279765.35   -75097.577    7690.7496   -82788.326    445.24755 
    7700    300.40062   -1169.7884    279848.87   -75098.401     7621.066   -82719.467    447.60877 
    7750    299.77355   -1184.7649    279684.19   -75113.761    7605.1574   -82718.918    450.35517 
    7800    303.27128   -829.54137    279260.71   -75167.798    7693.8936   -82861.691    452.14812 
    7850    300.73168   -800.83867    279030.47   -75156.791    7629.4648   -82786.256    455.19046 
    7900    300.63255   -894.81476    279643.31   -75117.114    7626.9498   -82744.064     459.6086 
    7950    301.60402   -1057.5915    280232.13   -75125.742    7651.5958   -82777.338    464.22417 
    8000    301.26937   -1099.4544    280481.17   -75112.933    7643.1059   -82756.039    468.47385 
    8050    298.72877   -1143.5389    280090.22    -75127.54    7578.6516   -82706.192    471.27885 
    8100    301.13434   -822.58919    279484.45   -75176.931    7639.6802   -82816.611    474.52775 
    8150    300.91769   -972.14134    279201.54   -75238.015    7634.1838   -82872.199    477.60107 
    8200    300.83102   -1068.9096    279325.18   -75199.038    7631.9851   -82831.023    480.66043 
    8250    298.04881   -1052.3627    279688.03   -75197.832    7561.4013   -82759.233     484.2276 
    8300    301.49975   -938.92929    280025.07   -75176.238    7648.9505   -82825.189    487.46653 
    8350    298.53253    -835.1972    280111.36    -75244.34    7573.6731   -82818.013    490.60958 
    8400     296.2731   -1005.7872    280009.59   -75253.204    7516.3522   -82769.557    492.33965 
    8450    302.94343   -984.80771    279652.74   -75253.099    7685.5763   -82938.676    495.00387 
    8500    302.85368   -847.97086    279406.73   -75196.726    7683.2994   -82880.026    498.02045 
    8550    301.63664   -553.75965    279468.58   -75147.163    7652.4233   -82799.586    500.91408 
    8600    300.40695   -1074.6187    279890.53    -75151.57    7621.2265   -82772.797    504.16399 
    8650     296.8472   -1139.8843    280316.61   -75090.377    7530.9168   -82621.293    508.10426 
    8700    301.83379   -1282.9038    280478.49   -75060.574    7657.4251       -82718     511.5815 
    8750    303.27191   -1252.9338    280194.48   -75047.211    7693.9096   -82741.121    514.26468 
    8800    304.15345   -1016.8073    279768.95   -75035.325    7716.2739   -82751.599    516.82577 
    8850    300.16003   -942.83986    279779.29   -75005.944    7614.9622   -82620.906    520.46367 
    8900     305.6757   -1357.8672    279930.25   -75010.982     7754.893   -82765.875    523.64521 
    8950    302.65753   -1112.8015    279645.27   -74988.024    7678.3229   -82666.347    526.11432 
    9000    304.13512   -744.42613    279272.24   -75018.098    7715.8091   -82733.908    528.47277 
    9050    300.56086   -813.02861    279537.07   -74983.033    7625.1312   -82608.164    531.36634 
    9100    303.32276   -1183.9576    280148.12   -74993.944    7695.1997   -82689.144    535.52642 
    9150    303.84298   -1127.4895    280295.84   -75021.881    7708.3973   -82730.278    539.07049 
    9200    305.32499   -937.33945    279845.87   -74983.938    7745.9956   -82729.933    540.85538 
    9250    305.32336    -1002.177    279432.06   -74972.041    7745.9543   -82717.995    543.38706 
    9300    304.11994   -1056.8096    279721.49   -75029.844    7715.4239   -82745.268    546.23743 
    9350     300.4287   -1382.4636    280167.76   -75029.016    7621.7784   -82650.795    548.40677 
    9400    297.67576   -986.23338    280302.31   -75066.632    7551.9372   -82618.569    550.84148 
    9450    307.93307   -1268.3026     280134.3   -75066.999    7812.1617   -82879.161    553.74009 
    9500    300.92683   -1068.4273    279750.02   -75065.612    7634.4156   -82700.027     555.3182 
    9550    298.59201   -754.48417    279515.78   -75072.697    7575.1819   -82647.879     558.2152 
    9600    299.36695   -822.51234       279829   -75067.213     7594.842   -82662.055    560.15023 
    9650    298.91086   -997.04398     280106.6    -75019.96    7583.2713   -82603.231    562.34671 
    9700    303.97933   -1027.2709    279764.51   -75033.605    7711.8566   -82745.461    564.24408 
    9750    297.12505   -1000.3617    279494.28   -75118.306    7537.9658   -82656.272    566.06096 
    9800    300.01601   -1023.1323    279506.97   -75093.846    7611.3086   -82705.154    569.05824 
    9850    298.17585   -711.97973     279690.7   -75092.967    7564.6242   -82657.591    572.07633 
    9900    301.08201   -1152.6275    280140.89   -75044.082    7638.3526   -82682.435     576.7868 
    9950    299.48268   -1014.3719    280296.33   -75051.414    7597.7781   -82649.192    578.89974 
   10000    300.22139   -989.39779    280372.15   -75061.423    7616.5189   -82677.942    581.38545 
   10050    302.20312   -1013.5141    280243.71   -75066.451    7666.7947   -82733.245    582.46276 
   10100    303.19375   -731.30253    279794.75    -75062.51    7691.9267   -82754.437    583.96661 
   10150    305.49182   -1220.3347    279433.21    -75067.74     7750.228   -82817.968    586.68059 
   10200    304.12053   -823.05336    279359.42   -75105.637    7715.4388   -82821.075    589.98707 
   10250     303.1302   -1301.1166    279682.89   -75047.982    7690.3145   -82738.297    592.94814 
   10300    300.34314   -911.41579    279779.62   -75019.946    7619.6075   -82639.553    595.88141 
   10350    307.17148   -956.56531    279908.66   -75049.647    7792.8405   -82842.488    599.18096 
   10400    300.52302   -1147.1037    280246.01    -75069.44    7624.1711   -82693.612    602.86893 
   10450    300.30443   -1092.2635     280238.7   -75047.341    7618.6256   -82665.966    606.19617 
   10500    299.40095   -1117.6956    280052.16   -75020.149    7595.7046   -82615.854    609.14774 
   10550    302.90279   -1133.9005     279611.8   -75004.049    7684.5452   -82688.594    611.90755 
   10600    301.83239   -1020.0357    279454.78     -75002.8    7657.3895   -82660.189    614.30824 
   10650    303.57446   -1066.4596    279638.82   -75038.672    7701.5851   -82740.257    618.13869 
   10700    302.45446    -1049.666    279837.48   -75092.147    7673.1711   -82765.318    620.73401 
   10750    305.70414   -1092.3188    279816.88   -75092.993    7755.6146   -82848.608    622.81931 
   10800     297.0838   -1076.9337    279805.42   -75097.239    7536.9193   -82634.158    626.94476 
   10850    302.14549   -1072.8506    279660.71   -75107.086    7665.3328   -82772.419    630.45719 
   10900    299.50186   -1125.2051    279562.33   -75105.713    7598.2646   -82703.978    632.95023 
   10950    302.58417    -1212.085    279650.51   -75142.807    7676.4618   -82819.269    635.48336 
   11000    300.49521   -1012.8958    279657.71   -75178.461    7623.4656   -82801.927    638.85184 
   11050    295.29822   -820.46079    279484.97   -75167.572    7491.6198   -82659.192    641.20467 
   11100    298.42177   -905.05259    279266.45   -75203.158    7570.8632   -82774.021     644.1727 
   11150    300.94501   -795.77838    279085.74   -75206.459    7634.8768   -82841.336    648.71902 
   11200    300.96121   -1313.3746    279488.08   -75219.911     7635.288   -82855.199    651.66719 
   11250    297.12847   -994.33894    280041.38   -75199.842    7538.0525   -82737.895    655.81794 
   11300    294.24528   -1149.3256    280428.87   -75211.236     7464.907   -82676.143    659.83123 
   11350    302.54212   -1317.2056    280006.52   -75228.558     7675.395   -82903.953    661.97117 
   11400    298.30335   -931.65818    279270.92   -75251.116     7567.859   -82818.975    662.41284 
   11450    302.95099   -812.15313    278813.15   -75216.399    7685.7679   -82902.167    663.19864 
   11500    302.77445   -981.65031     279110.9   -75135.424    7681.2893   -82816.713    666.52402 
   11550    303.87117   -937.90555    279749.94   -75116.127    7709.1127   -82825.239    670.02236 
   11600     299.4607   -752.10201    280083.31   -75145.995    7597.2205   -82743.215    672.23037 
   11650    298.53262   -1089.8703    280183.44   -75232.629    7573.6753   -82806.305    676.15677 
   11700    301.57522   -1263.2145    279924.64   -75202.666    7650.8652   -82853.532    679.96365 
   11750    295.53576   -889.38893    279226.86   -75257.195     7497.646   -82754.841    682.01455 
   11800    299.56485   -897.67935    279039.79   -75297.731    7599.8628   -82897.594     684.1165 
   11850    294.98192   -989.99964    279474.51   -75312.328    7483.5952   -82795.923    687.75769 
   11900    298.61011   -996.30167       279824   -75289.421    7575.6412   -82865.062    690.28793 
   11950     296.2269   -1197.2235    279823.33   -75270.619    7515.1799   -82785.799    693.33942 
   12000    299.59822    -1056.969    279249.98   -75299.163    7600.7092   -82899.872    695.28349 
   12050    297.02793   -849.20879    278703.63   -75333.923    7535.5018   -82869.424    697.49942 
   12100    300.07082   -997.70989    279008.64   -75307.038     7612.699   -82919.737     700.7627 
   12150    298.78718   -1547.5015    279942.98   -75245.014    7580.1336   -82825.148    705.03247 
   12200    294.81516   -904.20738    280059.45   -75196.463    7479.3646   -82675.827    707.76514 
   12250    297.70687   -921.51908    279866.82   -75234.457    7552.7263   -82787.183    711.76431 
   12300    298.45586   -876.78091    279398.31   -75145.093    7571.7281   -82716.821    714.39234 
   12350    302.79854   -830.80385    279277.63   -75193.673    7681.9003   -82875.573    717.45125 
   12400     303.7595   -1062.1205    279346.73   -75163.225    7706.2797   -82869.505    721.14232 
   12450    302.04988   -915.12066    279558.73   -75136.975    7662.9071   -82799.882    725.39974 
   12500    297.65463   -831.91197    279899.36   -75145.705    7551.4009   -82697.106    729.93221 
   12550    297.72244    -1040.836    280177.46   -75131.635    7553.1213   -82684.756    733.14147 
   12600    300.76429   -1059.2485    280133.93   -75156.515    7630.2921   -82786.807    737.11421 
   12650    299.91089   -1022.7255    280010.44   -75169.536    7608.6417   -82778.178    740.31286 
   12700     298.7794   -966.56061    279734.23   -75187.874    7579.9362   -82767.811    741.99818 
   12750    303.89607   -986.45008    279545.44   -75183.602    7709.7443   -82893.347    744.77527 
   12800    294.65264   -655.96453    279557.98   -75209.452    7475.2416   -82684.694     747.1721 
   12850    293.32591   -861.76311    279591.56   -75236.779    7441.5828   -82678.362    748.75836 
   12900    295.19752   -1148.3699    279642.36   -75203.297    7489.0649   -82692.362    750.88721 
   12950    298.09469   -819.46426    279475.12   -75202.317    7562.5651   -82764.882    754.31397 
   13000    299.46091   -787.37992    279462.03   -75172.677    7597.2259   -82769.903    757.60587 
   13050    302.79026   -1082.6236    279704.06   -75145.727    7681.6902   -82827.418    761.41248 
   13100    302.43908   -1168.6276     279802.5    -75101.08     7672.781   -82773.861    763.85994 
   13150    299.82904   -923.94392    279869.23   -75122.001    7606.5651   -82728.567    766.50028 
   13200    293.32681   -975.06656    280038.27   -75134.477    7441.6057   -82576.083    769.71659 
   13250    293.59457   -1013.0969    279842.58    -75112.11    7448.3985   -82560.509    771.30883 
   13300    303.30099   -987.90854    279611.75   -75116.728    7694.6472   -82811.376     772.5275 
   13350    305.14676   -1158.7323    279522.23   -75121.293    7741.4738   -82862.766    773.72936 
   13400    297.87845   -1150.8366     279246.3   -75170.151    7557.0792    -82727.23    774.90554 
   13450    303.23459   -1052.6181    279281.29   -75142.662    7692.9627   -82835.625     777.8595 
   13500    304.09518   -959.40907    279685.55   -75129.098    7714.7957   -82843.894    782.38649 
   13550    301.21776   -1151.1691     279959.7   -75104.079    7641.7964   -82745.875     785.9214 
   13600    302.89594    -1044.401    280083.77   -75128.027    7684.3715   -82812.398    788.82522 
   13650    305.62177   -1100.6323    280038.45   -75144.976    7753.5249   -82898.501    791.82296 
   13700    298.73793   -1151.1716    279901.65   -75161.111     7578.884   -82739.995    794.25257 
   13750     299.2835   -980.18127    279418.54    -75155.49    7592.7249   -82748.215    796.56167 
   13800    299.31473   -781.87526    279064.21    -75138.82    7593.5173   -82732.337    799.19801 
   13850    298.19654   -1000.0979    279222.44     -75132.3     7565.149   -82697.449    802.74612 
   13900     298.6439   -1352.0508    279599.96   -75152.811    7576.4985    -82729.31     806.2353 
   13950    298.48837   -1148.2798    279640.63   -75171.371    7572.5526   -82743.924    809.90412 
   14000    294.89444   -809.11235    279390.83   -75188.113     7481.376   -82669.489     813.2275 
   14050    296.94982   -981.45062    279586.93   -75192.396    7533.5202   -82725.916    816.15012 
   14100    295.53554   -1041.9721    280041.24   -75149.832    7497.6404   -82647.473    820.01145 
   14150     298.8697   -1038.5735    280287.03   -75152.611    7582.2269   -82734.838    824.15911 
   14200    303.05333   -1037.8464    279780.11   -75206.011    7688.3644   -82894.376    824.49651 
   14250    298.27775    -655.2352    279138.03   -75243.311    7567.2094   -82810.521    825.27298 
   14300    300.50809   -1057.9285    279126.25   -75243.344    7623.7923   -82867.137    828.91684 
   14350    299.74834   -961.69182    279531.29   -75264.825    7604.5178   -82869.343    832.98041 
   14400    295.69967   -1197.0258    280027.67   -75244.693    7501.8044   -82746.497    836.43664 
   14450    298.08191   -1143.0578    279879.72   -75240.295     7562.241   -82802.536    840.06841 
   14500    296.74519   -1031.3785    279579.87   -75205.941    7528.3288    -82734.27    842.24365 
   14550    292.98707   -915.00038    279397.23   -75220.226    7432.9866   -82653.213    844.34184 
   14600    297.84555   -1124.8557     279437.2   -75242.336    7556.2447   -82798.581    847.24264 
   14650    299.53608   -928.97593    279473.07   -75215.541    7599.1327   -82814.674    849.96433 
   14700    297.39464   -885.43209    279590.89   -75165.804    7544.8052   -82710.609    852.96463 
   14750    299.36851   -1296.0703    279682.62   -75187.829    7594.8817   -82782.711    856.58189 
   14800    293.70783   -634.10454    279479.57   -75185.503     7451.272   -82636.775    857.47635 
   14850    301.63789   -1070.2758    279505.37   -75194.262     7652.455   -82846.717    860.36955 
   14900    296.93195   -1013.5966    279705.57   -75186.735    7533.0669   -82719.802    862.87477 
   14950    304.25341   -1036.4819    279652.09   -75258.148    7718.8099   -82976.958    864.61793 
   15000    297.45531   -1128.0857    279450.76   -75256.294    7546.3443   -82802.638    866.40409 
   15050    303.90782   -1093.1566    279233.32   -75303.773    7710.0425   -83013.816    870.15869 
   15100    294.92831   -809.33854    279359.82   -75302.516    7482.2352   -82784.752    873.90258 
   15150    295.03307   -1276.6312    279891.31   -75322.674     7484.893   -82807.567    877.95964 
   15200     297.2323   -1005.5344    280117.65   -75352.404    7540.6868    -82893.09    880.03708 
   15250    291.23784   -1062.9347    279858.37   -75326.473    7388.6092   -82715.083    881.29486 
   15300    295.48554   -956.08156    279154.98   -75334.649    7496.3719   -82831.021     882.8391 
   15350    297.21329   -867.67374    278545.21   -75354.607    7540.2044   -82894.811    883.61161 
   15400    292.33745   -525.19436    278649.86   -75379.165    7416.5058   -82795.671    885.66997 
   15450    296.12053   -996.05614    279337.03   -75478.281    7512.4813   -82990.762    888.63438 
   15500    294.49229   -1242.2869    279694.61   -75490.433    7471.1736   -82961.607    892.59258 
   15550    290.20395   -951.46882    279372.14   -75510.685    7362.3797   -82873.065    894.87307 
   15600    296.02735   -763.55191    279144.62   -75464.869    7510.1175   -82974.986    895.28304 
   15650    296.10191   -1073.6951    279400.96   -75412.477     7512.009   -82924.486    897.21534 
   15700    293.93558     -880.218     279737.1   -75359.752      7457.05   -82816.802    900.23667 
   15750    299.96387   -908.55371    279914.91   -75317.863    7609.9856   -82927.849     903.5658 
   15800    297.66223   -1129.8301    279824.53   -75339.223     7551.594   -82890.817    906.23601 
   15850    294.14373   -976.02391    279533.46   -75343.304    7462.3307   -82805.635     907.3009 
   15900    293.50824   -889.31588    279150.44   -75347.858    7446.2085   -82794.066    908.58536 
   15950    298.74047   -995.50576    279257.15   -75365.862    7578.9483    -82944.81    912.25901 
   16000    297.85164   -1112.3379    279548.78    -75323.32    7556.3991   -82879.719     916.1835 
   16050    295.53912   -1003.1073    279747.92   -75332.211    7497.7312   -82829.943    918.40239 
   16100    298.01129   -1230.8909    279640.66   -75334.111    7560.4494    -82894.56    919.44548 
   16150    298.22484   -972.86856    279230.79   -75319.102    7565.8669   -82884.969    920.13855 
   16200    300.77189   -517.75046    278967.61   -75238.724    7630.4848   -82869.209    923.32881 
   16250    299.60846   -848.32482    279426.24   -75223.479    7600.9689   -82824.448    926.40978 
   16300    299.45858   -1280.7882    280016.97   -75188.317    7597.1666   -82785.484     930.7564 
   16350    298.58948   -1207.3473    280085.15   -75137.006    7575.1178   -82712.123    933.68353 
   16400    301.94425   -1093.6865    279803.11   -75191.067    7660.2273   -82851.295    934.83713 
   16450    302.14927   -1276.3001    279235.29   -75188.406    7665.4286   -82853.834    935.25896 
   16500    298.04928   -771.57114    278946.72   -75195.291    7561.4133   -82756.704    937.87719 
   16550    300.01946   -1159.1384    279424.99   -75265.536    7611.3961   -82876.932    940.43688 
   16600     292.9104     -1277.98    280074.73   -75230.777    7431.0415   -82661.818    944.75258 
   16650     298.5526   -1328.1715     280003.5   -75278.487    7574.1823    -82852.67    946.69012 
   16700    299.53076    -1243.476    279552.55   -75253.666    7598.9979   -82852.664    946.44842 
   16750    298.45051    -680.6159    279297.75    -75229.22    7571.5923   -82800.812    948.02333 
   16800    300.71174   -1129.8893    279545.64    -75188.31    7628.9588   -82817.269    951.02862 
   16850    299.42048   -939.72896    279917.36   -75162.925    7596.2001   -82759.125    953.59074 
   16900    298.72456   -1372.8276    280133.74   -75174.147    7578.5447   -82752.692    956.45735 
   16950    300.05418   -999.83482    279685.21   -75177.183    7612.2769    -82789.46    959.72123 
   17000    297.15429   -1034.0886    279263.51   -75196.219    7538.7075   -82734.927     960.3323 
   17050    301.39756   -1053.4319    279110.44   -75180.488    7646.3579   -82826.846    963.06385 
   17100    301.93244   -584.66682    279294.51    -75170.67    7659.9276   -82830.598    967.02999 
   17150    294.97602   -1102.8237    279921.86   -75172.086    7483.4457   -82655.532    971.89976 
   17200    300.62982   -1155.9924    280323.44   -75189.886    7626.8807   -82816.767    977.03011 
   17250    297.15669   -1336.0541    280371.64   -75203.397    7538.7685   -82742.165    980.42182 
   17300    299.80678   -1195.7641    279886.14   -75229.357    7606.0004   -82835.357    983.22986 
   17350    294.45318   -936.51587    279145.79   -75257.713    7470.1813   -82727.894    983.45875 
   17400    300.51843   -720.56394       278800   -75279.779    7624.0546   -82903.833    985.62031 
   17450     300.0437   -989.12039    279333.07   -75267.595    7612.0109   -82879.606     990.7632 
   17500    292.24514   -1062.8065    279751.19   -75324.504    7414.1641   -82738.669    994.43006 
   17550    301.83064   -1133.5045    279635.99   -75328.132    7657.3451   -82985.477    998.78506 
   17600    297.67628   -910.40123    279370.58   -75336.965    7551.9504   -82888.916    1001.4302 
   17650    295.96458   -827.24197    279099.16   -75313.526    7508.5251   -82822.051    1005.0263 
   17700    296.17262   -716.53472    279001.43   -75347.146    7513.8029   -82860.948    1009.6359 
   17750    296.60817   -1092.4753    279378.31   -75359.279    7524.8528   -82884.132    1013.8304 
   17800    292.93217   -952.49117    279760.23   -75372.691    7431.5939   -82804.285    1016.1943 
   17850    294.34734   -961.79502    280120.13   -75396.503    7467.4961   -82863.999    1019.3089 
   17900     298.3104   -1292.3948    280086.56   -75345.483    7568.0376   -82913.521    1022.3714 
   17950    297.57741   -954.95795    279586.08   -75392.846     7549.442   -82942.288    1024.5833 
   18000    299.95506   -854.20371    279234.54   -75393.826    7609.7622   -83003.588    1026.8136 
   18050    292.41971   -1215.4136     279458.6   -75433.376    7418.5928   -82851.969    1029.5904 
   18100    294.10812   -984.66289    279558.99   -75433.287    7461.4273   -82894.715    1033.2865 
   18150    295.33734   -812.08709       279369   -75449.131    7492.6121   -82941.743    1036.3537 
   18200    293.56023   -887.04298    279342.11   -75443.048    7447.5276   -82890.576     1038.458 
   18250    294.69389   -928.85613    279368.06   -75475.579    7476.2881   -82951.867    1039.2508 
   18300    292.01808   -1217.5624    279342.93   -75451.806    7408.4037    -82860.21    1042.7053 
   18350    297.18988   -918.74794       279281   -75425.639    7539.6106   -82965.249    1043.6212 
   18400    295.34999   -889.79068    279245.46   -75460.111    7492.9331   -82953.045    1045.5929 
   18450     297.0602   -904.37715    279411.63    -75437.39    7536.3205   -82973.711    1048.6735 
   18500    295.30415   -1062.8073    279806.25    -75392.93      7491.77     -82884.7    1052.1462 
   18550    293.99585   -1062.5228    279720.79    -75360.91    7458.5791   -82819.489    1052.3848 
   18600    299.30503   -1047.0108    279143.84    -75376.22    7593.2711   -82969.491    1054.2715 
   18650    295.59809   -518.32755    278766.03   -75347.101    7499.2273   -82846.329    1055.4384 
   18700    294.07008   -958.67601    279199.62   -75277.719    7460.4621   -82738.181    1058.1102 
   18750    297.41998   -1022.3018    279669.27   -75256.923    7545.4481   -82802.371    1061.5395 
   18800    297.77417   -1184.6232    279935.54   -75189.628    7554.4338   -82744.062    1064.5366 
   18850    298.70731   -1128.7649    279914.69   -75202.971    7578.1072   -82781.078    1068.4654 
   18900     292.8163    -1215.047    279786.53    -75234.58    7428.6543   -82663.234     1069.103 
   18950    298.13169   -941.85173    279398.25   -75294.665    7563.5038   -82858.169    1069.7968 
   19000    297.39475   -1050.8126    279073.35   -75278.418    7544.8079   -82823.225    1072.1675 
   19050    297.43422   -736.28524    279136.63   -75306.591    7545.8093   -82852.401    1074.1902 
   19100     293.9503   -1062.8433    279821.52   -75275.742    7457.4234   -82733.165    1079.4217 
   19150     294.5475   -1201.4419    280269.91   -75250.841    7472.5741   -82723.416    1082.9613 
   19200    296.23414   -1109.9039     280142.7   -75236.384    7515.3637   -82751.748    1085.3532 
   19250    298.95449   -924.22951    279562.91   -75232.136    7584.3781   -82816.514    1087.7765 
   19300    303.83135   -813.71179    278979.59   -75246.204    7708.1025   -82954.307    1088.5889 
   19350    298.42943   -645.26614    279004.75   -75230.248    7571.0575   -82801.306    1089.7327 
   19400    300.09389   -1001.8576    279623.71   -75201.071    7613.2844   -82814.355    1092.7771 
   19450    299.16323   -1247.4749    280105.02   -75165.582    7589.6737   -82755.256     1096.737 
   19500    298.15518   -1041.5904    280256.65   -75154.755    7564.0999   -82718.855    1099.4315 
   19550    293.36124   -968.07599    280055.58   -75199.155    7442.4791   -82641.635    1100.1719 
   19600    297.97059   -1032.3987    279751.38   -75218.539    7559.4169   -82777.956     1103.128 
   19650    292.56143   -731.97814    279351.53   -75207.024    7422.1882   -82629.213    1106.1936 
   19700    301.84158    -931.1038    278968.92   -75224.169    7657.6226   -82881.792    1108.8204 
   19750    298.09506   -690.51458    279107.84   -75205.423    7562.5747   -82767.998     1112.144 
   19800    295.08417   -1114.7029    279824.39   -75182.178    7486.1892   -82668.367    1117.4906 
   19850    299.39655   -1179.7357    280351.74   -75181.511    7595.5929   -82777.104    1122.1126 
   19900    302.70284   -1111.7302     280228.9   -75160.873    7679.4725   -82840.345    1125.1106 
   19950    299.90587   -1001.1599    279548.37   -75183.556    7608.5142    -82792.07     1124.739 
   20000    303.09196   -892.88409    278759.37   -75207.564    7689.3444   -82896.908    1125.5697 
   20050    301.01775   -725.11205    278967.11   -75228.548    7636.7223    -82865.27    1128.7388 
   20100    298.73185   -1257.5287    279851.09   -75238.764    7578.7299   -82817.494    1134.7285 
   20150    296.81159   -1020.8294    280130.32   -75289.062    7530.0134   -82819.075    1138.3282 
   20200    294.88844   -987.57127    280031.27   -75267.265    7481.2236   -82748.489    1141.1599 
   20250    297.25635   -1092.3109    279618.86   -75269.975    7541.2967   -82811.271     1143.232 
   20300    299.58197   -782.12824    278985.08   -75278.468     7600.297   -82878.765    1143.1052 
   20350    300.26021   -693.99494    278876.77   -75240.834    7617.5038   -82858.338    1145.8407 
   20400    296.32728   -1011.3021    279690.41   -75227.396    7517.7266   -82745.123    1150.8407 
   20450    295.68884   -1147.2057    280444.45   -75227.363    7501.5297   -82728.892     1156.472 
   20500    301.38116   -1368.3665    280371.15   -75256.012     7645.942   -82901.954    1159.6016 
   20550    295.89263   -961.27017    279663.97   -75236.138    7506.6997   -82742.838    1161.5731 
   20600    298.29495   -895.93039    279241.55   -75232.382    7567.6457   -82800.028    1162.7808 
   20650    297.67733   -845.30357    279158.48     -75261.2    7551.9769   -82813.177    1165.0045 
   20700    295.78993   -765.37314    279350.61   -75272.821    7504.0942   -82776.915     1169.457 
   20750    298.88867   -1081.5311    279816.02   -75226.624    7582.7081   -82809.332    1173.7529 
   20800    298.60633   -1161.1662    280127.43   -75253.625    7575.5455   -82829.171     1178.351 
   20850    295.94179   -1138.2379    280048.44   -75218.136    7507.9468   -82726.083    1179.7305 
   20900    299.11874   -644.63834    279564.88   -75224.103     7588.545   -82812.648    1179.7722 
   20950    297.93424   -1109.9638    279281.51   -75264.348    7558.4946   -82822.842    1181.4096 
   21000    298.52588   -512.67573    279194.66   -75243.891    7573.5044   -82817.396    1183.8049 
   21050    301.19938   -1208.4092    279764.04    -75262.12    7641.3301    -82903.45    1187.5007 
   21100    295.33244   -1047.3362    280097.52   -75253.388    7492.4879   -82745.876    1192.6775 
   21150    300.26957      -1126.2    280059.53   -75255.649    7617.7411    -82873.39    1192.9887 
   21200    301.25095   -1321.7276     279818.5   -75234.574    7642.6384   -82877.213    1194.8218 
   21250    294.65378   -812.89758    279440.06     -75251.3    7475.2704    -82726.57     1195.027 
   21300    300.05817   -856.55385    279433.09   -75248.303    7612.3779   -82860.681    1196.0705 
   21350    296.59817   -1127.1296    279651.39   -75247.503     7524.599   -82772.102    1198.9917 
   21400    299.00292   -1033.4691    279785.25   -75238.484    7585.6068   -82824.091    1200.8747 
   21450    301.94856   -991.35493    279935.11   -75189.219    7660.3366   -82849.556    1202.0049 
   21500    297.41251   -1012.7083    279776.88   -75192.808    7545.2585   -82738.066    1204.4959 
   21550    298.23263   -766.78618    279592.26    -75173.49    7566.0648   -82739.555    1206.7872 
   21600    298.89845   -1136.1189    279651.85   -75157.107    7582.9563   -82740.063     1208.538 
   21650    295.82471   -981.30757    279565.19   -75108.112    7504.9765   -82613.088    1209.5817 
   21700    304.22326   -910.08014    279467.81   -75080.386     7718.045   -82798.431    1212.1221 
   21750    296.63436   -924.21029    279848.36   -75103.538    7525.5172   -82629.055     1218.617 
   21800    299.32109   -1230.1502    280289.62   -75066.744    7593.6785   -82660.422    1222.2419 
   21850    302.93465   -1078.1517    280303.51   -75049.981    7685.3535   -82735.334    1223.2092 
   21900    299.00683    -1038.174    280033.02   -75071.175    7585.7058   -82656.881    1226.6634 
   21950    302.93939   -1069.2515    279577.11   -75081.783    7685.4738   -82767.257    1228.7294 
   22000    297.77297   -886.70642    279373.02   -75084.715    7554.4032   -82639.119    1229.8746 
   22050    306.18898   -1174.4198    279408.08    -75055.51    7767.9147   -82823.425    1233.1567 
   22100      303.066   -922.68694    279683.45   -75046.655    7688.6858    -82735.34    1237.3636 
   22150    300.93444    -769.0895    280077.77   -75060.794    7634.6088   -82695.403    1241.0166 
   22200    300.10287   -1156.6858    280361.48   -75000.923    7613.5121   -82614.435    1243.0079 
   22250    302.90832   -930.18999    279882.38   -75003.893    7684.6855   -82688.578    1242.6417 
   22300    302.62608   -708.23645    279432.65    -74945.44     7677.525   -82622.965    1244.4126 
   22350    302.65559   -769.68184    279497.71   -74958.977    7678.2737   -82637.251    1245.8817 
   22400    300.24414   -893.47876    279915.12   -74984.372     7617.096   -82601.468    1247.9811 
   22450     300.6176   -1426.8515    280216.76   -74978.064    7626.5707   -82604.635    1252.9623 
   22500    300.95187   -902.00965    280111.51   -74949.573     7635.051   -82584.625     1255.333 
   22550    307.10841    -882.6828     280010.9   -74960.945    7791.2403   -82752.185    1258.4736 
   22600    303.80006    -910.1421    280002.87   -75021.696    7707.3087   -82729.005    1260.9018 
   22650    305.44196   -1180.5403    280052.71   -74989.878     7748.963   -82738.841    1264.4414 
   22700    299.76955   -1012.4073    279840.75    -75015.39     7605.056   -82620.446    1266.9701 
   22750     309.0215   -929.15418    279561.33   -75015.668    7839.7747   -82855.442    1268.9968 
   22800    303.74701   -765.67298     279499.5   -75033.982    7705.9627   -82739.944    1271.1162 
   22850    300.15261   -856.22877    279691.19   -75038.762     7614.774   -82653.536    1274.9175 
   22900    301.05317   -958.01244    280028.42   -75065.328    7637.6209   -82702.949    1278.1071 
   22950    298.95446   -1326.7509     280234.8   -75081.036    7584.3773   -82665.413    1281.0034 
   23000    299.84701   -855.15622    280030.97    -75112.49     7607.021   -82719.511    1283.9683 
   23050     303.2913   -910.45454    279562.33   -75065.176    7694.4016   -82759.578    1282.8292 
   23100    307.35264   -1027.8936    279294.05   -75055.377    7797.4363   -82852.814    1286.1816 
   23150    301.05104   -808.10042    279574.77   -75062.823    7637.5668   -82700.389    1289.8349 
   23200    302.85627   -908.38029    280342.48   -75050.851     7683.365   -82734.216    1294.9889 
   23250    301.01178   -1245.2249    280735.42   -75062.728    7636.5708   -82699.298     1299.434 
   23300    303.96326   -1113.0648    279976.56    -75089.93    7711.4489   -82801.379    1299.1052 
   23350    297.47601   -977.21849    279010.93   -75107.945    7546.8695   -82654.814    1296.3485 
   23400    299.55605   -669.14958    278670.57   -75120.422    7599.6395   -82720.062    1298.9308 
   23450    299.12387   -997.29823       279175   -75126.665    7588.6752    -82715.34    1305.1491 
   23500    300.87423   -1131.3011    280102.69   -75160.687    7633.0812   -82793.768    1310.7817 
   23550    301.91073   -1333.9603    280683.56   -75141.739    7659.3769   -82801.116    1315.5856 
   23600    300.95479   -1179.7025    280393.18   -75115.118    7635.1251   -82750.243     1315.958 
   23650    298.21441   -900.77611    279564.76   -75090.909    7565.6025   -82656.511    1314.6883 
   23700    300.90515   -898.49428    279028.05   -75051.227    7633.8656   -82685.092    1315.6064 
   23750    302.21234   -775.96484    279122.58   -75052.539    7667.0286   -82719.567    1318.5374 
   23800     303.8626   -920.52494     279883.1   -75014.181    7708.8953   -82723.076    1321.7848 
   23850    302.07413   -1080.9589    280707.25   -75020.436    7663.5222   -82683.958    1326.5376 
   23900    301.01644   -1090.3947    280845.41   -75028.177     7636.689   -82664.866    1330.6091 
   23950    297.96036   -839.80047    280127.13   -75091.113    7559.1572   -82650.271    1330.7455 
   24000    301.63661   -853.40786    279260.01   -75118.858    7652.4227   -82771.281    1329.4797 
   24050    304.53422      -794.64    279069.35   -75088.617    7725.9339   -82814.551    1333.3856 
   24100    303.39109   -1184.3711    279577.15   -75042.338    7696.9332   -82739.272    1340.1985 
   24150    301.58618    -1157.638    280167.62   -75049.295    7651.1432   -82700.438    1343.2806 
   24200    298.35874   -963.03218    280063.36   -75070.856     7569.264    -82640.12    1345.4186 
   24250    299.61002    -921.0879    279580.39   -75104.432    7601.0087   -82705.441     1347.064 
   24300    299.20864   -889.35228    279145.35   -75081.161    7590.8258   -82671.987    1348.3483 
   24350    298.68617   -1008.2495    278988.05   -75103.333    7577.5709   -82680.904    1351.4189 
   24400    303.38647   -712.64059    279221.28   -75070.406     7696.816   -82767.222    1353.5771 
   24450    300.79271   -1089.2648     279834.2   -75140.585     7631.013   -82771.598    1359.3804 
   24500    296.08189   -1136.5975    280430.71   -75133.588     7511.501   -82645.089     1363.555 
   24550    297.18332   -1005.4716    280655.73   -75102.941    7539.4441   -82642.385    1366.5634 
   24600    301.36367   -1355.2824     280119.8   -75095.736    7645.4982   -82741.234    1367.4752 
   24650     300.5239   -650.18658    279201.67    -75097.77    7624.1936   -82721.964    1364.9897 
   24700    303.57596   -711.51687    279158.07   -75050.219    7701.6232   -82751.843    1367.2769 
   24750    301.72689   -975.26626    279849.64   -75029.105    7654.7129   -82683.818     1371.673 
   24800    298.95137   -1185.1794    280414.81   -74953.707     7584.299   -82538.006    1374.7458 
   24850    304.72616   -1175.4399       280472   -74925.098    7730.8034   -82655.901    1377.5888 
   24900    305.14975   -971.50371     279946.8   -74911.113    7741.5499   -82652.663     1377.996 
   24950    305.32085   -776.98707     279539.7   -74963.877    7745.8906   -82709.767    1381.0217 
   25000    303.99657   -1150.0974    279650.63   -75004.011     7712.294   -82716.305    1383.8214 
   25050    300.87903   -765.72762    279744.84   -75032.566    7633.2031   -82665.769    1387.7768 
   25100    304.98152   -954.36145    280045.46   -74985.788    7737.2818    -82723.07    1391.8112 
   25150    305.69204   -1291.9075    280152.27   -75014.006    7755.3075   -82769.313    1394.1096 
   25200    303.13432   -739.87371    279737.93   -75046.702     7690.419   -82737.121    1396.7209 
   25250    305.35812   -1125.4832    279358.87   -75107.137    7746.8362   -82853.974    1398.5482 
   25300    301.83191   -1157.3474    279420.58   -75154.902    7657.3772   -82812.279    1400.0304 
   25350    300.51919   -1481.4148    280114.51   -75193.687     7624.074   -82817.761    1403.2762 
   25400     297.7933   -920.00992    280299.99   -75212.789    7554.9191   -82767.708    1404.5543 
   25450    297.23451   -1277.9301    279964.29   -75160.122    7540.7426   -82700.864    1405.3467 
   25500    303.25025   -1078.9998    279038.21   -75178.777      7693.36   -82872.137    1404.2553 
   25550    300.26712   -826.69624     278519.1    -75228.91     7617.679   -82846.589    1405.0853 
   25600    295.68133   -827.77749    278980.38   -75235.927     7501.339   -82737.266    1406.9392 
   25650    299.25596   -1213.7909    279802.48   -75235.692    7592.0262   -82827.718    1412.2812 
   25700     301.9325   -1261.1142    280087.47   -75206.387    7659.9291   -82866.316    1417.4151 
   25750    293.83272   -1365.8212    280033.15   -75198.515    7454.4403   -82652.956      1420.98 
   25800    298.22901   -1179.8809    279616.72   -75216.128    7565.9728     -82782.1    1421.7528 
   25850    297.75792   -584.60133    279273.26   -75210.646    7554.0216   -82764.668    1424.0964 
   25900    303.22029     -1303.94    279610.96   -75158.158       7692.6   -82850.758    1427.8404 
   25950    296.00927   -1095.6216    280037.61   -75184.016    7509.6589   -82693.675    1432.0519 
   26000     298.2565   -837.22992    280003.49   -75162.752    7566.6703   -82729.422    1432.9739 
   26050    294.67739   -662.26418     279709.6   -75249.756    7475.8693   -82725.625    1433.8524 
   26100    299.44173   -1199.0792    279518.18   -75279.072    7596.7393   -82875.811    1433.2494 
   26150    297.00465   -764.57528    279275.27   -75286.284    7534.9112   -82821.195    1432.0834 
   26200     297.4281   -923.56006    279196.41   -75279.418     7545.654   -82825.072    1435.5335 
   26250    299.34942   -999.41402    279259.28   -75265.532    7594.3973    -82859.93    1438.2227 
   26300    299.68936   -1201.3146    279859.01   -75286.135    7603.0214   -82889.157    1443.2105 
   26350    298.74577    -1040.841    280061.11   -75295.814    7579.0828   -82874.897    1445.9231 
   26400    297.82481   -1086.4245    279766.97    -75295.39    7555.7185   -82851.109    1446.2047 
   26450    295.56923   -921.35652    279292.28   -75256.072    7498.4951   -82754.567    1448.2184 
   26500    291.43541   -700.94903    279058.15   -75259.272    7393.6214   -82652.894     1451.739 
   26550    301.72911   -1115.0531    279257.72   -75252.064    7654.7693   -82906.834    1456.4695 
   26600    301.42023   -1062.7452    279661.26   -75258.518     7646.933   -82905.451     1460.522 
   26650    294.16643   -857.55083    279967.82    -75237.77    7462.9064   -82700.677    1464.5279 
   26700    295.04785   -984.92842    279998.51     -75197.2    7485.2678   -82682.468    1465.5911 
   26750    304.63082   -1063.9128    279729.18   -75213.269    7728.3846   -82941.653    1466.5892 
   26800    302.63324   -1291.1196    279452.02    -75275.15    7677.7067   -82952.856    1468.1569 
   26850    296.39314   -1013.1987    279139.68   -75268.606    7519.3975   -82788.003     1469.303 
   26900    298.85004   -614.02951    278969.45   -75231.239    7581.7281   -82812.967    1471.7671 
   26950    296.52184    -1044.752    279232.74   -75260.599    7522.6626   -82783.261    1475.4606 
   27000    297.62429   -907.23525    279615.95   -75256.489    7550.6313    -82807.12    1479.5074 
   27050    295.09172   -861.93354    279942.06   -75268.332    7486.3808   -82754.713    1483.1968 
   27100    296.31225   -994.94957    279885.74   -75236.097    7517.3453   -82753.442     1485.987 
   27150    298.88617   -1014.2879    279693.48   -75262.061    7582.6447   -82844.705    1488.0821 
   27200    294.06398   -859.28688     279325.4   -75241.688    7460.3074   -82701.995     1488.673 
   27250    305.42851   -957.13966    278888.93    -75243.13    7748.6217   -82991.752    1489.6311 
   27300    296.75431   -919.41085    279060.04   -75242.296    7528.5601   -82770.856    1492.1908 
   27350    297.55814   -1153.8077     279726.4   -75205.087    7548.9532    -82754.04    1497.0708 
   27400    301.28979   -1244.1808    280130.39   -75153.326    7643.6239    -82796.95    1501.1364 
   27450    294.26136   -975.96641    279982.12   -75175.385    7465.3149     -82640.7    1503.2542 
   27500    294.86651   -1004.5534    279693.49   -75161.532    7480.6672   -82642.199    1505.1986 
   27550    298.10438   -1063.9246     279484.9   -75161.284     7562.811   -82724.095    1508.9107 
   27600    300.19685    -1057.774    279580.04   -75166.822    7615.8962   -82782.718    1511.4853 
   27650    298.94223   -897.50425    279929.01   -75184.862    7584.0669   -82768.929    1515.7074 
   27700    298.87261   -1014.9785    280296.85   -75196.527    7582.3009   -82778.828    1520.0456 
   27750    298.98149    -1018.594    280095.07    -75159.09     7585.063   -82744.153    1521.8527 
   27800    297.27667   -867.21138    279785.13   -75176.331    7541.8124   -82718.143    1521.3138 
   27850    297.76413   -1052.3912    279672.52   -75130.201    7554.1789    -82684.38    1522.6869 
   27900    297.28398   -865.24148    279510.16   -75163.491    7541.9977   -82705.489    1525.0464 
   27950    298.10896     -999.829    279582.19    -75171.95    7562.9273   -82734.877    1528.7218 
   28000    296.42787   -1148.5929    279646.81    -75166.93    7520.2784   -82687.208     1530.207 
   28050    295.07118    -962.6141    279793.09   -75146.222    7485.8598   -82632.082    1532.7341 
   28100    301.01853   -1131.8489     279959.1   -75173.552     7636.742   -82810.294    1535.9681 
   28150    301.51975   -1032.3312    279769.45   -75157.173    7649.4579   -82806.631    1536.6511 
   28200    301.40028   -1003.1534    279645.71   -75162.979     7646.427   -82809.406    1539.3303 
   28250    302.35161   -885.42627    279441.99   -75226.448     7670.562   -82897.009    1543.1506 
   28300    298.37356   -1121.3912    279492.13   -75219.921      7569.64   -82789.561    1546.7064 
   28350    304.36773    -879.0664    279531.46   -75217.327    7721.7102   -82939.037    1549.6742 
   28400    298.31306   -1081.2887    279778.28   -75166.548    7568.1051   -82734.653    1553.2137 
   28450    300.26559   -755.60059    279596.22   -75166.218    7617.6401   -82783.859    1554.0515 
   28500    299.74411   -1082.8877    279540.11   -75164.481    7604.4103   -82768.892    1554.9234 
   28550    301.22295   -810.63952    279448.63   -75193.792    7641.9281    -82835.72    1556.0455 
   28600    298.12921   -1318.5629    279441.77   -75172.529     7563.441    -82735.97    1559.3145 
   28650    296.75439   -700.13203    279279.36   -75201.752    7528.5623   -82730.314    1560.6523 
   28700    301.05765    -1187.819    279470.52   -75204.192    7637.7344   -82841.926    1562.4609 
   28750    296.14612   -1372.7991    279784.68   -75204.069    7513.1307   -82717.199    1565.5245 
   28800     299.0409   -1385.1486     279752.9   -75224.651    7586.5702   -82811.221    1566.7526 
   28850    297.66828   -942.66596    279527.67   -75204.779    7551.7474   -82756.527    1568.4645 
   28900    300.99965    -1356.427    279384.77   -75253.368     7636.263   -82889.631    1567.7124 
   28950    296.09732   -914.06821     279253.4   -75277.368    7511.8926   -82789.261    1568.8412 
   29000     298.7353    -995.9495    279674.11   -75302.676    7578.8173   -82881.493    1571.0231 
   29050    292.83368   -1117.5353    279993.42    -75286.78    7429.0952   -82715.875    1575.3125 
   29100    296.47203   -979.70879    279585.43    -75322.72    7521.3987   -82844.118    1575.1274 
   29150    299.67032   -876.04939    278949.81   -75334.026    7602.5383   -82936.564    1575.3635 
   29200    296.96438   -785.48947     278736.2    -75345.13    7533.8895    -82879.02    1575.4416 
   29250    295.10847   -891.41187    279170.83   -75350.716    7486.8058   -82837.521    1581.4861 
   29300     291.6654   -1168.2978    279651.16   -75358.875    7399.4561   -82758.331    1584.0662 
   29350    297.60396   -785.22633    279631.59   -75356.636    7550.1156   -82906.752    1587.6063 
   29400    291.68933    -799.9844    279539.04   -75322.433    7400.0634   -82722.496      1589.99 
   29450    298.09429   -1028.3335    279665.74   -75291.785    7562.5552   -82854.341    1592.0552 
   29500    296.22725   -1075.2816    279887.24    -75267.52    7515.1889   -82782.709      1595.79 
   29550    295.01187   -1011.0731    279789.14   -75217.513    7484.3549   -82701.868     1598.471 
   29600    299.82432   -1089.9737    279406.24   -75226.666    7606.4455   -82833.111    1597.8902 
   29650    296.12667   -900.55826    279117.14   -75204.593    7512.6371    -82717.23    1596.5299 
   29700    300.51552   -708.41741    279226.17   -75211.367    7623.9808   -82835.347     1598.315 
   29750    299.65622   -1151.6949    279616.37    -75159.34    7602.1806    -82761.52    1602.8954 
   29800    303.59946   -972.28595    279903.06   -75130.011    7702.2194    -82832.23    1606.5756 
   29850    302.40319   -1342.6577    280169.69   -75083.581    7671.8704   -82755.452    1609.9059 
   29900     298.6803   -1251.9466    279940.72   -75092.436     7577.422   -82669.858    1608.9268 
   29950    297.22655   -993.61099    279307.62   -75105.393    7540.5407   -82645.934     1609.079 
   30000    301.47114   -959.79327    279075.91   -75091.324    7648.2245   -82739.548    1611.6637 
   30050    299.60561   -567.85026    279229.67   -75077.478    7600.8969   -82678.375    1614.7886 
   30100    302.10528    -1013.412    280015.06   -75085.641    7664.3126   -82749.954    1619.9686 
   30150    299.75354   -1351.0072    280442.03   -75069.378    7604.6496   -82674.027    1625.2043 
   30200     295.9126   -575.12204    280147.08   -75102.499    7507.2063   -82609.705    1625.9553 
   30250    302.64925    -1240.314    279805.16   -75131.896    7678.1128   -82810.009    1628.4761 
   30300    298.13665   -673.58262    279175.87   -75185.096    7563.6297   -82748.726    1627.2026 
   30350    300.66671   -776.12818    279154.52   -75214.789    7627.8164   -82842.606    1630.8126 
   30400    297.48981   -1028.7253    279423.74   -75234.118    7547.2195   -82781.337    1636.4119 
   30450    300.20825   -1146.7892    279755.29   -75262.851    7616.1856   -82879.036    1639.9872 
   30500    301.31883   -1072.5853    279843.54    -75256.44    7644.3605   -82900.801    1642.7446 
   30550    299.38011   -779.07883    279838.01   -75189.413    7595.1758   -82784.589    1645.5014 
   30600    299.78179   -1088.4757    279780.85   -75161.219    7605.3663   -82766.585    1646.4418 
   30650    300.10558   -910.26469    279443.17   -75115.066    7613.5807   -82728.647    1646.1498 
   30700    305.04212   -1128.4744    279125.96   -75122.059    7738.8193   -82860.878    1646.2513 
   30750      295.795   -839.14329     279409.5   -75104.399    7504.2229   -82608.622    1649.2195 
   30800    303.04522   -1033.7853    280057.53   -75100.946    7688.1586   -82789.105    1654.4221 
   30850    305.20611   -1247.3383    280304.64   -75059.108    7742.9795   -82802.087    1658.5752 
   30900    303.79191   -1133.2542    280124.61   -75043.833    7707.1017   -82750.934     1660.358 
   30950    308.35346   -1383.7092     279598.9   -75090.888    7822.8267   -82913.715    1661.1569 
   31000     304.0963   -846.40722    279143.32   -75106.034    7714.8241   -82820.859    1662.0045 
   31050    294.11012   -742.19603     279273.4   -75126.757    7461.4779   -82588.235    1663.8636 
   31100    304.82857   -1134.2279    279625.78   -75101.937    7733.4016   -82835.338    1667.3282 
   31150    302.82086   -1085.4167    280049.71   -75067.012    7682.4665   -82749.479    1673.3738 
   31200    305.83673   -1228.6906    280324.09   -75097.916    7758.9781   -82856.894    1678.3011 
   31250    300.49339   -1159.3048    280096.24     -75119.5    7623.4194   -82742.919     1680.861 
   31300    303.05389   -1252.8676    279593.89   -75112.073    7688.3785   -82800.451    1682.4714 
   31350    301.34872   -790.76798    279117.63   -75132.619    7645.1188   -82777.738    1684.2318 
   31400     301.4209   -859.92054    279235.41   -75142.014    7646.9501   -82788.964    1687.4208 
   31450    303.45881   -1414.1402    279804.06   -75143.494    7698.6512   -82842.145    1695.8074 
   31500    294.77244   -868.75319    280104.35   -75178.204    7478.2808   -82656.484    1699.5614 
   31550    294.52213   -1210.1709    280380.08   -75243.616    7471.9306   -82715.546    1702.2299 
   31600    299.99503   -1090.9797    280141.17   -75197.114    7610.7762    -82807.89    1704.6408 
   31650    301.96931    -892.5355    279690.69   -75177.495    7660.8629   -82838.358    1706.1114 
   31700    302.23261   -982.44606    279501.57   -75148.719    7667.5428   -82816.262    1708.1711 
   31750    302.60004   -860.38217    279370.46   -75120.592    7676.8646   -82797.457    1708.5615 
   31800    300.25967   -939.78711    279439.95   -75177.869    7617.4899   -82795.359    1712.0046 
   31850    297.93464   -651.20377    279716.21   -75158.068    7558.5049   -82716.573    1713.6775 
   31900    301.41789   -983.30415    280176.46   -75137.037    7646.8738   -82783.911    1716.7273 
   31950    301.73188   -1015.4283    280187.58   -75120.012    7654.8396   -82774.852      1718.79 
   32000    303.97085   -897.98337    279854.53   -75114.143    7711.6415   -82825.784    1721.0922 
   32050    304.90766   -1321.1612    279521.88   -75147.555     7735.408   -82882.963    1723.4551 
   32100      301.892   -856.11214     279082.4   -75170.724    7658.9018   -82829.625    1725.6067 
   32150    293.77111   -815.83664    279124.63   -75203.229    7452.8773   -82656.107    1728.0082 
   32200    295.87776   -1078.9834    279414.54   -75208.227    7506.3225   -82714.549    1731.7703 
   32250    297.02593   -1022.2799    279696.33    -75132.52    7535.4511   -82667.971    1734.6712 
   32300    297.66764   -1458.2306    280047.87   -75121.718    7551.7311   -82673.449     1742.208 
   32350     300.6653   -1242.4437    279799.67    -75168.54    7627.7808   -82796.321    1746.1545 
   32400    298.52422   -1000.2572    279427.24   -75218.586    7573.4623   -82792.049    1749.4284 
   32450    297.94307   -969.98208    279301.79   -75164.898    7558.7185   -82723.616    1751.5791 
   32500     305.2923   -1221.9991    279470.34   -75142.396    7745.1662   -82887.563     1754.777 
   32550    301.08171   -1130.5541    279716.87   -75129.963     7638.345   -82768.308    1761.0773 
   32600    299.37378    -1041.405    279919.09   -75149.477    7595.0153   -82744.492    1766.5673 
   32650    301.75265   -1089.2805    279704.51   -75149.234    7655.3663   -82804.601    1768.0251 
   32700    304.23009   -1094.7007    279360.97   -75159.653    7718.2183   -82877.871    1769.2997 
   32750    302.85127   -805.30616    279315.89   -75178.635     7683.238   -82861.873    1770.9406 
   32800    302.71191   -994.11254    279671.83   -75144.708    7679.7027   -82824.411    1773.4824 
   32850    303.99615   -880.36331     279959.3     -75134.4    7712.2834   -82846.683    1777.7018 
   32900    302.00103   -793.60713    280072.69   -75108.176    7661.6678   -82769.844    1784.0557 
   32950    300.64371   -1027.7006    280135.63   -75126.139     7627.233   -82753.372    1786.5452 
   33000    299.48708   -1064.8694    279935.42   -75135.908    7597.8896   -82733.798     1788.509 
   33050    300.14667   -991.37983     279521.6   -75128.165    7614.6232   -82742.788      1791.01 
   33100    298.96478   -922.56057    279323.84   -75132.141    7584.6391    -82716.78    1793.4131 
   33150    305.65388    -761.5729    279092.71   -75124.892    7754.3395   -82879.231    1795.6907 
   33200    295.16038   -806.40711    279454.95   -75139.225    7488.1227   -82627.347     1800.698 
   33250    302.73812   -1010.2927    280155.03   -75089.353    7680.3675    -82769.72    1808.9101 
   33300    305.15346   -1146.0369    280377.09   -75060.488    7741.6439   -82802.132    1811.0265 
   33350    292.86491   -879.21261    279864.16   -75057.242    7429.8875   -82487.129    1809.6863 
   33400    297.48999    -1160.052    279373.02   -75070.974    7547.2243   -82618.199    1809.5258 
   33450    300.94971   -717.57172    278964.51   -75050.857    7634.9961   -82685.853    1812.4234 
   33500    300.17625   -954.49163    279382.72   -75005.257    7615.3738    -82620.63    1819.4247 
   33550    306.35382   -1039.5296    280122.86   -74938.743    7772.0967    -82710.84     1827.158 
   33600    298.83797   -1372.5008    280554.88   -74937.958    7581.4219    -82519.38    1831.6953 
   33650    300.97808   -1087.5891    280416.32   -74937.207    7635.7158   -82572.923    1833.3864 
   33700    304.17381   -881.56427    279921.34   -74961.865    7716.7905   -82678.655    1835.0541 
   33750    301.20188   -851.90858    279554.25   -75009.791    7641.3935   -82651.184    1836.4096 
   33800    303.15405   -873.33646    279423.29   -75045.299    7690.9196   -82736.219    1839.0027 
   33850    304.70215   -1184.8263    279553.92   -75091.056    7730.1942    -82821.25     1843.259 
   33900    299.76491   -1013.5378    279591.91   -75081.601    7604.9381   -82686.539    1845.8268 
   33950    305.43177   -805.50511    279707.07    -75078.17    7748.7047   -82826.875    1848.4064 
   34000    303.25062   -1020.2697    279855.66   -75078.207    7693.3695   -82771.577    1851.7592 
   34050    299.41708   -1251.2152    280085.76   -75115.461    7596.1138   -82711.575    1855.4069 
   34100    299.84664   -997.93111    279884.03   -75130.528    7607.0116   -82737.539    1856.7313 
   34150    299.14922   -831.98575    279372.86   -75168.373    7589.3184   -82757.691    1856.5523 
   34200    302.20045   -876.33427    279295.06   -75151.288     7666.727   -82818.015    1859.7029 
   34250    296.62649   -1342.2411    279509.38   -75229.864    7525.3176   -82755.182    1863.6054 
   34300    297.06232   -759.37369    279499.39   -75254.988    7536.3743   -82791.363    1865.5351 
   34350    299.95531   -939.47561    279754.71   -75235.347    7609.7685   -82845.116    1868.0498 
   34400     298.9534   -1297.3483     280023.1    -75274.25    7584.3505   -82858.601    1870.0545 
   34450    294.44516   -1171.5517    279805.38   -75235.986    7469.9779   -82705.963    1868.7832 
   34500       303.54   -1163.5726     279316.9   -75278.575     7700.711   -82979.286    1865.9764 
   34550     300.4654   -769.85906    279037.22    -75230.99    7622.7094   -82853.699    1865.8585 
   34600    299.35165   -816.91887    279356.63   -75210.552    7594.4538   -82805.006    1868.3512 
   34650    300.62441   -1080.5303     280060.4   -75204.495    7626.7434   -82831.238    1874.4031 
   34700    296.13601   -1191.0346    280462.15   -75171.832    7512.8741   -82684.706    1879.2853 
   34750    295.40695   -994.87545    280027.23   -75278.165    7494.3781   -82772.543    1880.6209 
   34800    297.29263   -788.36647    279232.73   -75271.123    7542.2172    -82813.34    1880.3977 
   34850    296.93983   -548.12142     278696.7   -75304.734    7533.2667   -82838.001    1880.8049 
   34900    295.73168   -998.41312    278795.95   -75279.664    7502.6165   -82782.281    1884.6143 
   34950    293.68893   -948.23213    279234.21   -75294.045    7450.7924   -82744.837    1888.8941 
   35000     298.3462   -942.51395    279879.91   -75267.989    7568.9459   -82836.935    1894.9835 
   35050    295.86708   -1052.8775    280159.02   -75295.549    7506.0515   -82801.601    1898.5749 
   35100    296.02206   -1081.1431    279899.19   -75288.244    7509.9832   -82798.227    1901.1932 
   35150    294.70606     -839.009    279408.23   -75284.046    7476.5969   -82760.643    1902.9787 
   35200    301.27495   -1116.3288    279184.03   -75269.426    7643.2474   -82912.673    1905.6303 
   35250    297.04067   -1084.0861    279346.72   -75275.385     7535.825    -82811.21    1908.7638 
   35300    303.75846   -963.62048    279669.88   -75212.809    7706.2532   -82919.062    1914.1083 
   35350    299.39909   -1164.0006    279879.53   -75200.017    7595.6573   -82795.674    1919.0105 
   35400    298.48031   -970.46523    279928.82   -75172.956    7572.3481   -82745.305     1923.659 
   35450     294.8351   -952.26299    279581.12   -75206.154    7479.8704   -82686.024    1925.9523 
   35500    303.35253   -915.44232    278985.15    -75225.83     7695.955   -82921.785    1925.6384 
   35550    299.41935    -666.9792    278972.18   -75232.761    7596.1714   -82828.932    1926.9626 
   35600    298.06772   -863.99855    279684.64   -75170.092    7561.8809   -82731.973    1931.2028 
   35650    297.99725   -1125.2539    280412.45   -75154.369    7560.0933   -82714.462    1937.4785 
   35700    299.36792   -1179.3317    280124.88    -75173.41    7594.8666   -82768.276    1939.4628 
   35750    296.76945   -703.99468    279341.88   -75157.839    7528.9443   -82686.783    1938.0766 
   35800    299.59986   -942.71422    279028.48   -75160.383    7600.7509   -82761.134    1940.1417 
   35850    297.53242   -801.72261     279117.5   -75160.541    7548.3007   -82708.841     1946.531 
   35900    299.11132   -949.61269    279370.49   -75110.771    7588.3568   -82699.128    1951.7424 
   35950    300.25896   -1380.7758    279970.08    -75130.81     7617.472   -82748.282    1958.9818 
   36000    297.94475   -1064.7396    280334.51   -75114.546    7558.7613   -82673.307    1963.6356 
   36050    296.47492   -1234.6131    280449.12   -75169.007    7521.4721   -82690.479    1966.5479 
   36100    295.73556   -999.56948    279953.41   -75120.549    7502.7147   -82623.263    1967.4223 
   36150     299.2332   -959.52325    279023.52    -75151.71    7591.4489   -82743.159    1967.8676 
   36200    298.73228    -763.4376    278740.01   -75187.733    7578.7407   -82766.474    1969.3636 
   36250    298.88532   -749.88633    279227.24   -75202.508    7582.6232   -82785.132    1975.3276 
   36300    296.63819   -1069.2465    279922.54   -75199.499    7525.6143   -82725.113    1981.2598 
   36350    293.25049   -1196.9757    280025.46   -75212.764    7439.6693   -82652.433    1986.1327 
   36400    303.37015   -1162.3629    279568.17   -75222.358    7696.4019    -82918.76     1988.101 
   36450    303.07731   -1009.4526    279064.25   -75177.775    7688.9727   -82866.747    1985.7928 
   36500    300.27319   -594.40419    279130.84   -75119.897    7617.8331    -82737.73     1991.164 
   36550    301.04874   -1206.2058    279600.79   -75130.376    7637.5085   -82767.884    1996.6017 
   36600    301.87356   -1115.4776    279947.48   -75191.593    7658.4339   -82850.027    2001.7799 
   36650    294.40067   -1024.9895     279917.3   -75194.488    7468.8492   -82663.337    2004.1208 
   36700    300.97566   -1158.6985    279679.31   -75234.053    7635.6545   -82869.708    2004.5028 
   36750    294.61914   -919.72638     279554.8   -75220.647    7474.3915   -82695.039    2004.0244 
   36800    296.19339   -875.59978     279399.9   -75227.661      7514.33   -82741.991    2004.0505 
   36850    299.87129   -1036.9616    279598.77   -75211.302    7607.6369   -82818.939    2008.6774 
   36900    299.13695   -841.49605    279593.24   -75213.351    7589.0069   -82802.358    2012.1995 
   36950    301.15598   -857.32774    279592.81   -75216.555    7640.2291   -82856.784    2013.7149 
   37000    301.17365   -843.51404    279730.44   -75231.143    7640.6774    -82871.82    2013.6538 
   37050    299.43256    -1115.942    279727.44   -75228.621    7596.5066   -82825.128    2014.1586 
   37100    302.86801   -1005.3686    279299.01   -75171.527    7683.6628    -82855.19    2015.3452 
   37150    299.51001   -637.90011    279061.54   -75159.837    7598.4713   -82758.308     2017.993 
   37200    297.82261   -1129.0335    279710.06   -75163.646    7555.6626   -82719.309    2025.4388 
   37250    300.17344   -1332.4217    280542.74    -75178.49    7615.3023   -82793.792    2033.0397 
   37300    298.69279   -1282.1379    280516.51   -75206.896    7577.7389   -82784.635    2035.3717 
   37350    300.59884   -1009.0298    279502.65   -75195.014    7626.0946   -82821.108    2034.4477 
   37400    304.12796   -950.74776    278644.59   -75178.769    7715.6273   -82894.396    2032.2679 
   37450    303.04419    -624.4173    278602.45   -75168.829    7688.1323   -82856.961    2034.2593 
   37500    297.93617   -1076.4304    279615.28    -75114.62    7558.5436   -82673.163    2041.9422 
   37550    301.09377    -1363.987    280674.32   -75164.559     7638.651    -82803.21    2048.9399 
   37600    298.16364    -1113.518    280603.79   -75178.872    7564.3144   -82743.186     2051.072 
   37650    299.69253   -911.52564    279684.45   -75189.672    7603.1019   -82792.774    2049.1263 
[...]
   90850    298.14603   -769.48343    279044.01   -75313.708    7563.8677   -82877.576    4685.9633 
   90900    298.02048   -865.53062    278869.49   -75309.162    7560.6826   -82869.845     4683.063 
   90950    300.72408   -1066.6079    279191.06   -75307.236     7629.272   -82936.508    4690.2658 
   91000    299.62268    -1103.779       279734    -75322.78    7601.3298    -82924.11    4698.3744 
   91050    299.50361   -1276.9788    279984.49   -75354.356     7598.309   -82952.665    4707.3912 
   91100    297.10208   -972.75608    279902.99   -75298.935     7537.383   -82836.318    4712.9596 
   91150    296.14443   -963.48361    279521.56   -75270.602    7513.0878    -82783.69    4709.3018 
   91200    297.88357   -967.45935    279555.41   -75291.342    7557.2091   -82848.551    4714.4132 
   91250    299.45559   -890.68565    279777.21   -75249.863    7597.0907   -82846.954    4717.4105 
   91300    294.32777   -1206.8503     280117.5   -75245.702    7466.9997   -82712.702    4721.2567 
   91350    294.45609   -1307.5954    280245.65    -75257.34     7470.255   -82727.595    4727.0696 
   91400    294.46291   -997.97763    279565.06   -75297.647    7470.4281   -82768.075    4723.3015 
   91450    297.88163   -720.73684    278914.53   -75256.007      7557.16   -82813.167    4715.5873 
   91500    299.54998   -774.92817    278856.85   -75307.091    7599.4855   -82906.577     4713.326 
   91550    298.91709   -1093.3691       279238   -75262.802    7583.4293   -82846.232    4724.9172 
   91600    291.42454   -800.37013     279591.5   -75269.785    7393.3457    -82663.13     4732.844 
   91650    295.24278   -1321.4948    280022.93   -75229.962    7490.2133   -82720.175    4738.8022 
   91700    300.67114   -1353.0058    279950.96   -75247.892    7627.9288   -82875.821     4740.867 
   91750    299.99382   -926.09559    279576.84   -75230.459    7610.7456   -82841.204    4735.7926 
   91800     299.0733   -963.57245     279208.3   -75255.229    7587.3922   -82842.621    4731.1028 
   91850    302.14584   -1127.8795    279100.79   -75259.363    7665.3417   -82924.705    4730.6965 
   91900    299.66593   -715.40827     279181.6   -75239.855    7602.4271   -82842.283    4735.7895 
   91950    300.81044    -1039.343    279576.52   -75219.302    7631.4629   -82850.765    4744.5689 
   92000    293.50104   -1204.9139    279955.88   -75268.422    7446.0258   -82714.448    4753.2012 
   92050    297.49509   -885.29303    279808.31   -75287.329    7547.3535   -82834.683    4754.9076 
   92100    302.04805   -888.24665    279586.42   -75259.167    7662.8607   -82922.028     4751.383 
   92150    296.59222   -1081.0557       279631   -75297.524    7524.4479   -82821.972    4756.2258 
   92200    299.56406   -1141.7291    279601.55    -75265.82    7599.8426   -82865.662    4757.0321 
   92250    295.58659   -632.18807    279456.21   -75236.852    7498.9354   -82735.788    4759.3388 
   92300    293.71658     -804.745    279448.85    -75226.77    7451.4941   -82678.264    4760.4051 
   92350    296.47717   -974.51038     279591.6   -75181.667    7521.5292   -82703.196    4760.9538 
   92400    300.44877   -1123.7201    279807.82   -75209.162    7622.2875    -82831.45    4764.5016 
   92450    299.34461   -1239.1898    279894.38   -75219.431    7594.2752   -82813.707    4767.4368 
   92500    296.29248   -1336.7482    279866.34   -75270.196    7516.8436   -82787.039    4771.1452 
   92550    297.67811   -949.65463    279684.66   -75302.727    7551.9968   -82854.724    4768.3068 
   92600     298.6484   -1042.1289    279412.56   -75276.715    7576.6127   -82853.328    4767.9876 
   92650    303.41706   -901.93661     279190.5   -75253.432     7697.592   -82951.024    4763.9889 
   92700    296.73577   -808.34521    279156.78   -75263.861    7528.0898   -82791.951    4765.7535 
   92750    305.37803   -880.92564    279418.98   -75233.653    7747.3411   -82980.995    4769.5433 
   92800    294.02401   -1138.4262    279825.83   -75222.792    7459.2933   -82682.085    4777.6309 
   92850    298.12908   -996.81359    280032.28   -75178.474    7563.4377   -82741.912    4785.1358 
   92900     300.4079   -1182.8533    280062.13   -75171.602    7621.2505   -82792.853    4784.2024 
   92950    300.25629   -899.73311    279682.39   -75142.001    7617.4042   -82759.405    4783.1768 
   93000    301.64378   -639.19174    279285.51   -75079.136    7652.6046    -82731.74    4781.0687 
   93050    306.37143   -918.43471    279379.56   -75058.468    7772.5434   -82831.011    4781.4658 
   93100    301.44912   -974.00989    279780.32    -75084.32     7647.666   -82731.986    4794.2349 
   93150    298.71527   -1226.8838    280251.01   -75102.445    7578.3091   -82680.754    4803.0541 
   93200    295.41524   -1030.5443    280210.26   -75146.417    7494.5884   -82641.006    4806.5224 
   93250    301.60588   -1113.6747    279790.95   -75145.375    7651.6429   -82797.018    4801.2098 
   93300    305.84879   -1109.2534     279402.4   -75156.258    7759.2843   -82915.543     4792.638 
   93350    299.84579   -977.25973    279063.39   -75175.459      7606.99   -82782.449    4792.4636 
   93400    301.15234   -660.75182    279090.15   -75132.382    7640.1367   -82772.518    4797.2695 
   93450    296.89407   -1021.9661    279742.22   -75131.273    7532.1059   -82663.379    4808.5537 
   93500    301.19087   -1171.6452    280248.95   -75152.467    7641.1142   -82793.582    4818.4856 
   93550    301.39006   -1090.4889    280181.61   -75107.579    7646.1676   -82753.746     4819.501 
   93600    303.54491   -1168.3459    279842.24   -75103.851    7700.8355   -82804.686    4814.2876 
   93650    302.14688   -629.20159    279405.57   -75096.771    7665.3679   -82762.139    4811.4871 
   93700    300.16382   -1039.5067     279865.4   -75050.413    7615.0583   -82665.471    4819.6798 
   93750    299.96696   -1146.5627    280365.51   -75096.443    7610.0641   -82706.507    4826.7636 
   93800    297.15921   -997.40633    280415.74   -75115.348    7538.8324   -82654.181     4829.133 
   93850    299.34694   -1059.7836    279896.26   -75130.477    7594.3345   -82724.812    4827.7666 
   93900    297.01529   -950.03555    279116.33   -75130.626    7535.1811   -82665.807    4820.2762 
   93950    301.47424   -1076.2991    278914.18   -75137.605    7648.3032   -82785.908    4819.3299 
   94000    301.11287   -1006.3238     279343.5   -75189.379    7639.1355   -82828.514    4825.5532 
   94050    296.50412   -997.24993     280116.4   -75242.602    7522.2129   -82764.814    4840.2119 
   94100    295.84774   -1285.2449    280324.23   -75247.035    7505.5609   -82752.596    4844.9156 
   94150    295.61816   -1285.6989    279879.89    -75281.15    7499.7364   -82780.887    4841.2128 
   94200    297.84745   -1061.4368    279117.13   -75263.132    7556.2928   -82819.425     4832.592 
   94250    302.18981   -876.39742     278681.3   -75221.797    7666.4572   -82888.254    4827.6248 
   94300    301.51542   -785.30998    279052.25   -75220.132    7649.3479    -82869.48    4833.4242 
   94350    297.32336   -767.72381    279836.96   -75221.793    7542.9968   -82764.789     4845.739 
   94400    300.21427   -1559.3326    280480.09   -75220.709    7616.3383   -82837.047    4853.6782 
   94450    297.91505   -1146.5101    280242.06   -75209.521    7558.0079   -82767.529     4854.523 
   94500    300.18829   -882.42806    279472.93   -75251.317    7615.6793   -82866.997    4848.0027 
   94550    300.97735    -978.6525    279029.07   -75243.265    7635.6975   -82878.962    4845.0662 
   94600    299.01794   -878.13718    279108.18    -75233.94    7585.9878   -82819.928    4847.2112 
   94650    298.77932   -1126.2596     279685.6   -75245.635     7579.934   -82825.569    4858.3903 
   94700    294.96798   -1012.3852    280214.97   -75215.972    7483.2415   -82699.214    4868.0273 
   94750    296.21198   -1269.5993    280261.42   -75260.363    7514.8015   -82775.165     4871.636 
   94800    298.10734   -904.33739    279719.62    -75315.08    7562.8862   -82877.966    4871.0471 
   94850    292.23389    -906.2097    279363.98   -75354.276    7413.8787   -82768.154    4868.7764 
   94900    296.26274    -781.3771    278999.62   -75360.894    7516.0893   -82876.984    4867.7062 
   94950    298.60006   -1110.2403    279228.05   -75316.185    7575.3864   -82891.571    4876.4173 
   95000    299.98719   -663.81053    279665.35   -75378.385    7610.5772   -82988.962    4884.2894 
   95050    298.36577   -1055.9898    279890.04   -75391.789    7569.4425   -82961.232    4894.2069 
   95100    296.16935   -1219.2215    279815.23   -75347.954      7513.72   -82861.674    4897.5507 
   95150     292.7611   -1113.2982    279101.19   -75318.038    7427.2538   -82745.292    4894.8476 
   95200    300.17834   -804.17456    278541.67   -75356.354    7615.4268   -82971.781    4890.9902 
   95250    293.57339   -849.94539     278910.2   -75364.286    7447.8614   -82812.147     4898.873 
   95300    291.56964   -1263.8622    279610.77   -75378.294    7397.0269   -82775.321    4911.0176 
   95350    293.11585   -980.84698     279759.5   -75365.463    7436.2535   -82801.717    4914.2894 
   95400    293.58003   -925.34718    279596.59   -75313.261    7448.0297   -82761.291    4914.7146 
   95450    298.28803     -942.519    279552.17   -75300.818    7567.4703   -82868.288    4917.1122 
   95500    296.60049   -1160.5584    279470.14   -75282.575    7524.6578   -82807.233    4919.3621 
   95550    300.19867   -834.74207    279238.08   -75226.741    7615.9425   -82842.683     4921.016 
   95600    299.90086   -977.88353    279341.58   -75237.459     7608.387   -82845.846    4923.4871 
   95650    298.20476    -1090.814    279621.32   -75199.108    7565.3577   -82764.466    4928.0481 
   95700    301.32251   -1113.1359    279767.34   -75193.566     7644.454    -82838.02    4931.7889 
   95750    299.78392   -925.16926       279530   -75194.704    7605.4204   -82800.124    4933.7715 
   95800    301.87611   -443.24243    279368.77   -75189.599    7658.4986   -82848.098    4934.5827 
   95850    300.15142   -1085.5624     279680.8   -75175.136    7614.7439    -82789.88    4946.4365 
   95900     299.1372   -801.23292    279617.43   -75176.579    7589.0134   -82765.592    4950.8741 
   95950    297.58151   -807.92627    279692.68   -75154.877     7549.546   -82704.423     4954.257 
   96000    302.82989   -1064.5371    280010.97   -75145.201    7682.6957   -82827.896    4960.1098 
   96050    300.27841   -1025.4098    280195.14   -75138.687    7617.9655   -82756.653    4963.8667 
   96100    295.26823    -1297.225    280041.17   -75200.053    7490.8589   -82690.912    4962.7737 
   96150    301.20553   -885.79159    279539.09    -75230.21    7641.4861   -82871.696    4960.4796 
   96200    299.57772   -833.11044    279286.07    -75216.28    7600.1893   -82816.469     4958.677 
   96250    295.26129   -548.40924    279734.03   -75233.889    7490.6828   -82724.571    4965.3082 
   96300    299.14697   -1164.3856     280441.9   -75193.025    7589.2612   -82782.286    4976.0111 
   96350    292.61293   -1270.0893    280359.56   -75206.204    7423.4948   -82629.699    4980.2508 
   96400    300.83034   -888.88018    279581.97   -75245.594    7631.9678   -82877.562    4972.8925 
   96450    299.89075   -708.92682    278885.89   -75220.834    7608.1306   -82828.964     4969.829 
   96500    302.75563   -1002.7227    278878.75   -75212.884    7680.8118   -82893.696    4973.6729 
   96550    297.97017   -802.59764    279744.83   -75231.198    7559.4062   -82790.605    4986.6249 
   96600    296.45002   -974.11963    280456.63   -75282.725    7520.8404   -82803.565    4995.3751 
   96650    292.56381    -1084.527     280317.4   -75299.768    7422.2487   -82722.017    4993.6402 
   96700    298.87614   -1111.5984    279385.33   -75330.402    7582.3902   -82912.792    4987.1137 
   96750    292.29679   -765.27167    278404.05   -75369.311    7415.4744   -82784.785    4974.4384 
   96800    292.55307   -675.57502    278388.92   -75399.809     7421.976   -82821.785    4981.0545 
   96850    297.60321   -1007.8027    279230.28   -75379.377    7550.0965   -82929.474    4995.7399 
   96900    296.79332   -888.68978    279953.97   -75346.403    7529.5498   -82875.953    5010.2071 
   96950    295.20568   -1339.7716    280135.72    -75332.95    7489.2719   -82822.222    5014.5128 
   97000    300.64052   -1103.7639    279587.78   -75266.685    7627.1522   -82893.837    5012.8887 
   97050    298.72537     -1173.29    279185.97   -75266.686    7578.5654   -82845.251    5011.2627 
   97100    297.01561   -794.24898    279047.23   -75277.056    7535.1894   -82812.246    5011.2843 
   97150    294.44303   -864.99912    279342.99   -75311.934    7469.9237   -82781.858    5018.2903 
   97200     295.1899   -1109.4609    279793.14   -75284.486    7488.8716   -82773.358    5025.3844 
   97250    295.93755    -1366.641    279883.52   -75273.765    7507.8392   -82781.604    5031.2365 
   97300    300.90523   -791.07965    279510.17   -75219.276    7633.8677   -82853.143    5028.4228 
   97350    300.33839   -1148.8336    279309.46   -75183.775    7619.4872   -82803.262    5028.1253 
   97400    298.46892   -759.04898     279334.1   -75158.121    7572.0593    -82730.18    5034.3811 
   97450    297.16906   -1057.5526    279908.44   -75146.388    7539.0824    -82685.47      5042.73 
   97500    303.13891   -1256.6603    280268.12   -75158.863    7690.5354   -82849.398    5050.5619 
   97550    302.51356   -1313.1475     279946.7   -75153.426    7674.6705   -82828.096    5049.5742 
   97600    301.65328   -945.49474    279353.83   -75138.303    7652.8454   -82791.148    5042.8149 
   97650    302.66811   -1154.7329    279357.47   -75125.145    7678.5913   -82803.736     5045.043 
   97700    299.34926   -1077.3144    279749.69   -75125.157    7594.3933    -82719.55    5052.7982 
   97750     303.4073   -936.70562    279898.37   -75116.949    7697.3444   -82814.294    5056.3201 
   97800    299.03731   -772.30198    279850.23   -75138.938    7586.4792   -82725.417     5059.253 
   97850    302.10517    -933.5048    279677.37    -75164.14    7664.3097    -82828.45    5059.1823 
   97900    299.39357   -841.45956    279534.52   -75153.699    7595.5174   -82749.216    5059.8505 
   97950    303.59735   -1063.6172    279303.44   -75151.809    7702.1658   -82853.975    5057.9721 
   98000    302.77673   -1082.5111    279386.39   -75127.309     7681.347   -82808.656    5061.3486 
   98050    302.80034   -825.96977    279653.98   -75142.382    7681.9461   -82824.328    5067.0296 
   98100     300.1777   -873.15008    279876.89    -75138.73    7615.4106   -82754.141    5071.3502 
   98150     298.6009   -1118.3963     280080.8   -75153.925    7575.4076   -82729.333    5077.3414 
   98200    296.81183   -1235.7394    279945.34   -75123.227    7530.0194   -82653.247    5080.3731 
   98250    301.97142   -1055.7193    279539.42   -75068.883    7660.9167   -82729.799     5082.608 
   98300    304.31063   -759.20133    279212.16   -75073.814    7720.2616   -82794.076     5082.334 
   98350    303.60616   -1168.7152    279306.45   -75029.519    7702.3894   -82731.909    5088.9412 
   98400    306.05733   -1104.5606    279571.97   -75061.159    7764.5748   -82825.733    5096.2834 
   98450    304.80458   -969.72414    279928.73   -75091.732    7732.7929   -82824.524    5103.2442 
   98500    300.63242   -1393.6795    280391.49   -75130.521    7626.9465   -82757.467    5112.0865 
   98550     300.7387   -1060.6713    280394.99   -75131.868     7629.643   -82761.511    5115.1653 
   98600    300.93139   -925.21617    279999.33   -75121.571    7634.5314   -82756.103    5108.5065 
   98650    304.41162    -1014.129     279420.3   -75084.779    7722.8236   -82807.602    5104.3103 
   98700    302.79396   -1009.1472    279032.63   -75105.682    7681.7843   -82787.466    5102.6422 
   98750    302.85721   -924.33574     278968.9   -75072.542    7683.3887    -82755.93    5105.9551 
   98800    297.58654   -1021.9908    279398.48   -75090.862    7549.6737   -82640.536    5116.0426 
   98850    298.40095   -971.17456    280067.81   -75096.703     7570.335   -82667.038    5128.2818 
   98900    301.68087   -1045.5409    280432.36   -75086.704    7653.5455    -82740.25    5136.3432 
   98950    305.74767   -1299.9249    280158.45    -75081.01    7756.7187   -82837.729    5135.6158 
   99000    296.77993   -804.13063    279685.78    -75091.78    7529.2101    -82620.99    5137.0839 
   99050    298.78018   -1049.2002    279443.98   -75149.358    7579.9557   -82729.313    5137.0567 
   99100    304.43533   -912.01124    279281.32   -75104.949    7723.4251   -82828.374    5135.0699 
   99150    297.52163   -754.19706    279653.56   -75172.819    7548.0269   -82720.846    5141.1513 
   99200    296.59247    -997.2029    280197.53   -75227.144    7524.4543   -82751.599    5150.8065 
   99250    292.06748   -986.65968    280395.81   -75246.025    7409.6568   -82655.682     5155.219 
   99300    300.20493   -1311.0752     280190.9   -75276.852    7616.1014   -82892.954    5153.4536 
   99350    297.38903   -922.43894    279417.97   -75330.377    7544.6629    -82875.04    5148.8255 
   99400    293.34279   -825.47992    278810.74   -75376.737     7442.011   -82818.748    5148.6732 
   99450    294.85912   -698.65992    278706.35   -75358.846      7480.48   -82839.326    5152.6996 
   99500    291.75948   -1007.7984    279544.21   -75348.662    7401.8429   -82750.505    5166.5223 
   99550    299.01724   -1329.4489    280374.03   -75364.713      7585.97   -82950.683    5180.3007 
   99600    292.76207   -1235.2756    280402.94   -75370.023    7427.2783   -82797.301     5184.287 
   99650    297.73863   -1107.7554    279582.77   -75325.163    7553.5322   -82878.695     5178.102 
   99700      300.329   -856.46444    278646.64   -75324.669    7619.2489   -82943.918    5172.1827 
   99750    300.98561   -589.26551       278358   -75305.841    7635.9068   -82941.747    5173.0107 
   99800    295.21634    -914.4483    279154.62   -75315.571    7489.5424   -82805.113    5185.9463 
   99850    291.61622   -1169.3261       280213   -75341.234    7398.2085   -82739.442    5203.0709 
   99900    290.79193   -1580.4319    280601.39   -75297.215    7377.2965   -82674.512    5209.2882 
   99950     294.8949   -1170.2401    279839.77   -75289.719    7481.3875   -82771.106    5199.5255 
  100000    296.91351   -926.56318       278889   -75307.671    7532.5991    -82840.27    5187.7706 
Loop time of 251.719 on 6 procs for 100000 steps with 8512 atoms

Performance: 343.239 ns/day, 0.070 hours/ns, 397.268 timesteps/s
99.4% CPU use with 6 MPI tasks x no OpenMP threads

MPI task timing breakdown:
Section |  min time  |  avg time  |  max time  |%varavg| %total
---------------------------------------------------------------
Pair    | 73.565     | 129.28     | 195.99     | 432.0 | 51.36
Neigh   | 32.485     | 37.304     | 40.515     |  55.0 | 14.82
Comm    | 8.3997     | 78.265     | 138.86     | 589.8 | 31.09
Output  | 0.16148    | 0.16462    | 0.17802    |   1.5 |  0.07
Modify  | 5.3779     | 5.4486     | 5.5035     |   1.8 |  2.16
Other   |            | 1.253      |            |       |  0.50

Nlocal:        1418.67 ave        1443 max        1392 min
Histogram: 1 1 0 0 1 0 0 2 0 1
Nghost:        2004.17 ave        2036 max        1974 min
Histogram: 2 0 0 1 0 0 1 0 0 2
Neighs:        0.00000 ave           0 max           0 min
Histogram: 6 0 0 0 0 0 0 0 0 0
FullNghs:      39172.0 ave       39694 max       38330 min
Histogram: 1 0 0 0 0 2 1 0 0 2

Total # of neighbors = 235032
Ave neighs/atom = 27.611842
Neighbor list builds = 21087
Dangerous builds = 0

# Create data file for import to other simulations
#
write_data data.${NAME}
write_data data.coexist_299K_-1000atm_ML
System init for write_data ...

Total wall time: 0:04:11
