
# Create simulation box of size 50 x 50 x 50 Angstrom
#
lattice	            sc 1
Lattice spacing in x,y,z = 1.0000000 1.0000000 1.0000000
region 	            all block 0 ${X} ${YZ_LO} ${YZ_HI} ${YZ_LO} ${YZ_HI} units box
region 	            all block 0 53.4 ${YZ_LO} ${YZ_HI} ${YZ_LO} ${YZ_HI} units box
region 	            all block 0 53.4 -0.09657156835609726.0 ${YZ_HI} ${YZ_LO} ${YZ_HI} units box
region 	            all block 0 53.4 -0.09657156835609726.0 51.00369156835603.0 ${YZ_LO} ${YZ_HI} units box
region 	            all block 0 53.4 -0.09657156835609726.0 51.00369156835603.0 -0.09657156835609726.0 ${YZ_HI} units box
region 	            all block 0 53.4 -0.09657156835609726.0 51.00369156835603.0 -0.09657156835609726.0 51.00369156835603.0 units box
create_box          1 all
Created orthogonal box = (0.0000000 -0.096571568 -0.096571568) to (53.400000 51.003692 51.003692)
  3 by 1 by 2 MPI processor grid

# fill box with 4175 randomly distributed atoms
#
create_atoms        1 random 4608 63782 all
Created 4608 atoms
  create_atoms CPU = 0.001 seconds
mass                1 18.015

# Define potential
#
pair_style          sw
pair_coeff          * * /data/emrosky-sim/Freezing_Simulations/Melting/MLmW_fancy/ML_mW.sw mW
Reading sw potential file /data/emrosky-sim/Freezing_Simulations/Melting/MLmW_fancy/ML_mW.sw with DATE: 2019-02-27

# Run minimization
#
minimize            1.0e-8 1.0e-8 10000 1000
WARNING: Using 'neigh_modify every 1 delay 0 check yes' setting during minimization (../min.cpp:187)
Neighbor list info ...
  update every 1 steps, delay 0 steps, check yes
  max neighbors/atom: 2000, page size: 100000
  master list distance cutoff = 6.0032907
  ghost atom cutoff = 6.0032907
  binsize = 3.0016454, bins = 18 18 18
  1 neighbor lists, perpetual/occasional/extra = 1 0 0
  (1) pair sw, perpetual
      attributes: full, newton on
      pair build: full/bin/atomonly
      stencil: full/bin/3d
      bin: standard
Per MPI rank memory allocation (min/avg/max) = 4.236 | 4.249 | 4.255 Mbytes
Step Temp E_pair E_mol TotEng Press 
       0            0    7193565.1            0    7193565.1    4903275.1 
     646            0   -49842.732            0   -49842.732   -447.81094 
Loop time of 1.22784 on 6 procs for 646 steps with 4608 atoms

99.2% CPU use with 6 MPI tasks x no OpenMP threads

Minimization stats:
  Stopping criterion = max force evaluations
  Energy initial, next-to-last, final = 
      7193565.12321446  -49842.6240120961   -49842.731704682
  Force two-norm initial, final = 1.6517269e+08 2.5684711
  Force max component initial, final = 87947851.0 0.4902809
  Final line search alpha, max atom move = 0.087645476 0.042970903
  Iterations, force evaluations = 646 1001

MPI task timing breakdown:
Section |  min time  |  avg time  |  max time  |%varavg| %total
---------------------------------------------------------------
Pair    | 0.99464    | 1.0499     | 1.1057     |   4.2 | 85.51
Neigh   | 0.02584    | 0.026423   | 0.026986   |   0.3 |  2.15
Comm    | 0.073344   | 0.12948    | 0.18537    |  12.0 | 10.55
Output  | 0          | 0          | 0          |   0.0 |  0.00
Modify  | 0          | 0          | 0          |   0.0 |  0.00
Other   |            | 0.022      |            |       |  1.79

Nlocal:        768.000 ave         786 max         749 min
Histogram: 2 0 0 0 0 1 0 2 0 1
Nghost:        1570.83 ave        1598 max        1546 min
Histogram: 1 0 1 0 1 1 1 0 0 1
Neighs:        0.00000 ave           0 max           0 min
Histogram: 6 0 0 0 0 0 0 0 0 0
FullNghs:      21782.0 ave       22683 max       20857 min
Histogram: 2 0 0 0 0 1 2 0 0 1

Total # of neighbors = 130692
Ave neighs/atom = 28.361979
Neighbor list builds = 26
Dangerous builds = 0

# Add velocity/set timestep
#
velocity            all create ${TEMP} 120598 rot yes dist gaussian
velocity            all create 299 120598 rot yes dist gaussian
timestep            5.0

# Define output
#
compute	            1 all msd
thermo	            100
thermo_style        custom step temp press vol etotal ke pe c_1[4] density

# Neighbor lists
#
neigh_modify        delay 0 every 1 check yes

# Set fixes
#
fix                 1 all momentum 10 linear 1 1 1 rescale
fix                 2 all nve
fix                 3 all temp/csvr ${TEMP} ${TEMP} 500.0 928347
fix                 3 all temp/csvr 299 ${TEMP} 500.0 928347
fix                 3 all temp/csvr 299 299 500.0 928347
fix                 4 all press/berendsen iso ${PRES} ${PRES} 1000.0 modulus 20000
fix                 4 all press/berendsen iso -1000 ${PRES} 1000.0 modulus 20000
fix                 4 all press/berendsen iso -1000 -1000 1000.0 modulus 20000

# Run 0.5 ns equilibration
#
dump                1 all custom 1000 eq.${NAME}.dump id type x y z vx vy vz
dump                1 all custom 1000 eq.liq_299K_-1000atm_ML.dump id type x y z vx vy vz
run                 100000
Per MPI rank memory allocation (min/avg/max) = 3.486 | 3.501 | 3.505 Mbytes
Step Temp Press Volume TotEng KinEng PotEng c_1[4] Density 
     646          299    898.26334    139440.05   -45736.687     4106.045   -49842.732            0   0.98857191 
     700    178.35444   -876.79794    140789.57   -44696.407    2449.2687   -47145.676   0.31902786   0.97909606 
     800    223.73916   -561.37334    141245.01   -43407.823    3072.5186   -46480.342      0.83898   0.97593904 
     900    243.07644   -1025.5698     141444.5   -42640.822    3338.0695   -45978.892    1.4429571   0.97456259 
    1000    266.97623   -979.28079    141548.57   -42043.905    3666.2756    -45710.18    2.1570333   0.97384604 
    1100    281.42203   -855.90435    141995.29   -41622.743    3864.6538   -45487.397    2.9414309    0.9707823 
    1200     286.8398   -1071.9198    142406.13   -41320.945    3939.0539   -45259.999    3.8628016   0.96798164 
    1300    294.94668   -1091.1476    142439.57   -41142.156    4050.3823   -45192.538    4.7578896   0.96775435 
    1400    295.33623   -1353.1263    142405.89   -41019.415    4055.7319   -45075.147    5.7254813   0.96798326 
    1500    292.86059   -980.47878    142398.33   -40954.081    4021.7349   -44975.816    6.7284082   0.96803461 
    1600    290.72022    -923.7848     142659.1   -40933.385    3992.3422   -44925.727    7.7033161   0.96626514 
    1700    297.56986   -1271.9652    142855.77   -40906.733    4086.4055   -44993.138       8.7464   0.96493489 
    1800    295.81334    -737.7766    142885.77   -40890.113    4062.2838   -44952.397    9.8106394   0.96473231 
    1900    302.14604   -1103.8185    143118.91   -40754.302    4149.2483    -44903.55    11.040322   0.96316078 
    2000    298.78532   -999.44182    143204.19   -40783.622    4103.0968   -44886.718    12.453367   0.96258718 
    2100    294.14318   -1186.6107    142957.24   -40881.764    4039.3482   -44921.112    13.562236   0.96425002 
    2200    298.45072   -882.82125    142926.39   -40791.319     4098.502   -44889.821     14.43057   0.96445808 
    2300     293.3831   -924.11227    142648.26   -40790.196    4028.9103   -44819.106    15.592427   0.96633859 
    2400    296.94119   -976.49145    142857.83   -40755.785    4077.7721   -44833.557    16.743008     0.964921 
    2500    299.29008   -816.26497    142981.75   -40686.546    4110.0286   -44796.575    17.944525   0.96408468 
    2600     303.8365   -1090.7305    143267.49    -40579.16    4172.4626   -44751.623    19.041662   0.96216188 
    2700    298.67381   -1302.6618    142891.88   -40703.045    4101.5655    -44804.61    20.374044   0.96469101 
    2800    297.25833   -1051.0403    142630.63   -40677.574    4082.1273   -44759.701    21.256973   0.96645799 
    2900    303.17412   -1026.3512    142697.38   -40578.084    4163.3664    -44741.45    22.482726   0.96600593 
    3000    301.81233   -1178.5719    142823.87   -40575.103    4144.6656   -44719.768    23.712946   0.96515044 
    3100     306.7708   -771.81962    142857.73   -40582.682    4212.7582    -44795.44    24.954078   0.96492166 
    3200    303.32978   -938.11424    142960.04   -40603.113    4165.5041   -44768.617    26.152513   0.96423109 
    3300     302.3509   -802.58123    143217.23   -40613.175    4152.0616   -44765.237    27.633346   0.96249954 
    3400    298.72837   -1237.1099     143179.7   -40630.449    4102.3147   -44732.763    28.890678   0.96275184 
    3500    303.70121   -1235.6027    143087.64   -40544.487    4170.6047   -44715.092    30.108329   0.96337125 
    3600    303.59282   -1031.8472    142867.54   -40661.599    4169.1164   -44830.715    31.215941    0.9648554 
    3700    297.84964    -1451.344    142609.17   -40673.134    4090.2476   -44763.382    32.376003   0.96660343 
    3800    299.72529   -1252.7418    142581.99   -40665.233    4116.0051   -44781.238    33.424699    0.9667877 
    3900    293.24117   -787.14083    142768.82   -40828.109    4026.9613   -44855.071    34.530169   0.96552258 
    4000    300.17499   -1016.7582    143178.07   -40760.539    4122.1806    -44882.72    35.676698    0.9627628 
    4100    297.91964   -1039.5759    142901.07   -40707.108    4091.2088   -44798.317    36.715018     0.964629 
    4200    302.96777   -926.39489    142971.63    -40684.09    4160.5328   -44844.623    37.664753   0.96415296 
    4300    300.55981   -1072.3464    142926.27   -40717.133    4127.4653   -44844.598    39.104712   0.96445892 
    4400    296.22894   -816.53273    142910.87   -40667.505    4067.9911   -44735.496    40.205296   0.96456285 
    4500    304.08343    -1184.064    142919.87   -40630.681    4175.8536   -44806.535     41.31836   0.96450215 
    4600    302.01777    -895.0022    142745.43   -40717.882    4147.4867   -44865.369    42.250687   0.96568078 
    4700    294.77064      -1100.7    142737.41   -40783.282    4047.9649   -44831.247    43.291532   0.96573501 
    4800    300.15415   -993.61507    143358.06   -40691.721    4121.8944   -44813.615    44.740121   0.96155401 
    4900    293.25542   -1071.0187    143188.46   -40788.836     4027.157   -44815.993     45.94348   0.96269292 
    5000    300.97535   -897.14649    142861.32   -40690.657    4133.1717   -44823.828    47.112656   0.96489737 
    5100    297.22171   -933.16991    143059.62   -40754.566    4081.6245    -44836.19    48.173017    0.9635599 
    5200    294.52323   -1231.6048    143142.01   -40813.394    4044.5673   -44857.962    49.291449   0.96300532 
    5300    299.31444   -1108.1051    143142.66   -40727.945    4110.3631   -44838.308    50.488302   0.96300096 
    5400    301.81325    -754.7355    142923.62   -40652.953    4144.6782   -44797.631     51.33337   0.96447681 
    5500    299.42738   -1072.0747    142880.94   -40657.404     4111.914   -44769.318    52.301681   0.96476492 
    5600    300.70139   -823.88518    143299.82   -40589.793    4129.4095   -44719.203    53.723858   0.96194481 
    5700    301.66102   -1182.5571    143079.12   -40651.237    4142.5876   -44793.824    54.924153   0.96342862 
    5800     303.3202    -702.3215    143060.32   -40590.428    4165.3725     -44755.8    55.685554   0.96355522 
    5900    301.83578   -1054.7143    143375.14   -40780.062    4144.9876    -44925.05    56.834756   0.96143949 
    6000    293.27586   -685.27708    143454.98   -40847.246    4027.4377   -44874.683    58.373961   0.96090434 
    6100    299.21055   -863.44271    143243.84   -40758.689    4108.9364   -44867.626    59.587202    0.9623207 
    6200    299.30331   -1051.2901    143120.57   -40853.756    4110.2102   -44963.966    60.870154   0.96314958 
    6300    298.51287   -1031.8598    143222.56   -40808.727    4099.3554   -44908.083    61.723993   0.96246373 
    6400    297.67886   -1054.7602    143360.62   -40774.941    4087.9023   -44862.844     62.88325   0.96153683 
    6500    293.20788    -1067.413    143136.68   -40817.444    4026.5042   -44843.948    63.961104   0.96304118 
    6600    296.33807   -796.10517    143451.47   -40835.916    4069.4898   -44905.406    65.435219   0.96092787 
    6700    294.29763   -1199.3039    143479.76   -40919.719    4041.4692   -44961.188    66.511779   0.96073843 
    6800    300.75054   -1105.3508    143553.28   -40860.158    4130.0845   -44990.243    67.459166    0.9602464 
    6900    300.18586   -1120.0216    143191.35   -40805.973    4122.3299   -44928.303    68.845698   0.96267347 
    7000    304.12457   -801.72913     143482.2   -40780.297    4176.4187   -44956.716    69.952847    0.9607221 
    7100    296.42005   -1195.9188    143190.04   -40883.617    4070.6156   -44954.233    71.103437   0.96268228 
    7200    296.03661   -835.18987    142836.59   -40933.598      4065.35   -44998.948    72.113553   0.96506449 
    7300    293.55469   -804.62687    143064.83   -40858.491    4031.2667   -44889.758    73.134614   0.96352486 
    7400    291.81453   -996.75164    142972.28   -40874.006    4007.3699   -44881.376    74.017814   0.96414855 
    7500    297.39588     -1129.93    142805.56   -40799.974    4084.0162    -44883.99    75.248574   0.96527418 
    7600    297.44527   -983.08138    143147.28   -40780.116    4084.6944    -44864.81    76.602529   0.96296985 
    7700    296.78627   -990.66708    142903.96   -40790.392    4075.6447   -44866.036    77.722577   0.96460949 
    7800    298.23089   -889.35614    142784.43   -40790.334    4095.4831   -44885.817    78.667204   0.96541698 
    7900    292.33721   -871.96001    142966.93   -40901.047    4014.5476   -44915.594    79.997374   0.96418464 
    8000    297.53771    -1026.165    142679.41   -40833.612    4085.9639   -44919.576    81.288937   0.96612762 
    8100    299.22385   -837.09225    142932.21   -40711.415     4109.119   -44820.534    82.430165   0.96441886 
    8200    296.69543   -1059.4555    142818.72   -40752.975    4074.3973   -44827.372    83.843863   0.96518521 
    8300     301.6509   -1189.9978    142680.75   -40677.934    4142.4487   -44820.383    85.082276    0.9661185 
    8400    298.57589    -1240.479    142533.16   -40760.896    4100.2209   -44861.117    86.142308   0.96711891 
    8500    296.02309   -1133.1322    142431.58   -40790.017    4065.1643   -44855.182    87.284576   0.96780866 
    8600     298.5738   -885.30526    142528.02   -40732.302    4100.1922   -44832.494    88.360309   0.96715378 
    8700    301.52506   -965.72689    142699.35   -40702.521    4140.7206   -44843.242    89.566798    0.9659926 
    8800    299.39862   -1095.4523    142650.48   -40680.937    4111.5191   -44792.457    90.304815   0.96632353 
    8900    298.22351   -935.19698    142490.39   -40693.225    4095.3818   -44788.607    91.244737   0.96740921 
    9000    303.45519   -1129.2559    142329.33   -40572.946    4167.2263   -44740.172    92.078521   0.96850392 
    9100    302.25411   -1083.9504    142376.81   -40613.041    4150.7323   -44763.773    93.235277   0.96818096 
    9200    300.51742   -1088.0355    142328.64   -40672.696    4126.8831   -44799.579    94.375638   0.96850862 
    9300    305.03288   -932.26483    142548.56   -40590.163     4188.892   -44779.055    95.626972   0.96701442 
    9400    294.56985   -951.01566    142632.08   -40654.032    4045.2075    -44699.24     97.34536   0.96644821 
    9500    298.12446   -970.21175    142779.21   -40705.857    4094.0216   -44799.879    98.816102   0.96545227 
    9600    296.23879   -1073.2591    142869.99   -40718.954    4068.1265    -44787.08    100.04292   0.96483887 
    9700    303.50496   -1005.8975    142572.84   -40660.256    4167.9097   -44828.166    101.13342   0.96684976 
    9800    299.62425   -1013.4574    142555.54   -40625.063    4114.6175   -44739.681    102.43647   0.96696708 
    9900    303.15614    -1069.699    142294.19   -40683.079    4163.1196   -44846.199    103.35832   0.96874309 
   10000    299.86482   -1133.0887    142153.44   -40750.005    4117.9212   -44867.926     104.5793   0.96970231 
   10100    299.15815   -1011.5656     141881.7    -40721.37    4108.2168   -44829.587    105.78314    0.9715595 
   10200    293.41996   -1064.0142    142227.85   -40764.426    4029.4166   -44793.843    107.19555   0.96919499 
   10300     299.5691   -1010.6398    142479.78   -40682.069    4113.8602   -44795.929    108.96525   0.96748129 
   10400    303.71885   -807.19807    142434.24   -40597.515     4170.847   -44768.362    110.31521   0.96779059 
   10500     299.9077   -1102.8681    142677.85   -40613.553    4118.5101   -44732.063    111.95079   0.96613816 
   10600    294.89725   -984.98307    142704.37   -40638.642    4049.7036   -44688.346    112.93386   0.96595863 
   10700      303.078   -1204.1064    142684.11   -40649.245    4162.0465   -44811.291    114.59341   0.96609578 
   10800    302.24165   -726.24815    142588.77   -40582.414    4150.5612   -44732.975    115.99112   0.96674176 
   10900    297.91049   -934.57456    142473.52    -40570.22    4091.0832   -44661.303    117.27463   0.96752379 
   11000    301.45089   -914.91834     142828.5   -40491.005    4139.7021   -44630.707    118.99039   0.96511912 
   11100    294.11845   -699.41882     143194.1   -40596.277    4039.0086   -44635.286    120.12816   0.96265503 
   11200     304.4823   -951.44514    143442.17   -40579.841    4181.3312   -44761.172    121.26735   0.96099021 
   11300    300.80777   -1103.2269    143258.18   -40660.476    4130.8703   -44791.346     122.3874   0.96222438 
   11400    297.43091   -844.90448    143223.94   -40748.519    4084.4973   -44833.016    124.29601   0.96245444 
   11500    295.41687   -1217.1518    143170.73   -40856.667    4056.8393   -44913.506    125.13831   0.96281211 
   11600    291.93866   -1184.4581    142943.22   -40851.599    4009.0745   -44860.673     126.2423   0.96434456 
   11700    292.89408    -1191.114    142990.52   -40771.863    4022.1949   -44794.058    127.24294   0.96402554 
   11800    299.41342   -977.82991    143060.65   -40772.888    4111.7223    -44884.61    128.39673   0.96355301 
   11900    293.31764   -1149.1913    142853.83   -40857.734    4028.0114   -44885.746    129.53058   0.96494801 
   12000    294.29217   -879.36539    142722.73   -40856.501    4041.3943   -44897.896    130.87102   0.96583438 
   12100    302.63679   -753.44961    142887.48   -40763.426    4155.9875   -44919.413    132.06807   0.96472072 
   12200    301.39481   -1007.6174    142935.21    -40602.53    4138.9319   -44741.462    132.90659   0.96439859 
   12300    306.76057   -832.14188    142888.42   -40562.485    4212.6177   -44775.103    134.83468    0.9647144 
   12400    303.35735   -1026.9657    143182.73   -40540.815    4165.8827   -44706.698     136.3327   0.96273142 
   12500    300.82305   -1134.3642    142954.06   -40607.157    4131.0802   -44738.237    137.30933   0.96427145 
   12600    306.68513   -978.76143    142856.56   -40597.518    4211.5817     -44809.1    138.64209   0.96492953 
   12700     302.5762   -567.45038    142986.73   -40637.059    4155.1555   -44792.215    139.72352    0.9640511 
   12800     294.9133    -891.8331    143274.77    -40653.78     4049.924   -44703.704    141.35346   0.96211298 
   12900    294.75537   -1046.2135     143022.9   -40678.567    4047.7553   -44726.322    142.85185   0.96380734 
   13000    299.07606   -1046.6155     143068.9   -40712.371    4107.0895   -44819.461    144.21006    0.9634974 
   13100    296.72273   -1192.6225    142742.62   -40677.199    4074.7721   -44751.971    145.25742   0.96569975 
   13200    302.08576   -1103.6816    142763.02   -40580.412    4148.4204   -44728.833    146.30018   0.96556177 
   13300    302.07833   -1096.7805    142814.68   -40579.041    4148.3185    -44727.36    147.39605   0.96521253 
   13400    299.25089   -1099.7112    142692.22   -40594.281    4109.4904   -44703.771    148.53217   0.96604084 
   13500    303.46392   -964.16991    142595.39   -40607.175    4167.3461   -44774.521    149.89297   0.96669686 
   13600    299.21821   -1206.6559    142591.33   -40650.224    4109.0416   -44759.265    150.29728   0.96672436 
   13700    292.98887   -1132.1755    142463.55   -40697.777    4023.4965   -44721.273    150.61344    0.9675915 
   13800    297.80601    -806.4364    142449.96   -40754.137    4089.6484   -44843.785    151.88602   0.96768381 
   13900    296.34556   -919.04921     142645.6   -40727.017    4069.5926    -44796.61    153.34477   0.96635661 
   14000    294.47918   -1268.7446    142867.56   -40815.334    4043.9624   -44859.297    154.13772   0.96485523 
   14100    299.12788   -898.64472    143008.03   -40710.977    4107.8011   -44818.778    155.39823   0.96390753 
   14200    297.37476   -938.82149     143237.8   -40708.286    4083.7262   -44792.013    155.90605   0.96236133 
   14300    299.62167   -832.46613    142993.94   -40728.633    4114.5821   -44843.215    156.92514   0.96400249 
   14400    301.48518   -1049.3567    142997.35     -40674.9     4140.173   -44815.073    157.67967   0.96397954 
   14500    296.22046   -1194.9113    143010.44   -40731.446    4067.8747    -44799.32    159.09062   0.96389131 
   14600    297.18623   -1094.9736    143068.26   -40587.982    4081.1372   -44669.119    160.14638   0.96350177 
   14700    300.90907   -975.87333    142819.16   -40646.358    4132.2615   -44778.619    161.09948   0.96518225 
   14800    302.78231   -1267.4738    143011.75   -40658.992    4157.9858   -44816.978    162.45717   0.96388246 
   14900    300.79967   -1280.9729    142480.68   -40658.389    4130.7591   -44789.148    163.05213   0.96747514 
   15000    292.56001   -1105.0991    142632.71   -40761.287    4017.6072   -44778.894     163.9694   0.96644391 
   15100    294.84392   -1051.5488    142802.01   -40737.438    4048.9712   -44786.409    165.29255   0.96529816 
   15200     300.1663   -1063.8718     142690.1   -40786.213    4122.0614   -44908.275    165.98885   0.96605522 
   15300    300.88381   -782.27603    142963.94   -40734.891    4131.9146   -44866.806    167.36923   0.96420477 
   15400    298.07756   -959.67828    143086.35   -40637.811    4093.3775   -44731.189    168.59543   0.96337994 
   15500    297.46827   -1224.9249    143046.88   -40680.053    4085.0104   -44765.064    169.59322   0.96364575 
   15600     295.6179   -1115.8722    142574.05   -40743.107    4059.5999   -44802.706    170.23184   0.96684159 
   15700    301.61151   -946.43119    142466.96   -40736.564    4141.9078   -44878.471    170.73563    0.9675683 
   15800    299.77433   -962.37329    142764.84   -40702.713    4116.6786   -44819.392    171.87229   0.96554947 
   15900    299.69997   -823.49492     143151.7   -40709.947    4115.6573   -44825.604    172.88238   0.96294016 
   16000    301.87054   -1097.9273    143393.94   -40774.159    4145.4649   -44919.624     173.9843   0.96131341 
   16100     303.1891   -1059.2452    143645.21     -40767.8    4163.5721   -44931.372    175.42455   0.95963186 
   16200    299.19818   -1070.6848    143667.79   -40629.506    4108.7665   -44738.273    176.87987   0.95948099 
   16300    306.33107   -948.10684    144005.31   -40567.002    4206.7196   -44773.721    177.78043   0.95723221 
   16400    305.29586   -1253.1812     143724.5    -40605.79    4192.5034   -44798.294    179.25575   0.95910241 
   16500    297.94791   -1026.3499    143351.41   -40655.557    4091.5971   -44747.154    180.20479   0.96159861 
   16600    298.66527   -1002.3667    143399.64   -40693.554    4101.4483   -44795.002    181.64772   0.96127517 
   16700    298.12313   -1189.6983    143431.65   -40743.324    4094.0032   -44837.327    182.61369   0.96106068 
   16800    301.12502   -1024.1096    143129.85   -40683.876     4135.227   -44819.103    183.83279   0.96308716 
   16900    300.67781   -864.95487    143318.86   -40716.791    4129.0857   -44845.876     184.9587   0.96181697 
   17000    295.84107   -861.33671    143211.14    -40676.24    4062.6646   -44738.905    185.86317   0.96254045 
   17100    298.78443   -1181.1598    142823.75   -40627.425    4103.0846   -44730.509    186.77308   0.96515125 
   17200     301.7124    -798.7433    142581.98   -40615.838    4143.2933   -44759.131    187.57118    0.9667878 
   17300    298.42691   -1096.3721    142796.59   -40633.513     4098.175   -44731.688    188.77763   0.96533476 
   17400    299.55608   -1341.5627    142666.86   -40643.953    4113.6815   -44757.635    190.29021   0.96621261 
   17500    296.53842   -842.71083    142499.33   -40670.339    4072.2411    -44742.58    191.55537   0.96734854 
   17600    297.34076    -1078.136    142624.03   -40713.407    4083.2594   -44796.666    192.90333   0.96650273 
   17700    297.06196    -1120.342    142635.97    -40697.67    4079.4307   -44777.101    194.29488   0.96642183 
   17800    298.11253   -1034.3074    142543.99   -40712.954    4093.8577   -44806.812    195.19097   0.96704545 
   17900    300.05449   -1164.3588    142432.62   -40742.514    4120.5259    -44863.04    195.32534   0.96780156 
   18000    292.96069   -997.20058    142183.21   -40829.117    4023.1095   -44852.226    196.33817   0.96949928 
   18100    296.22005   -1007.6544    142239.16    -40779.97     4067.869   -44847.839    197.76351   0.96911789 
   18200     303.5812   -950.05357    142399.07   -40714.511    4168.9567   -44883.468    199.20037   0.96802958 
   18300    296.59981   -1015.4706    142587.36   -40730.948    4073.0841   -44804.032    200.44345   0.96675133 
   18400    298.25093   -1049.9496    142156.55   -40762.145    4095.7583   -44857.904    200.86057   0.96968109 
   18500    303.53794   -1190.2074     142542.2   -40693.326    4168.3627   -44861.688    203.14516   0.96705761 
   18600    299.24234   -973.13991    142922.39   -40692.311    4109.3729   -44801.684    204.57753    0.9644851 
   18700    301.62999   -910.70231    143472.65   -40580.462    4142.1615   -44722.623    206.62741     0.960786 
   18800    301.20793   -1150.2382    143310.64   -40666.144    4136.3656   -44802.509    207.48759   0.96187215 
   18900     299.4267   -817.07507    143392.03   -40677.589    4111.9047   -44789.494      208.865   0.96132618 
   19000    297.86435   -1114.5854    143371.39   -40673.179    4090.4496   -44763.629    209.65863   0.96146463 
   19100    299.57869    -1134.945    142877.33    -40710.94    4113.9919   -44824.932    210.21853   0.96478931 
   19200    297.72267   -958.82791    143032.68   -40681.243     4088.504   -44769.747    211.09084   0.96374139 
   19300    298.57269   -884.46345    143116.67    -40604.23    4100.1769   -44704.407    211.95483   0.96317585 
   19400    302.40795   -1162.5669    142824.73   -40693.317    4152.8449   -44846.162    212.69813   0.96514462 
   19500    298.42568   -966.40453    142927.52   -40669.979    4098.1581   -44768.137    214.03156   0.96445046 
   19600    307.72638   -915.61671    142650.84   -40665.761    4225.8808   -44891.642    214.94072   0.96632109 
   19700    296.69522   -889.52403     142611.8   -40648.817    4074.3944   -44723.211    216.24115   0.96658563 
   19800    295.85532   -902.84633    142720.52    -40656.63    4062.8603    -44719.49    217.76961   0.96584933 
   19900    299.33414    -1310.574    142879.52   -40602.974    4110.6336   -44713.608    219.00587   0.96477451 
   20000    299.21966   -1148.0368    142787.48   -40588.677    4109.0615   -44697.738     220.4102   0.96539641 
   20100    301.74297   -875.92322    143020.68   -40562.343    4143.7131   -44706.056    222.32912   0.96382228 
   20200    306.10175   -889.33115    143263.63   -40541.706    4203.5705   -44745.277    223.90597   0.96218778 
   20300    309.21347   -1255.7012    143244.06   -40512.717    4246.3024   -44759.019    225.31936   0.96231922 
   20400    300.49527   -1262.2162    142905.21   -40591.269     4126.579   -44717.848    226.50619   0.96460106 
   20500    300.33563   -1082.3367    142459.01   -40551.824    4124.3866    -44676.21    227.13975    0.9676223 
   20600    303.38259   -874.02926    142271.28   -40621.158    4166.2294   -44787.387    228.87981   0.96889909 
   20700    298.92726   -1046.1121    142557.65   -40713.714     4105.046    -44818.76    231.02889    0.9669528 
   20800    295.51929   -1321.5804    142580.57   -40767.232    4058.2458   -44825.477    232.46704   0.96679735 
   20900    300.68284   -827.81997    142500.73     -40692.5    4129.1547   -44821.654    233.91849   0.96733905 
   21000    295.23142   -883.67432    142761.12   -40622.784    4054.2926   -44677.077    235.03122   0.96557467 
   21100    299.06692   -1030.6824     142512.5   -40691.923    4106.9639   -44798.887    236.16859   0.96725911 
   21200    300.86412   -974.43743    142646.08   -40750.714    4131.6441   -44882.358    237.20916   0.96635338 
   21300    295.11489   -936.28453    142665.34   -40765.651    4052.6924   -44818.343    238.62291   0.96622287 
   21400    301.42944   -1001.1741    142612.34   -40630.186    4139.4075   -44769.594    239.42862   0.96658199 
   21500    302.70907   -1010.1637    142733.84   -40592.376    4156.9801   -44749.357    241.21452   0.96575916 
   21600    307.53848   -1068.4873    142734.03   -40653.037    4223.3004   -44876.337    242.29538    0.9657579 
   21700    297.54191   -1072.2005    142731.79   -40656.478    4086.0216   -44742.499    243.55624   0.96577302 
   21800    303.54022   -972.85724    142588.38   -40570.154     4168.394   -44738.548    244.38635   0.96674439 
   21900    299.86366   -1152.4211    142523.56   -40567.937    4117.9053   -44685.842     245.2778   0.96718407 
   22000    299.65876   -782.54309    142331.83   -40637.316    4115.0914   -44752.407    246.56111   0.96848695 
   22100    304.97084   -1035.8144    142480.88   -40598.391    4188.0401   -44786.431    247.29783   0.96747381 
   22200    303.28937   -1016.5051    142436.98   -40596.682    4164.9491   -44761.631     248.1089   0.96777196 
   22300    300.35876   -756.54302     142335.6   -40663.314    4124.7043   -44788.019    248.67669   0.96846126 
   22400    297.55339   -1124.7576     142440.9   -40698.047    4086.1793   -44784.226    250.28848   0.96774534 
   22500    296.44111    -1213.577    142312.03   -40754.695    4070.9048   -44825.599    251.63703   0.96862167 
   22600    294.28322   -732.70175    141914.58   -40769.932    4041.2713   -44811.203    252.29374   0.97133441 
   22700     300.2506   -882.83195    142266.15   -40671.368    4123.2189   -44794.587    253.92891   0.96893406 
   22800    290.11118   -958.85787     142263.5   -40811.318    3983.9785   -44795.297    255.40328    0.9689521 
   22900    294.12485   -1280.1201    141462.65   -40777.403    4039.0965   -44816.499    255.65182   0.97443757 
   23000    300.17222   -850.68722    141743.96   -40613.806    4122.1426   -44735.949    257.17392   0.97250364 
   23100    303.88674   -907.80683    142065.63   -40616.286    4173.1526   -44789.439    258.82436   0.97030166 
   23200    296.48053   -934.79695    142332.23   -40653.667    4071.4461   -44725.113     260.8476   0.96848423 
   23300    302.12273   -1063.0542    142774.29   -40731.268    4148.9281   -44880.196    263.44122   0.96548556 
   23400    300.30551    -834.0825    142831.61   -40636.844     4123.973   -44760.817    265.28588   0.96509814 
   23500    300.21661   -657.30604    142756.71   -40711.973    4122.7522   -44834.726    266.53602   0.96560447 
   23600    295.09821   -1315.8357    142929.84   -40754.464    4052.4632   -44806.928    268.06378   0.96443485 
   23700    294.26383   -1012.5761    142746.75   -40807.592    4041.0051   -44848.597    269.36481   0.96567185 
   23800    296.58963   -952.92993    142675.25   -40700.632    4072.9444   -44773.577     271.2168   0.96615577 
   23900    297.09113   -957.21937    142891.43   -40704.994    4079.8313   -44784.825    272.99062    0.9646941 
   24000    298.07289   -1080.2362    142775.13   -40651.945    4093.3134   -44745.258    273.95131   0.96547987 
   24100    302.19811   -982.89167    142550.35    -40650.19    4149.9633   -44800.153    274.75761   0.96700229 
   24200     305.6743   -1019.7045    142578.43   -40514.809    4197.7004   -44712.509    276.59065   0.96681187 
   24300    301.67355   -1284.7135     142693.6    -40596.53    4142.7597    -44739.29    278.01743   0.96603154 
   24400    304.22907   -744.25775     142837.5   -40556.552    4177.8536   -44734.406    279.30381   0.96505831 
   24500    297.44035   -936.90393    143218.89   -40599.211     4084.627   -44683.838    281.24356   0.96248835 
   24600    299.05912   -1214.3474    143042.98   -40598.319    4106.8568   -44705.176    281.91459   0.96367199 
   24700    305.92708     -855.533    142831.83   -40612.669    4201.1718   -44813.841    282.57669   0.96509665 
   24800    298.08603    -927.0725     142931.6   -40643.778    4093.4938   -44737.272    284.16241   0.96442299 
   24900    303.76456   -1145.5467    143128.91   -40660.296    4171.4748   -44831.771    286.13504   0.96309348 
   25000    294.40938   -997.98787    142821.58   -40709.875    4043.0038   -44752.879    287.44369   0.96516588 
   25100    296.88419   -1166.3511    142968.61   -40722.452    4076.9895   -44799.442    288.71915   0.96417333 
   25200    293.79621   -1180.4058    142449.71    -40737.54    4034.5834   -44772.124    288.82412   0.96768551 
   25300    298.64564   -727.11913    142597.24   -40775.922    4101.1787   -44877.101    290.21293    0.9666843 
   25400    297.08946   -1071.0858    142734.33   -40737.853    4079.8083   -44817.661    291.99499   0.96575588 
   25500    297.44188   -949.24272    142918.27   -40789.033    4084.6479   -44873.681    293.03862   0.96451288 
   25600    294.20067   -958.98188    142960.88   -40781.948    4040.1378   -44822.086    294.73045   0.96422546 
   25700    293.77048   -860.85391    142944.27   -40787.606      4034.23   -44821.836     295.3482   0.96433745 
   25800    288.94851   -820.01182    142920.79   -40896.372    3968.0119   -44864.384    296.85625   0.96449593 
   25900    295.40233   -913.46983    142943.02    -40893.84    4056.6397   -44950.479    297.90332   0.96434589 
   26000    297.33553   -969.63213    143273.05   -40776.198    4083.1876   -44859.386    299.10321   0.96212453 
   26100    291.11708   -1379.6652    143105.31   -40789.283    3997.7921   -44787.075    299.75187   0.96325226 
   26200     305.4903   -1084.3652    143292.06   -40634.242    4195.1736   -44829.416     301.2995   0.96199692 
   26300    300.01203   -840.25801     143291.1   -40719.582    4119.9428   -44839.525    302.58227   0.96200336 
   26400     302.0966   -999.16853    143134.93   -40705.737    4148.5693   -44854.306    304.13055   0.96305295 
   26500    306.94043   -965.74088    143118.14   -40592.003    4215.0877    -44807.09    305.21085    0.9631659 
   26600    301.33169   -990.52137    142676.16   -40751.238    4138.0651   -44889.303    306.30203   0.96614963 
   26700    301.19755   -939.49186     143286.3   -40627.187    4136.2231    -44763.41    308.47509   0.96203558 
   26800    296.04251   -942.03889    143336.27   -40673.727     4065.431   -44739.158    308.90816   0.96170018 
   26900    298.19127   -1080.1882    143227.22   -40786.083    4094.9391   -44881.022    309.96878   0.96243241 
   27000    294.23611   -1039.7866    142895.66   -40800.751    4040.6244   -44841.375    310.93526    0.9646655 
   27100    299.32076   -977.97943    142891.73   -40687.334    4110.4498   -44797.784    312.38646   0.96469204 
   27200    303.00531   -785.63595    142864.13   -40629.631    4161.0483   -44790.679    314.05739   0.96487845 
   27300    299.31097   -1104.9959    142758.42   -40594.676    4110.3155   -44704.991    314.89732    0.9655929 
   27400    301.39196   -1026.9677    142722.75   -40635.934    4138.8928   -44774.826    316.39291   0.96583423 
   27500    297.21857   -1136.0378    142733.63   -40651.841    4081.5813   -44733.423    318.06919    0.9657606 
   27600     305.0215   -978.78128     142685.6   -40592.235    4188.7358   -44780.971    319.18172   0.96608569 
   27700    305.96321   -933.99503    143057.77   -40598.969    4201.6679   -44800.637    320.70727   0.96357239 
   27800    301.76677   -987.10269    143223.65   -40629.183    4144.0399   -44773.223    323.34891   0.96245637 
   27900    302.98736   -914.13897    143051.85   -40582.095    4160.8017   -44742.896    324.50838   0.96361226 
   28000    305.64831   -857.87334    143429.81   -40505.971    4197.3435   -44703.315    326.46122   0.96107302 
   28100    300.89174   -975.08508    143568.37   -40590.645    4132.0234   -44722.668    328.41631   0.96014542 
   28200    297.71602   -990.45737    143496.84   -40727.854    4088.4126   -44816.266    329.60529   0.96062407 
   28300    300.59317   -1251.9881    143039.23   -40718.372    4127.9233   -44846.295    330.33323    0.9636973 
   28400    300.45303   -893.37193    143407.94   -40573.507    4125.9989   -44699.506    332.42386   0.96121956 
   28500    299.23214   -1170.3709    143525.85   -40671.221    4109.2328   -44780.454    334.78995   0.96042989 
   28600    299.58171    -1096.928    143446.68   -40739.444    4114.0334   -44853.477    335.81008   0.96095996 
   28700    295.98787   -782.69235    143166.94   -40761.332    4064.6806   -44826.013    336.31529   0.96283766 
   28800     295.6864   -791.66962    143453.95   -40702.371    4060.5407   -44762.912    337.77702   0.96091124 
   28900    297.87284   -1248.3806    143420.64   -40727.758    4090.5661   -44818.324    338.44368   0.96113444 
   29000    299.60926   -1171.8854    143229.09   -40716.172    4114.4117   -44830.584    339.20525   0.96241983 
   29100    295.92336    -1001.966    142989.37    -40698.62    4063.7947   -44762.414    339.15173   0.96403329 
   29200    295.12199   -1014.2128    143184.99   -40760.958    4052.7899   -44813.748    341.25419   0.96271627 
   29300    297.42551   -797.65702     143089.1   -40702.134    4084.4232   -44786.557    342.24626   0.96336142 
   29400    297.35198   -1228.9685     142914.5   -40787.844    4083.4134   -44871.257    343.24944   0.96453839 
   29500    299.89318   -980.52956    142328.19   -40754.661    4118.3107   -44872.972    343.37833   0.96851173 
   29600    298.31959   -1174.6366    142366.42    -40776.75    4096.7012   -44873.452    344.54402    0.9682516 
   29700    299.02037    -907.3803    142259.29   -40689.167    4106.3247   -44795.492    344.87825   0.96898078 
   29800    302.58598   -1110.5466    142304.54   -40609.573    4155.2898   -44764.863    345.97403   0.96867267 
   29900    305.18252   -798.73389    142601.99   -40619.966    4190.9469   -44810.913    348.04362   0.96665212 
   30000    302.46303   -1109.7096     142901.4    -40610.48    4153.6014   -44764.081    350.08544   0.96462677 
   30100    301.52946   -938.84608    142925.45   -40601.293    4140.7811   -44742.074    352.12701   0.96446447 
   30200    300.73507   -1259.3555    142724.06   -40622.694     4129.872   -44752.566    353.06658   0.96582537 
   30300    297.85538   -984.12623    142554.58   -40657.867    4090.3264   -44748.193      353.422   0.96697358 
   30400    297.79427   -986.10623    142557.26   -40805.696    4089.4871   -44895.183    354.48432   0.96695543 
   30500    295.13255   -1187.8337    142580.41   -40774.812    4052.9348   -44827.747    355.51709    0.9667984 
   30600    293.24672   -1005.3788    142627.19   -40821.372    4027.0376   -44848.409    356.94322   0.96648131 
   30700    299.75697   -1098.2302    142814.59   -40704.244    4116.4402   -44820.684    358.35759   0.96521312 
   30800    298.54515   -746.98259    142653.54   -40672.704    4099.7987   -44772.503    359.29934    0.9663028 
   30900    295.31191   -1023.0191    142618.12   -40715.519    4055.3979   -44770.917    360.14672    0.9665428 
   31000    299.09909   -958.31017    142765.11   -40685.569    4107.4057   -44792.974    361.65876   0.96554767 
   31100    295.21301   -1117.3836    142497.97   -40814.788    4054.0398   -44868.828    362.30705   0.96735779 
   31200     298.3328   -1020.1539    142512.12   -40762.996    4096.8825   -44859.879    363.39759   0.96726174 
   31300    296.86323   -954.26973     142526.6   -40769.317    4076.7016   -44846.019    364.47824   0.96716346 
   31400    295.92012   -1062.0269    142702.69   -40763.537    4063.7502   -44827.287    365.93968      0.96597 
   31500     299.2133   -865.48335    142713.21   -40654.197    4108.9741   -44763.171    366.92395    0.9658988 
   31600    301.12221   -1068.1909    142695.09   -40773.972    4135.1884    -44909.16      367.801   0.96602145 
   31700     299.4225   -1157.9759    142816.52   -40762.248     4111.847   -44874.095    369.97701   0.96520007 
   31800    298.05855   -1221.9128     142897.2   -40747.534    4093.1164   -44840.651     371.0048   0.96465515 
   31900    307.06609    -957.4912    142872.34   -40623.786    4216.8133     -44840.6    372.34247   0.96482298 
   32000    301.03056    -1076.268    142931.63   -40669.472    4133.9299   -44803.402    373.94086   0.96442277 
   32100    295.74816   -931.94922    143120.48   -40679.414    4061.3887   -44740.802    375.04195   0.96315017 
   32200     294.8039   -953.16391    143044.02   -40688.196    4048.4217   -44736.618     375.8935   0.96366502 
   32300    298.64984   -1100.7456    142966.41   -40668.644    4101.2364   -44769.881    377.30499   0.96418814 
   32400    297.59102   -993.61622    142713.26   -40577.438    4086.6961   -44664.134    378.60726   0.96589843 
   32500    299.63562   -1047.0621    142739.37    -40667.63    4114.7737   -44782.404    380.45553   0.96572179 
   32600    295.69734   -1081.7335    142761.99   -40750.324    4060.6909   -44811.015    382.04609   0.96556876 
   32700    301.56698   -1093.6507    143028.49   -40655.942    4141.2963   -44797.238     382.5597   0.96376962 
   32800    295.08032   -769.14264    142808.12   -40756.902    4052.2176    -44809.12    383.38652   0.96525686 
   32900    292.44086   -754.65205    142661.47   -40819.822     4015.971   -44835.794    384.62548   0.96624909 
   33000    295.33365   -1015.7512    142780.22   -40769.807    4055.6965   -44825.504    387.04179   0.96544545 
   33100    299.22213    -992.0623    142884.92   -40695.032    4109.0954   -44804.127    388.31325   0.96473806 
   33200    304.11953   -1034.0702    143000.07   -40645.448    4176.3494   -44821.797      389.571   0.96396116 
   33300    295.73303   -928.07602    143007.43   -40683.141    4061.1811   -44744.322    390.72164   0.96391154 
   33400    300.24101   -807.23006    143076.52    -40666.54    4123.0872   -44789.627    392.15457   0.96344614 
   33500    296.89119   -1185.7409    142893.33   -40595.624    4077.0856   -44672.709    393.18167   0.96468127 
   33600    300.13716    -1101.995     142703.5   -40651.286    4121.6612   -44772.948    394.14158    0.9659645 
   33700    298.71371   -1167.0986    142468.52    -40632.36    4102.1135   -44734.474    395.32254    0.9675577 
   33800    298.95207   -926.06945    142572.15   -40647.197    4105.3867   -44752.584    396.56009   0.96685441 
   33900    303.25308   -959.53457    142777.56   -40644.024    4164.4508   -44808.474    398.32346   0.96546347 
   34000     296.2255   -753.91046    142946.33   -40720.251    4067.9439   -44788.195    400.15013   0.96432356 
   34100    295.87961   -968.25164    142656.92   -40807.965    4063.1939   -44871.159     399.9372    0.9662799 
   34200    302.36085   -727.53562    142564.66   -40796.359    4152.1982   -44948.557    401.26369   0.96690524 
   34300    295.98862   -1010.7504    142815.24   -40749.542     4064.691   -44814.233     402.0885   0.96520875 
   34400    299.78131   -992.33337       142487   -40582.016    4116.7743    -44698.79    402.02384   0.96743227 
   34500    300.48431   -786.76077    142670.37   -40560.981    4126.4285   -44687.409     404.0155    0.9661888 
   34600    296.93011   -1002.9321    142430.76   -40682.685    4077.6201   -44760.305    405.29915   0.96781422 
   34700    296.12356   -1191.9384    142385.28   -40695.669     4066.544   -44762.213    406.23736   0.96812336 
   34800    302.67204   -865.76073    142583.67   -40705.803    4156.4715   -44862.274    408.17584   0.96677632 
   34900    296.84308   -1010.1535     142490.7   -40731.164    4076.4248   -44807.588    408.57182    0.9674071 
   35000    294.61639   -1087.0189    142594.33   -40763.528    4045.8466   -44809.375     410.0631   0.96670408 
   35100     296.8651   -1116.3128    142221.66   -40697.247    4076.7273   -44773.974    410.26018   0.96923716 
   35200    303.02779   -1147.3638    142236.44   -40540.114     4161.357   -44701.471    411.07547   0.96913641 
   35300    297.89023   -1080.9484    142481.47   -40628.373     4090.805   -44719.179    412.83114   0.96746979 
   35400    297.75262   -899.00846    142461.71   -40746.063    4088.9153   -44834.979    412.86916     0.967604 
   35500    296.01152   -1044.1577    142557.02    -40731.97    4065.0054   -44796.975    414.40057   0.96695709 
   35600    295.89867   -954.97302    142514.96   -40731.616    4063.4557   -44795.072    414.91391   0.96724246 
   35700    300.96565   -971.39486    142415.61    -40689.46    4133.0385   -44822.498    415.93953   0.96791718 
   35800    301.65801   -1087.4481    142760.11   -40676.588    4142.5463   -44819.135    417.47548   0.96558148 
   35900    300.96977   -933.18042    142602.51   -40631.588     4133.095   -44764.683    418.17967   0.96664857 
   36000    301.81912   -701.00463    142860.69   -40688.283    4144.7588   -44833.042    419.95326   0.96490166 
   36100    297.23173   -1280.0683    142898.01    -40731.22    4081.7621   -44812.982    421.49154   0.96464967 
   36200    295.83468   -970.22133    143311.52   -40637.916     4062.577   -44700.493    423.32466   0.96186626 
   36300     300.8081   -1099.2464    143567.14   -40581.337    4130.8748   -44712.212    424.41782   0.96015367 
   36400    305.09118   -869.98677    143330.41   -40487.885    4189.6927   -44677.578      425.227   0.96173948 
   36500      307.252   -1136.6603    143500.91   -40486.991    4219.3663   -44706.357    426.28302   0.96059682 
   36600    300.67569   -1066.7479    143408.37   -40604.762    4129.0566   -44733.818    427.21275    0.9612167 
   36700    296.35189   -1018.5842    143225.86   -40638.616    4069.6796   -44708.296    427.31586   0.96244155 
   36800    295.77193   -870.98736    143166.51   -40687.105    4061.7152    -44748.82    427.23776   0.96284051 
   36900    299.49437    -972.3373    143420.13    -40688.91    4112.8339   -44801.744    429.53117   0.96113783 
   37000    299.15533   -1293.6265    143042.71    -40678.37    4108.1781   -44786.549    430.30078   0.96367381 
   37100     296.0945   -875.83896    143254.69   -40700.738    4066.1449   -44766.883     431.8251   0.96224784 
   37200     299.8992   -981.52584    142683.34   -40723.967    4118.3933    -44842.36    431.85214   0.96610096 
   37300    294.92914   -1121.4034    142502.32   -40709.062    4050.1415   -44759.203    432.22983   0.96732826 
   37400    304.12565   -916.77264    142735.06   -40790.365    4176.4334   -44966.799    433.67605   0.96575095 
   37500    291.99706   -1064.5173    142688.14   -40831.544    4009.8765    -44841.42      435.278   0.96606847 
   37600    295.55374   -1135.5224    142909.11   -40760.051    4058.7189    -44818.77    436.86244    0.9645747 
   37700    295.42769   -953.22097    142782.07    -40804.38    4056.9879   -44861.368    438.22078   0.96543296 
   37800    297.33979     -1033.93    142790.38   -40785.493    4083.2459   -44868.739    440.12655   0.96537678 
   37900    295.00723   -822.44412    142769.56    -40790.45    4051.2139   -44841.664    441.42713   0.96551755 
   38000    293.16262   -886.37607    142356.91   -40798.966    4025.8827   -44824.848    442.61709   0.96831628 
   38100    299.20756   -804.31255    142517.97    -40781.59    4108.8954   -44890.486    444.41772     0.967222 
   38200    292.87237   -1045.7555    142588.49   -40821.136    4021.8968   -44843.033    445.82109   0.96674365 
   38300    291.78744   -1184.5454     142641.1   -40852.329    4006.9978   -44859.327    447.35856   0.96638711 
   38400    295.07342   -914.46972    142843.58   -40921.466    4052.1228   -44973.589    448.39476   0.96501723 
   38500    294.04913   -983.45175     142873.4   -40861.791    4038.0567   -44899.848    448.96041   0.96481579 
   38600    295.35658   -1163.4521    142869.41   -40738.308    4056.0114   -44794.319    450.14774   0.96484278 
   38700    296.69686   -1256.2459    142606.88   -40750.247     4074.417   -44824.664    451.28532   0.96661898 
   38800    302.06652   -743.21952    142988.85   -40748.012    4148.1563   -44896.169    452.94695    0.9640368 
   38900    301.03823   -929.77179    142941.55   -40695.701    4134.0352   -44829.737    453.86382   0.96435582 
   39000    301.02938   -1072.8159     142615.3   -40669.943    4133.9136   -44803.856    453.75124   0.96656194 
   39100    303.31324   -1149.9701    142459.33   -40760.636    4165.2769   -44925.913    454.73721   0.96762011 
   39200     299.4132   -963.53184    142422.81   -40726.972    4111.7193   -44838.691    456.56841   0.96786826 
   39300    300.57878   -898.81924    142419.73   -40697.086    4127.7257   -44824.812    457.28881   0.96788922 
   39400    296.30185   -759.20912    142646.77   -40678.676    4068.9923   -44747.669    458.91756   0.96634865 
   39500    301.62015   -1018.3483    142615.39    -40606.44    4142.0265   -44748.466    459.92553   0.96656129 
   39600    300.91168   -901.10199    142755.25   -40605.511    4132.2973   -44737.808    461.24113   0.96561435 
   39700    299.65667   -1155.1866    142756.63   -40721.144    4115.0628   -44836.206    462.71174   0.96560501 
   39800    297.95268   -1043.0065    142832.28   -40735.001    4091.6626   -44826.663    463.55783   0.96509356 
   39900     296.3008   -1121.8004    142757.85   -40860.399    4068.9779   -44929.377    464.30228   0.96559672 
   40000    294.89128   -975.99122    142691.45   -40745.155    4049.6216   -44794.777    465.60824   0.96604609 
   40100    302.60247   -1159.1172    142569.35    -40697.29    4155.5162   -44852.806    466.46664   0.96687344 
   40200    297.79183   -1125.2176    142595.04   -40640.095    4089.4537   -44729.549    468.04657   0.96669924 
   40300    302.34863   -1050.4326    142909.76   -40672.933    4152.0304   -44824.964     469.2619   0.96457032 
   40400    299.15629   -1065.9823    143001.15   -40680.535    4108.1912   -44788.726    470.85394   0.96395387 
   40500    299.14332   -1057.7957    142609.48   -40670.222    4108.0132   -44778.235    470.57049   0.96660135 
   40600    295.96549   -1124.9277    142392.52   -40670.256    4064.3732   -44734.629    471.34081   0.96807416 
   40700    298.37155   -1228.5255    142520.55   -40654.179    4097.4148   -44751.594    473.29156   0.96720452 
   40800    301.97847   -1030.2665    142566.79   -40674.322    4146.9471   -44821.269     474.4806   0.96689077 
   40900    299.71728   -1065.7304    142673.63    -40708.28    4115.8951   -44824.175    476.15309   0.96616672 
   41000    298.33822   -832.29691    142836.09   -40742.023     4096.957    -44838.98    478.15114   0.96506781 
   41100    299.60481   -911.65235    143089.46    -40711.83    4114.3505   -44826.181    480.05344     0.963359 
   41200     303.0448   -1170.3658    142725.23   -40659.455    4161.5905   -44821.045     479.4521   0.96581742 
   41300    299.09728   -894.97035     143054.6   -40814.813    4107.3809   -44922.194    481.06657   0.96359374 
   41400    295.32341   -1054.6317    142642.16   -40796.279    4055.5559   -44851.834    480.53703    0.9663799 
   41500     297.8521   -902.22547    142792.08   -40764.703    4090.2813   -44854.984    482.34689   0.96536528 
   41600    301.83056   -1216.5194    142547.62    -40752.34    4144.9159   -44897.255    481.96044    0.9670208 
   41700    291.49083   -1091.5218     142533.1    -40831.03    4002.9246   -44833.955    482.87882   0.96711932 
   41800    298.94228   -792.22225       142678   -40679.793    4105.2523   -44785.045    484.55003   0.96613718 
   41900    302.58323   -996.02801    142720.36    -40683.96     4155.252   -44839.212    486.30392   0.96585037 
   42000     303.7064   -1058.3798    142463.45   -40689.189     4170.676   -44859.865    487.12008   0.96759216 
   42100    297.74087   -858.86825    142479.61   -40694.723    4088.7539   -44783.477    489.03627   0.96748245 
   42200    304.55108   -960.72949    142385.11   -40684.767    4182.2757   -44867.042    491.21723   0.96812453 
   42300    291.71423   -822.48431    142938.13   -40790.539    4005.9925   -44796.532    494.03789   0.96437889 
   42400    302.36721   -790.40085    142673.49       -40730    4152.2854   -44882.286     494.3639   0.96616767 
   42500     294.0556   -1410.4647     143000.7    -40790.84    4038.1455   -44828.986    496.21064   0.96395693 
   42600    292.83485   -1094.8059    142776.74   -40744.884    4021.3814   -44766.265    496.43094   0.96546898 
   42700    294.47045   -1120.7088     142866.6   -40832.343    4043.8425   -44876.186    497.46654   0.96486174 
   42800    296.74784   -1021.0713    142969.41    -40811.23    4075.1169   -44886.347    498.95731   0.96416791 
   42900     295.5706     -945.224    142718.14   -40730.581    4058.9504   -44789.532    500.42461   0.96586541 
   43000    298.68126    -905.7786    142765.55   -40690.636    4101.6679   -44792.304    502.48974   0.96554471 
   43100    297.68138   -916.84398    142717.16   -40749.516    4087.9369   -44837.453    503.10528   0.96587208 
   43200    297.93797   -889.48336    142470.41   -40765.809    4091.4605   -44857.269    503.68395   0.96754485 
   43300    298.16376   -1009.5939    142643.12   -40784.927    4094.5613   -44879.488    505.03121   0.96637341 
   43400    295.94382    -835.0168    142748.12   -40762.768    4064.0757   -44826.844    506.38659   0.96566255 
   43500    304.76816   -1235.7791    142926.82   -40752.078    4185.2568   -44937.334    507.66572   0.96445522 
   43600    301.81633    -951.0354    142985.86   -40759.732    4144.7205   -44904.453    509.86326   0.96405699 
   43700     296.2203   -1002.6067    143252.55   -40709.886    4067.8724   -44777.758      511.775   0.96226224 
   43800    295.82389   -1021.6245    142936.76   -40682.692    4062.4287   -44745.121    512.29948   0.96438811 
   43900    296.90815   -1017.2112    143040.12   -40746.269    4077.3184   -44823.588    513.88849   0.96369128 
   44000     303.2601   -1040.1129    142964.58   -40693.893    4164.5472    -44858.44    514.79129   0.96420045 
   44100    306.14933   -789.72115    142675.54   -40593.137    4204.2237   -44797.361    515.66404   0.96615381 
   44200    294.47542   -969.00885    142843.36   -40698.329    4043.9107    -44742.24    517.25625   0.96501875 
   44300    295.36481   -1032.4388     142551.8    -40819.57    4056.1243   -44875.694    517.71346   0.96699244 
   44400     296.3539   -1115.6286    142264.26   -40804.423    4069.7071    -44874.13    518.34976   0.96894689 
   44500    299.30885     -1172.71    142801.57   -40799.175    4110.2863   -44909.461    520.83715   0.96530114 
   44600    293.15017   -766.06782    142786.21   -40852.339    4025.7116    -44878.05    522.30553   0.96540499 
   44700      300.308   -957.58537    143144.67   -40824.503    4124.0072    -44948.51    523.06795   0.96298745 
   44800    297.58017   -1003.5715    143084.92   -40772.597    4086.5471   -44859.144     524.6068   0.96338957 
   44900    301.15834   -1324.3481       142701   -40817.135    4135.6846   -44952.819    525.05227   0.96598142 
   45000    300.63976   -1127.2293    142751.34   -40792.968    4128.5632   -44921.532    525.73084   0.96564076 
   45100    295.54116    -869.3687    142624.31   -40733.938    4058.5461   -44792.484    526.62253   0.96650087 
   45200    299.18033   -1024.3054    142512.91   -40789.074    4108.5213   -44897.596    527.73044   0.96725636 
   45300    301.95813   -1026.0131    142743.85   -40779.069    4146.6678   -44925.737    529.72888   0.96569144 
   45400      291.083   -919.16208    142705.07   -40798.948     3997.324   -44796.272    531.35574   0.96595385 
   45500    299.13683   -1053.6178    142399.05   -40716.458    4107.9239   -44824.382    532.09759   0.96802975 
   45600    294.00523   -1094.2169    142020.79   -40762.094    4037.4538   -44799.547    532.78194   0.97060804 
   45700    301.40152   -1014.1502    142397.12   -40695.061    4139.0241   -44834.086    535.05641   0.96804287 
   45800    299.72442   -1070.5925    142298.38   -40669.193    4115.9932   -44785.186     536.5111    0.9687146 
   45900    298.04723   -1084.5314    142643.83   -40634.969    4092.9609    -44727.93    539.46967   0.96636856 
   46000     298.3704   -965.34711    142431.28   -40657.661    4097.3989    -44755.06    540.51798   0.96781068 
   46100    296.21579   -1139.1332    142381.36   -40687.847    4067.8106   -44755.658    541.58302   0.96815005 
   46200    301.66559   -1065.7154    142702.54   -40627.964    4142.6504   -44770.615    543.80227     0.965971 
   46300    295.45667   -839.35449    142563.06   -40692.169    4057.3859   -44749.555    545.59235   0.96691607 
   46400    297.64239   -942.28723    142852.63   -40685.625    4087.4014   -44773.027    547.66642   0.96495607 
   46500    299.25408   -1083.4265    142376.06    -40659.24    4109.5342   -44768.774    547.30505   0.96818609 
   46600    307.05796   -1031.6844    142376.47   -40598.601    4216.7016   -44815.302    548.38875    0.9681833 
   46700    305.98424   -953.45315    142655.59   -40550.053    4201.9567    -44752.01    551.10126   0.96628892 
   46800    304.13034   -1010.6686     142795.8   -40512.218    4176.4979   -44688.716    552.65397   0.96534014 
   46900    302.87502   -892.65364    142899.25   -40534.614    4159.2591   -44693.873    554.67566   0.96464132 
   47000    294.73276   -838.09373    142911.93   -40595.864    4047.4446   -44643.308    556.37432   0.96455573 
   47100    300.55245   -1050.7674    142721.34   -40618.984    4127.3642   -44746.348    556.38918   0.96584375 
   47200    300.02452   -997.76286     142845.6   -40628.225    4120.1143   -44748.339    558.06055   0.96500362 
   47300    299.14899   -825.58762    143098.66    -40576.28     4108.091   -44684.371    559.84006   0.96329705 
   47400    306.09214   -894.93705    143156.96    -40630.05    4203.4384   -44833.488    561.92974   0.96290474 
   47500    301.00372   -1095.0889    142905.47    -40664.43    4133.5613   -44797.992     561.7172   0.96459928 
   47600    302.20245   -1107.8701    142538.57   -40654.993     4150.023   -44805.016    562.12663   0.96708221 
   47700    294.12892   -864.66784    142472.15   -40765.319    4039.1524   -44804.471    562.87421   0.96753304 
   47800     295.7989   -890.64696    142606.76   -40773.974    4062.0855    -44836.06     564.5185   0.96661979 
   47900    297.68839   -980.41546    142890.14   -40719.184    4088.0332   -44807.217    567.23775   0.96470278 
   48000     293.5628    -1184.118    142708.14   -40717.172    4031.3781    -44748.55    568.06808   0.96593309 
   48100    298.69317   -1062.9868    142513.53   -40751.222    4101.8314   -44853.053    568.91185   0.96725213 
   48200    294.89554   -853.91393    142563.53   -40728.805    4049.6801   -44778.486    571.10062   0.96691293 
   48300    299.09136   -1085.0045    142782.79   -40713.697    4107.2996   -44820.997     573.1161   0.96542811 
   48400    298.87865   -966.97755    142889.42   -40703.801    4104.3785   -44808.179    575.43671   0.96470764 
   48500    296.14915   -1174.5511    142838.32   -40776.881    4066.8954   -44843.776     576.9049   0.96505274 
   48600    301.07922   -1094.5815    142881.36   -40742.841     4134.598   -44877.439    577.50761   0.96476206 
   48700     295.0822   -1214.2705     142646.1   -40841.677    4052.2434    -44893.92    578.23708   0.96635318 
   48800    299.89923   -993.02984    142438.09   -40812.999    4118.3938   -44931.392    579.02576   0.96776444 
   48900    300.26758   -937.05322    142569.47   -40782.462    4123.4521   -44905.914    580.78571   0.96687261 
   49000    297.44458   -1029.3207    142269.11   -40762.941    4084.6851   -44847.626    581.93547   0.96891388 
   49100    295.43764   -797.62123    142363.97   -40835.245    4057.1245   -44892.369    583.43778   0.96826828 
   49200    293.94349   -1095.9473    142458.71   -40847.586     4036.606   -44884.192    585.39792   0.96762433 
   49300    300.79686   -942.77253    142656.32   -40760.782    4130.7205   -44891.503    586.55588   0.96628396 
   49400    300.87423   -764.90771    142381.79   -40795.146     4131.783   -44926.929    586.72519   0.96814713 
   49500    294.09925   -1157.3525    142777.23   -40751.282     4038.745   -44790.027    588.31353    0.9654657 
   49600     295.0236   -1042.9384    142894.48   -40739.669    4051.4388   -44791.108    590.26372   0.96467348 
   49700     296.3606   -804.76041    143017.83   -40657.909    4069.7991   -44727.708    591.88332   0.96384147 
   49800    298.54086   -1142.9294     143007.9   -40619.974    4099.7398   -44719.714    593.21104   0.96390844 
   49900    299.49975   -896.38426    142627.59   -40663.785    4112.9078   -44776.692    592.97131   0.96647865 
   50000    299.36482   -1296.2892    142690.57   -40736.145    4111.0549     -44847.2    593.11701   0.96605206 
   50100    297.75005   -740.16877    142765.33   -40726.262    4088.8799   -44815.142    595.02277   0.96554615 
   50200    296.54173   -1136.1076    142872.49   -40753.801    4072.2866   -44826.088    596.36173   0.96482193 
   50300    300.44523   -1209.5185    143187.93   -40688.952    4125.8918   -44814.844      598.421   0.96269651 
   50400    295.02189   -901.31419    142981.35   -40768.126    4051.4152   -44819.541    600.18796   0.96408741 
   50500    298.60171   -933.55744     143182.3   -40742.636    4100.5755   -44843.212    602.48966   0.96273433 
   50600    299.68174   -993.05111    143152.14   -40753.388     4115.407   -44868.795    603.22299   0.96293719 
   50700    303.35304   -1049.1973    143296.72   -40679.524    4165.8234   -44845.348    604.09408   0.96196561 
   50800     301.9516   -794.45789    143451.84   -40625.057    4146.5781   -44771.635    604.46076   0.96092543 
   50900    300.17752   -1176.2012    143588.04   -40684.394    4122.2154    -44806.61    605.34788   0.96001391 
   51000    294.00391   -1181.7187    142900.67   -40747.715    4037.4357   -44785.151    604.69629   0.96463172 
   51100    300.67898   -975.14911    142858.89   -40689.759    4129.1017   -44818.861    605.30467   0.96491384 
   51200     306.6079   -713.05159    143177.03   -40582.576    4210.5212   -44793.097    607.28566   0.96276975 
   51300    300.86742    -964.9334    143327.31   -40629.044    4131.6895   -44760.734    608.19266   0.96176028 
   51400    293.68495   -1012.9997    143462.84   -40797.055    4033.0556   -44830.111    609.17939   0.96085171 
   51500     296.1722   -919.23702    143553.38   -40746.937    4067.2119   -44814.149    610.68448   0.96024571 
   51600    297.53163   -967.30805     143707.1   -40724.271    4085.8805   -44810.151    612.37832   0.95921855 
   51700    295.97301   -978.85059    143816.57   -40730.869    4064.4765   -44795.345    613.58111   0.95848843 
   51800    293.32552   -982.91641    143855.29   -40719.017    4028.1197   -44747.137    615.72907   0.95823041 
   51900    296.08564   -1088.7705    143300.28   -40799.148    4066.0233   -44865.171    615.42607   0.96194169 
   52000    296.20166   -878.32073    143233.13   -40726.135    4067.6165   -44793.751    615.64554   0.96239266 
   52100    301.46036   -801.55166    143150.52   -40750.616    4139.8322   -44890.448    615.56985   0.96294806 
   52200    300.11869   -885.47103    143085.24   -40790.835    4121.4075   -44912.243    616.49305    0.9633874 
   52300    296.46377   -1051.8165    142785.47   -40808.922     4071.216   -44880.138     617.0797      0.96541 
   52400    296.48293   -1245.8094    143400.77   -40706.248    4071.4791   -44777.727    619.45833   0.96126761 
   52500    298.57837   -1291.4521    143188.42   -40747.217    4100.2548   -44847.472    621.03609   0.96269321 
   52600    294.94488    -1116.514    142751.42   -40805.661    4050.3577   -44856.019    620.98108   0.96564027 
   52700    298.41166   -903.28188    143112.45   -40781.071    4097.9655   -44879.037    623.55578   0.96320422 
   52800    293.68178   -1040.8663    143118.02   -40857.388     4033.012     -44890.4     624.7801   0.96316672 
   52900    295.73946    -802.2543    142922.28   -40887.215    4061.2693   -44948.485    624.40071   0.96448587 
   53000     293.8869   -916.87259     142956.8   -40921.026    4035.8288   -44956.854     625.6076   0.96425294 
   53100    293.14254   -1054.0196    142707.23    -40929.53    4025.6069   -44955.137    625.98834   0.96593927 
   53200    303.30091   -989.50355    142508.81   -40777.372    4165.1076    -44942.48    627.56396   0.96728417 
   53300    296.83971   -1029.7456    142329.89    -40783.58    4076.3786   -44859.959    627.26294   0.96850014 
   53400    299.96557     -733.167     142724.5   -40634.729    4119.3048   -44754.034     628.9168    0.9658224 
   53500    297.28053    -1082.042    142613.38   -40629.239    4082.4322   -44711.671     629.5457   0.96657494 
   53600    298.63409   -1078.2289    142590.34   -40585.832    4101.0202   -44686.853    630.41698   0.96673108 
   53700    301.34996   -972.98677    142173.74   -40711.811    4138.3161   -44850.127    631.21198   0.96956383 
   53800    298.75576   -1035.3797    142512.46   -40778.472    4102.6909   -44881.163    633.46419   0.96725941 
   53900    297.69024    -991.2035    142556.38   -40840.493    4088.0586   -44928.552    635.72578   0.96696138 
   54000    296.25178   -1073.5276    142633.99   -40760.466    4068.3048   -44828.771    636.52823   0.96643524 
   54100    298.36643   -984.68103    142803.66     -40732.8    4097.3444   -44830.144    638.87327   0.96528702 
   54200    298.05215   -739.71462    142444.11   -40832.285    4093.0286   -44925.314    639.11152   0.96772352 
   54300    295.77311   -979.13221    142887.78   -40743.512    4061.7314   -44805.243    642.16378   0.96471874 
   54400    293.04994   -764.98875    142719.54   -40867.271    4024.3352   -44891.607    642.46392   0.96585593 
   54500     298.1955   -807.97975    142620.43   -40816.439    4094.9971   -44911.436     643.9013   0.96652713 
   54600    298.11223   -1001.5254    142632.98   -40801.235    4093.8536   -44895.088     645.5478   0.96644211 
   54700    297.63369   -925.48387    142666.84     -40799.9     4087.282   -44887.182    647.02214    0.9662127 
   54800    297.54492    -885.5799    142902.63   -40755.876     4086.063   -44841.939     649.5171   0.96461847 
   54900    299.55717    -835.3746    143123.57   -40667.456    4113.6964   -44781.152    651.36946   0.96312936 
   55000     299.0329   -738.37125    143096.51   -40594.668    4106.4968   -44701.164    651.92854   0.96331153 
   55100    302.59302   -1082.1227    143333.06    -40623.09    4155.3864   -44778.476    653.47415   0.96172173 
   55200     302.6247   -779.58111    143036.91   -40672.368    4155.8214   -44828.189    654.06222   0.96371288 
   55300     299.6429   -1124.3767    142964.66    -40673.73    4114.8736   -44788.604     655.7789   0.96419995 
   55400    304.06847   -1005.5777    143027.26   -40652.987    4175.6482   -44828.636    657.44827   0.96377792 
   55500    301.12032   -962.58132    143327.72   -40579.146    4135.1625   -44714.309    658.51991   0.96175757 
   55600    304.52379   -999.35835    143193.39   -40560.965    4181.9009   -44742.866    658.51117   0.96265979 
   55700    299.06992   -906.26567    143367.36   -40623.569    4107.0052   -44730.574    659.65401   0.96149163 
   55800    298.12342   -1130.1746    143160.62   -40743.017    4094.0072   -44837.024     660.2926    0.9628801 
   55900    296.89154   -776.40283    142792.32   -40799.636    4077.0903   -44876.726     660.1045   0.96536367 
   56000    300.43806   -809.62507     143115.3   -40816.523    4125.7933   -44942.316    662.22738   0.96318504 
   56100    291.62372   -1041.5939    143258.02   -40831.029    4004.7495   -44835.778    663.51332   0.96222551 
   56200    301.11254   -971.02361    143490.81   -40733.197    4135.0557   -44868.253    666.29871    0.9606644 
   56300    297.60774   -927.86001    143785.24   -40676.997    4086.9256   -44763.922    668.26033   0.95869725 
   56400    309.05949   -1085.0532    143698.22   -40574.088    4244.1879   -44818.276    668.39207   0.95927783 
   56500    300.35266   -980.81944    143309.75   -40703.093    4124.6205   -44827.714    668.34422   0.96187812 
   56600    305.70655   -1147.5744    143373.84   -40685.277    4198.1433   -44883.421    670.40762    0.9614482 
   56700    292.42659    -889.8861    143230.67   -40721.898    4015.7751   -44737.673    669.86496   0.96240922 
   56800    300.38405    -1136.651    143231.29   -40629.181    4125.0515   -44754.232    670.81763   0.96240507 
   56900    295.96267   -1024.8248    143259.14   -40689.488    4064.3346   -44753.823    672.88108   0.96221794 
   57000     300.0112   -1174.1702    143117.65   -40737.415    4119.9314   -44857.346    674.07316   0.96316922 
   57100    290.74726   -1209.9127    142579.96    -40907.23    3992.7135   -44899.944    673.43966   0.96680149 
   57200    297.69755   -889.24268    142561.36   -40937.626    4088.1589   -45025.785    674.60708   0.96692761 
   57300    291.36228   -922.77283    142843.65   -40881.451    4001.1593   -44882.611      675.873   0.96501677 
   57400    297.68317   -1000.9143    142661.14   -40803.918    4087.9615    -44891.88    676.52512   0.96625132 
   57500    296.56673   -685.67584    142638.54   -40797.151    4072.6298    -44869.78    677.41874   0.96640441 
   57600    295.32688     -1018.12    142800.44   -40874.726    4055.6035   -44930.329    679.05509   0.96530874 
   57700      295.574     -999.435    142712.72   -40756.855    4058.9972   -44815.852    679.46665   0.96590212 
   57800     293.0318   -912.28677    142621.63   -40711.132    4024.0862   -44735.218    679.76774   0.96651899 
   57900    294.17758   -1051.4428    143090.21   -40803.383    4039.8206   -44843.203     683.0805   0.96335391 
   58000    300.32263   -860.85111     142990.9   -40776.748    4124.2082   -44900.956    683.68117   0.96402298 
   58100    301.15939   -890.81696    142917.28   -40689.555    4135.6991   -44825.254    685.18557   0.96451959 
   58200    292.86373   -1052.4056    142905.72   -40799.519    4021.7781   -44821.297    686.22654   0.96459761 
   58300    297.12387   -918.64481    142848.26    -40750.09    4080.2808   -44830.371    686.54042   0.96498559 
   58400     302.2669   -954.06439    142894.59    -40697.68     4150.908   -44848.588    687.52712   0.96467276 
   58500    301.40714   -944.74088    142658.81   -40660.881    4139.1013   -44799.983    687.57151   0.96626712 
   58600    300.89519   -1006.8608    142834.54    -40713.31    4132.0708   -44845.381    689.03642   0.96507829 
   58700     301.5899   -732.99936    142964.96   -40721.888    4141.6111   -44863.499    690.94683    0.9641979 
   58800    299.76618    -1121.465    143499.28   -40637.783    4116.5666   -44754.349    694.17201    0.9606077 
   58900    299.60484   -1080.1319    142781.92    -40668.96    4114.3509   -44783.311    691.98437     0.965434 
   59000     298.8179   -1101.1477    142896.88   -40679.156    4103.5442   -44782.701    693.72514   0.96465728 
   59100    296.54323   -1060.8634    142979.67   -40678.751    4072.3071   -44751.058    694.96626   0.96409873 
   59200    295.93492   -951.86891    143182.03   -40728.438    4063.9535   -44792.392    695.58132   0.96273615 
   59300    299.92424   -1106.2597    143140.49   -40677.608    4118.7372   -44796.345     696.1609   0.96301556 
   59400    294.29256    -1058.576    142927.71   -40689.003    4041.3997   -44730.403    696.61182   0.96444923 
   59500     297.4557   -1062.8906    142422.59   -40690.336    4084.8377   -44775.174    694.85128   0.96786974 
   59600    307.38001    -956.1167    142208.74   -40627.649    4221.1243   -44848.773    696.17467   0.96932521 
   59700    303.45909   -823.79857    142159.77   -40624.417    4167.2799   -44791.697     697.0574   0.96965912 
   59800    300.38673   -1010.4803    142354.47   -40700.754    4125.0884   -44825.843    699.08894   0.96833292 
   59900    298.19982   -993.76958    142270.62    -40695.19    4095.0564   -44790.246    700.25464   0.96890359 
   60000    290.82941   -885.77639    142581.21   -40724.661    3993.8415   -44718.503    702.70141   0.96679298 
   60100    294.22811   -878.74719    142944.82    -40751.21    4040.5145   -44791.725    706.36192   0.96433373 
   60200    301.04712   -1200.2311    142992.99   -40726.319    4134.1572   -44860.476     707.5725   0.96400892 
   60300     305.5295   -1068.7677    143006.59   -40656.115    4195.7119   -44851.827    708.24942   0.96391721 
   60400    299.16769    -1017.728    143030.81   -40731.453    4108.3478   -44839.801    708.84629   0.96375399 
   60500    292.94597   -834.56672    142905.38   -40818.914    4022.9074   -44841.822    708.80998   0.96459993 
   60600    298.94123   -776.53817    143090.46   -40714.537    4105.2379   -44819.775    710.62419   0.96335222 
   60700    302.64596   -1081.4433    143158.71   -40730.215    4156.1135   -44886.328    712.05851   0.96289296 
   60800     297.4117   -1152.7364     142877.1   -40760.092    4084.2335   -44844.326    712.61761   0.96479085 
   60900    300.91091   -1167.4111    142793.73   -40672.817    4132.2867   -44805.103    713.45458   0.96535412 
   61000    304.98918   -945.57355    142581.31   -40611.263     4188.292   -44799.555    713.15643   0.96679236 
   61100     301.6515   -866.03207    142796.77   -40606.352     4142.457   -44748.809    714.17759   0.96533357 
   61200     304.3358    -904.8269     143065.9   -40634.466    4179.3193   -44813.785    716.09053    0.9635176 
   61300    299.10495   -1102.2119    142898.43    -40593.02    4107.4862   -44700.507     716.3349   0.96464685 
   61400    306.66082   -977.66418     143047.9   -40525.998    4211.2479   -44737.246    717.44336   0.96363884 
   61500    302.78508   -1052.8021    142901.58   -40563.524    4158.0239   -44721.548    718.48383   0.96462558 
   61600    300.43059   -976.61366    143246.45   -40627.271    4125.6907   -44752.961    721.00506   0.96230322 
   61700    302.38757   -1032.6723    143521.42    -40609.04    4152.5652   -44761.605    722.34359   0.96045957 
   61800    299.58323   -988.92377    143318.78   -40584.256    4114.0543    -44698.31    723.95376   0.96181756 
   61900    297.48897   -776.87972    143434.84   -40628.736    4085.2946   -44714.031    726.43611   0.96103928 
   62000    303.20337   -1122.2049    143307.13   -40611.228    4163.7681   -44774.996    726.80105   0.96189576 
   62100    302.65683   -1020.9337    142890.66    -40696.21    4156.2627   -44852.473    727.15413    0.9646993 
   62200    297.97544   -936.13686    142861.38   -40746.446    4091.9752   -44838.421    728.21309   0.96489702 
   62300    298.32189   -1173.6767    143113.05   -40760.719    4096.7328   -44857.452    729.89259   0.96320022 
   62400    289.30415   -911.89359    143229.42   -40807.814    3972.8958    -44780.71    730.87167   0.96241764 
   62500    297.37919   -991.53299    143065.31   -40777.812     4083.787   -44861.599    732.20755    0.9635216 
   62600    300.58757   -837.21551    143183.23   -40698.287    4127.8465   -44826.133    733.88897   0.96272812 
   62700    297.59052   -1001.9628    143196.23   -40772.714    4086.6891   -44859.403    735.90512   0.96264068 
   62800    297.50953   -1040.2814    142903.22   -40707.815     4085.577   -44793.392    736.05173   0.96461452 
   62900    300.09789   -1167.7255    143068.66   -40756.453    4121.1219   -44877.575    737.41804   0.96349905 
   63000    298.09897   -915.61878    143062.18   -40721.876    4093.6714   -44815.547    739.27596   0.96354271 
   63100    300.00426   -1068.4745    143228.08   -40725.569    4119.8361   -44845.406    740.82361   0.96242665 
   63200    294.65703   -762.03537    143061.83   -40795.602    4046.4048   -44842.007    740.60282   0.96354505 
   63300    295.16337   -977.76188    142955.68   -40857.426    4053.3581   -44910.784    741.10744   0.96426053 
   63400    297.33511   -1145.6582    142756.31   -40876.591    4083.1817   -44959.773    741.16525   0.96560716 
   63500    303.51915   -1052.3069    142936.06   -40765.987    4168.1046   -44934.092    742.40859   0.96439289 
   63600    301.94902   -621.62924    143063.88    -40718.97    4146.5426   -44865.512    743.22154   0.96353126 
   63700    291.77524   -1003.7136    142781.86   -40831.587    4006.8304   -44838.418    743.09335   0.96543437 
   63800     299.3171   -944.53142    142891.53   -40810.649    4110.3996   -44921.049    744.37594   0.96469339 
   63900    293.95243    -883.1584    142823.59   -40808.566    4036.7288   -44845.295    745.47976   0.96515231 
   64000    295.61448   -1162.5813    142531.24   -40877.668     4059.553   -44937.221      745.549   0.96713196 
   64100    297.16855   -1026.4245    142763.34   -40852.216    4080.8945    -44933.11    747.39936   0.96555961 
   64200    291.00607   -1038.4354    142569.28   -40902.754    3996.2676   -44899.022    747.45028   0.96687393 
   64300    293.75886   -1161.2974    142539.68   -40927.812    4034.0706   -44961.882    748.44104   0.96707467 
   64400     288.8343    -890.5792     142295.6   -40977.611    3966.4435   -44944.055    750.12684   0.96873352 
   64500    294.86231   -1086.0575     142240.7   -40943.429    4049.2238   -44992.653    751.33956   0.96910742 
   64600    291.78067   -910.61144    141852.13   -40854.457    4006.9049   -44861.362     751.0518   0.97176207 
   64700    297.04765   -1031.9063    141907.36    -40762.93    4079.2341   -44842.164    752.47219   0.97138383 
   64800    293.47416   -1004.2303    142174.38   -40699.689    4030.1609    -44729.85    756.09163   0.96955944 
   64900    297.90909   -873.74337     142186.4   -40659.611    4091.0639   -44750.675    757.21008   0.96947753 
   65000    298.94851   -986.23867    142367.27   -40722.532    4105.3379    -44827.87    759.73383   0.96824581 
   65100    294.20219    -1009.912    142440.93   -40783.731    4040.1586    -44823.89    762.00748   0.96774514 
   65200    297.73469   -1228.0481    142179.77   -40767.618     4088.669   -44856.287    762.81688    0.9695227 
   65300    296.50365   -1020.5389    142352.24   -40764.241    4071.7637   -44836.005    764.00895   0.96834808 
   65400    296.42674   -985.24576    142661.45   -40844.708    4070.7075   -44915.416    767.16452   0.96624921 
   65500    298.16689   -963.81303    142852.22   -40691.563    4094.6042   -44786.167    769.25108   0.96495889 
   65600    305.82216   -984.72173    142901.36   -40617.407    4199.7309   -44817.138    769.93494   0.96462704 
   65700    298.58983   -1123.8562     142962.1   -40657.488    4100.4123     -44757.9    770.77101   0.96421722 
   65800    293.43137   -799.06766    142981.56   -40681.102    4029.5733   -44710.675    771.08176   0.96408598 
   65900    300.39049   -1113.5234    143075.62   -40650.076      4125.14   -44775.216    772.76709   0.96345217 
   66000    298.72371   -1031.5284    143098.92   -40748.058    4102.2508   -44850.309    773.36755   0.96329527 
   66100    294.73724   -821.85255    142966.67   -40681.432    4047.5062   -44728.939    774.13351   0.96418641 
   66200    299.22865   -828.95647    143128.68   -40636.635     4109.185    -44745.82    777.02589     0.963095 
[...]
   84600    298.20376   -985.75997     143094.8   -40806.043    4095.1106   -44901.154     988.0113   0.96332303 
   84700    299.82175   -1065.3351    142776.06   -40791.524    4117.3297   -44908.854    987.76537    0.9654736 
   84800    299.59943   -990.63216    142891.77   -40752.604    4114.2767   -44866.881    988.35092   0.96469177 
   84900    299.14071    -1053.358    143054.69   -40750.733    4107.9773   -44858.711    989.83263   0.96359316 
   85000    295.17723   -1095.7606    142853.57   -40760.869    4053.5484   -44814.417    990.45555   0.96494975 
   85100    298.21514   -1007.4698    143164.65    -40784.78    4095.2668   -44880.047    994.45692   0.96285302 
   85200    306.67078   -1070.9494    143200.21   -40698.694    4211.3847   -44910.079     995.2691   0.96261395 
   85300    298.10752   -896.73167    143167.59   -40733.666    4093.7889   -44827.455    996.51695   0.96283326 
   85400    299.70659   -1066.4657     143224.9   -40736.166    4115.7482   -44851.914    996.95644     0.962448 
   85500    298.36476   -1286.2179    143374.43   -40694.828    4097.3215    -44792.15    998.85708   0.96144419 
   85600    298.79706   -1027.0156    143076.75   -40681.138    4103.2582   -44784.396     998.7846   0.96344455 
   85700    294.94068   -982.48802    143188.14   -40722.778       4050.3   -44773.078    1001.4151   0.96269507 
   85800     299.4104   -1072.7462     142842.6   -40734.241    4111.6808   -44845.922     1000.976   0.96502388 
   85900    297.15158   -1222.9274    142583.12    -40782.26    4080.6614   -44862.921    1000.4338   0.96678008 
   86000    298.12246   -822.02788    142659.98   -40817.252    4093.9941   -44911.246    1003.0163   0.96625922 
   86100    302.97956   -1125.3187    142856.25    -40736.32    4160.6946   -44897.015    1005.0437   0.96493162 
   86200    300.45918   -1009.0016    142863.45   -40749.882    4126.0833   -44875.965    1006.3233   0.96488303 
   86300    299.23229   -805.98009     143025.5    -40749.93    4109.2349   -44859.165    1008.2418   0.96378981 
   86400    297.28912   -890.54669    143431.06   -40762.601    4082.5502   -44845.151    1010.6289    0.9610646 
   86500    296.61254   -1115.0391    143122.93   -40706.078     4073.259   -44779.336    1009.6441    0.9631337 
   86600    299.65787   -1024.7076    143390.18     -40683.6    4115.0792   -44798.679    1012.0324   0.96133864 
   86700    300.13512   -984.23447       143449   -40660.228    4121.6332   -44781.861    1012.3172   0.96094442 
   86800    296.60916   -1025.2298    143418.75    -40648.49    4073.2126   -44721.703    1013.3358   0.96114713 
   86900    296.81308   -1044.3477    143156.07   -40676.665    4076.0129   -44752.678    1012.3345   0.96291073 
   87000    295.25481   -1007.0016    142850.64   -40774.419    4054.6138   -44829.033    1011.6369   0.96496953 
   87100    296.46347   -914.93618    143069.44   -40689.374    4071.2119   -44760.586    1013.5079   0.96349376 
   87200    300.69345   -840.81061    142820.04   -40686.032    4129.3004   -44815.332    1012.7571   0.96517628 
   87300    297.09846   -802.33888    143239.68   -40601.545    4079.9319   -44681.477    1015.6769   0.96234871 
   87400    300.06706    -1194.689    142651.91   -40713.803    4120.6984   -44834.502    1013.0771   0.96631383 
   87500     295.7149   -820.00699    142500.58   -40757.934    4060.9321   -44818.866    1012.7827   0.96734001 
   87600    304.46977   -1031.0237    142177.05   -40733.617    4181.1591   -44914.776     1012.019   0.96954129 
   87700     299.2657   -908.91116    142234.24   -40775.838    4109.6937   -44885.532    1013.2812   0.96915141 
   87800    297.97546   -831.27015    142685.93   -40662.243    4091.9754   -44754.218     1017.153   0.96608348 
   87900    298.01835   -968.12178     142614.9   -40615.085    4092.5643    -44707.65    1016.4329    0.9665646 
   88000    298.17457   -1011.4972     142673.4   -40706.173    4094.7096   -44800.883    1017.3855   0.96616827 
   88100    305.82761   -839.86862    142487.06   -40670.645    4199.8058   -44870.451    1018.4366   0.96743185 
   88200    302.56577   -1243.0575    142418.82   -40646.365    4155.0123   -44801.377    1020.2662   0.96789537 
   88300    306.73991   -946.51335    142609.79   -40629.645    4212.3341   -44841.979    1021.9457   0.96659925 
   88400    294.24353   -1212.0786    142785.03   -40729.773    4040.7263     -44770.5    1024.7649   0.96541293 
   88500    298.75133   -1164.4296    142727.27   -40736.179    4102.6301   -44838.809    1026.4824   0.96580362 
   88600    294.24729   -932.10742    142556.01   -40684.548     4040.778   -44725.326     1027.823   0.96696393 
   88700    298.60224   -846.02985     143019.5   -40649.493    4100.5827   -44750.076    1031.4306    0.9638302 
   88800    297.03806   -1001.6075    142942.59   -40676.011    4079.1024   -44755.114    1032.6205   0.96434884 
   88900    296.51796   -1130.2281    143021.84   -40743.625    4071.9601   -44815.585     1033.623   0.96381445 
   89000    298.14248   -1114.4382    143080.82   -40646.865    4094.2691   -44741.134    1034.9883   0.96341718 
   89100    301.43173   -1251.3073    142800.66   -40665.249    4139.4389   -44804.688    1034.8179   0.96530727 
   89200    297.03731   -923.70508    142792.05   -40757.018    4079.0922    -44836.11    1036.8502   0.96536549 
   89300    297.70884   -1124.1648    142749.39   -40737.952     4088.314   -44826.266    1037.5508   0.96565401 
   89400    304.12703   -1072.1555     142942.7   -40740.415    4176.4523   -44916.867    1039.8895   0.96434806 
   89500    301.11728   -1268.9435    143024.71   -40824.399    4135.1207   -44959.519    1041.6159   0.96379513 
   89600    296.00379   -859.12089    142797.89   -40735.802    4064.8993   -44800.701    1042.2643   0.96532603 
   89700    297.34595   -857.83727    142826.93   -40750.483    4083.3306   -44833.813    1043.8918   0.96512974 
   89800    302.49878   -1115.6483    142985.27   -40747.733    4154.0923   -44901.825    1046.0085   0.96406094 
   89900    293.86292   -831.02821    142948.88   -40796.819    4035.4995   -44832.318    1045.9949   0.96430635 
   90000    299.59423   -932.64975    142555.03   -40730.471    4114.2054   -44844.677    1045.6579   0.96697053 
   90100     297.3369   -718.72434    142657.56   -40756.313    4083.2064   -44839.519    1046.6781    0.9662756 
   90200    292.96458   -1133.4281    142883.29   -40900.305     4023.163   -44923.468    1048.8135   0.96474904 
   90300    289.71513   -957.65639     142536.6   -40861.724    3978.5397   -44840.264    1049.2466   0.96709561 
   90400    296.95368   -952.26899    142531.16   -40742.954    4077.9437   -44820.898    1050.6075   0.96713252 
   90500    297.36643   -1078.8428    142603.95   -40713.765    4083.6118   -44797.377    1051.1345   0.96663883 
   90600    299.56131   -1012.2932       142446   -40651.036    4113.7532   -44764.789    1051.9521   0.96771071 
   90700    302.75111   -890.82476    142327.25   -40660.539    4157.5574   -44818.096    1052.8565    0.9685181 
   90800    298.13857   -858.59739    142552.14   -40695.355    4094.2153    -44789.57    1054.3081   0.96699014 
   90900    297.40753   -1239.0029    142456.33   -40728.357    4084.1762   -44812.533    1055.4013   0.96764054 
   91000    300.74307   -1065.0484    142793.01   -40688.015    4129.9819   -44817.996    1057.2445   0.96535902 
   91100    296.79547   -1073.9341    142861.19   -40676.768    4075.7711   -44752.539    1059.9149   0.96489825 
   91200    294.26952   -902.04539    142865.48   -40663.822    4041.0833   -44704.906    1061.7428    0.9648693 
   91300    295.63258    -803.0623    143051.98   -40728.889    4059.8016    -44788.69    1064.8001   0.96361141 
   91400    297.08849   -901.46098    143153.99   -40682.903     4079.795   -44762.698    1067.1574   0.96292474 
   91500    303.55855    -958.6626    143345.19   -40642.368    4168.6457   -44811.013    1070.8665   0.96164032 
   91600     298.2177   -892.11981    143373.08   -40708.231     4095.302   -44803.533    1072.5234   0.96145329 
   91700    295.10903   -1095.6923    142834.29   -40830.733    4052.6119   -44883.344     1071.136   0.96508002 
   91800    293.74402   -1148.6775    142829.26   -40843.513    4033.8667    -44877.38    1071.7701   0.96511402 
   91900    297.45273   -854.47166    143201.49   -40751.971    4084.7969   -44836.768    1074.6132   0.96260534 
   92000    299.08493   -971.03091     143447.3     -40736.3    4107.2113   -44843.511    1076.6847   0.96095579 
   92100    299.21692   -1313.8955    143174.87   -40698.735    4109.0238   -44807.759    1076.4473    0.9627843 
   92200     300.9019   -909.82765    143113.31   -40606.478     4132.163   -44738.641     1077.109   0.96319843 
   92300    298.98783   -973.35763    142998.18    -40667.46    4105.8779   -44773.338    1078.1204   0.96397392 
   92400    299.75502   -1043.1671    142760.82   -40655.087    4116.4134     -44771.5    1076.9768   0.96557669 
   92500    300.02906   -943.06702    142377.09   -40651.686    4120.1766   -44771.862    1076.6087   0.96817904 
   92600    303.50299    -1196.403    142359.49   -40620.546    4167.8826   -44788.429     1077.995   0.96829875 
   92700    292.97132    -985.7589    142287.76   -40762.987    4023.2556   -44786.243    1078.8573    0.9687869 
   92800    293.71731   -939.15698    142493.77   -40683.104       4033.5   -44716.604    1081.2057   0.96738626 
   92900     299.2647   -736.70242     142590.5   -40653.397      4109.68   -44763.077    1083.5607   0.96673003 
   93000    301.27097   -1029.8338     142682.5   -40702.292    4137.2313   -44839.523    1084.2357    0.9661067 
   93100    300.89443   -991.35663    142818.04   -40680.069    4132.0604   -44812.129    1087.4604   0.96518978 
   93200    302.74773   -998.37538     142686.4   -40616.384     4157.511   -44773.895    1087.1664    0.9660803 
   93300    301.40864   -1165.6878    142555.82   -40576.405    4139.1218   -44715.527    1088.2553   0.96696521 
   93400    303.39344   -810.78814    142563.21   -40677.686    4166.3784   -44844.064    1090.1729   0.96691509 
   93500    297.55161   -910.47193    142766.64   -40679.159    4086.1548   -44765.314    1091.9867    0.9655373 
   93600    299.94723   -811.55633    142719.01   -40767.615     4119.053   -44886.668    1091.6742   0.96585954 
   93700     299.4168   -914.23665    142808.61   -40741.202    4111.7688   -44852.971    1092.7477   0.96525356 
   93800    293.37939   -939.93301    143110.09   -40644.567    4028.8594   -44673.426    1094.3001   0.96322011 
   93900    295.19605   -1113.1248    142997.86   -40691.023    4053.8069    -44744.83     1093.783   0.96397606 
   94000    300.62525   -1006.1401    142770.99   -40793.106    4128.3638    -44921.47    1093.1101   0.96550785 
   94100    290.50584   -760.39782    142989.22   -40833.746    3989.3982   -44823.144    1095.0264   0.96403434 
   94200    296.56475   -1000.5235    143038.71   -40807.123    4072.6027   -44879.725    1095.9172   0.96370078 
   94300    299.70068    -977.0605    143149.23   -40783.651    4115.6671   -44899.318    1097.5114   0.96295675 
   94400    290.30872   -985.40952     143115.9   -40838.385    3986.6912   -44825.076    1098.4843   0.96318103 
   94500    294.47518   -1010.7716    143305.23   -40837.688    4043.9075   -44881.595    1100.5371   0.96190847 
   94600    295.65736    -955.1527    143282.68   -40911.715    4060.1419   -44971.857    1101.6937   0.96205988 
   94700    295.18182   -1192.2685    143222.47   -40764.736    4053.6115   -44818.347    1102.1362   0.96246433 
   94800    303.43323   -1341.8774    143122.24   -40698.024    4166.9247   -44864.949    1102.8881   0.96313836 
   94900    298.82635   -916.59301    143029.61   -40740.138    4103.6603   -44843.798    1102.6994   0.96376208 
   95000    302.68027   -797.88667    143268.01    -40738.61    4156.5846   -44895.195     1104.688   0.96215837 
   95100    296.05638   -853.63475    143686.39   -40618.519    4065.6215    -44684.14    1107.5957   0.95935678 
   95200    297.61011   -1179.1483    143274.46   -40709.869    4086.9582   -44796.827    1106.3241   0.96211509 
   95300    296.33272   -860.94914    142909.45   -40660.854    4069.4163    -44730.27    1105.8062   0.96457247 
   95400    302.93856   -1067.6926    143036.47   -40657.101    4160.1316   -44817.233    1108.3033    0.9637159 
   95500    293.30913   -1033.4742    143046.81   -40742.708    4027.8946   -44770.603    1109.6221   0.96364622 
   95600    304.27072   -867.96544    143014.43   -40744.547    4178.4256   -44922.972    1110.5643   0.96386438 
   95700    297.36902    -1110.726    143013.65   -40712.108    4083.6475   -44795.755    1111.5652   0.96386966 
   95800    299.01776   -1179.7869    142611.41    -40748.28    4106.2888   -44854.569    1111.1139   0.96658827 
   95900    301.08444   -814.90079    142664.78    -40714.17    4134.6697    -44848.84    1113.5923   0.96622669 
   96000    296.69845   -843.43684    142756.11   -40673.903    4074.4388   -44748.341    1114.3297    0.9656085 
   96100      296.887   -1158.5258    142627.76   -40679.963     4077.028   -44756.991    1113.9935   0.96647746 
   96200    298.46552   -857.78943       142563   -40708.933    4098.7052   -44807.639    1114.7412   0.96691648 
   96300    302.60407   -950.16141    142682.76    -40725.05    4155.5382   -44880.588    1116.9585   0.96610495 
   96400    301.02903   -956.09563    142803.12   -40747.024    4133.9088   -44880.933     1118.635   0.96529063 
   96500     306.8776   -940.52063    142698.19   -40733.574    4214.2248   -44947.799    1119.5402   0.96600043 
   96600     297.6592   -794.60085     142672.2   -40698.361    4087.6323   -44785.994    1121.2456   0.96617644 
   96700    298.16719   -892.36063    142897.02   -40616.854    4094.6083   -44711.462    1124.3859   0.96465634 
   96800    304.55832   -1043.6578    142808.61   -40585.378    4182.3751   -44767.753     1125.828   0.96525352 
   96900    300.52055   -1240.3067    142569.73   -40674.697    4126.9261   -44801.623    1124.4132   0.96687088 
   97000    300.70687   -833.71965       142498   -40719.678    4129.4847   -44849.163    1124.7599   0.96735754 
   97100    299.74404   -912.68556    142637.39   -40731.571    4116.2626   -44847.834    1126.5972   0.96641224 
   97200    304.13446    -1068.472    142727.84   -40747.559    4176.5545   -44924.113    1128.3823   0.96579978 
   97300    299.75846   -1062.8591    142981.41   -40783.725    4116.4606   -44900.185    1132.1506   0.96408698 
   97400    295.20335   -953.44797    142986.48   -40754.359    4053.9071   -44808.266    1132.3663   0.96405283 
   97500    294.26889   -1080.1349    143048.28   -40750.842    4041.0745   -44791.917     1134.055   0.96363632 
   97600     297.1258   -947.49224    143026.96   -40811.672    4080.3073   -44891.979     1135.026   0.96377993 
   97700    296.51602   -1052.0512    142948.62   -40792.073    4071.9336   -44864.006    1135.8928   0.96430811 
   97800    301.73725   -880.07083    143010.91   -40779.522    4143.6346   -44923.156    1137.6173   0.96388808 
   97900    297.03915   -1034.3197    143306.71   -40626.399    4079.1175   -44705.517    1140.5479   0.96189853 
   98000    303.69864   -962.53945    143208.59   -40651.228    4170.5694   -44821.798    1139.6853   0.96255758 
   98100    301.66654   -880.06991    143192.26   -40651.042    4142.6634   -44793.705    1141.3464   0.96266737 
   98200    303.76185   -888.09744    143094.79   -40638.993    4171.4375   -44810.431    1141.3915   0.96332313 
   98300    298.75597    -1035.385    142999.26   -40649.473    4102.6938   -44752.167    1142.7316   0.96396665 
   98400    296.56806   -1069.2215    142603.56   -40689.018    4072.6482   -44761.666    1142.3683   0.96664146 
   98500    298.08302   -1027.8383    142448.15   -40674.805    4093.4525   -44768.257    1142.4343   0.96769605 
   98600    294.89284   -625.06212    142680.19   -40710.579     4049.643   -44760.222    1145.1673   0.96612232 
   98700    297.11121   -1057.5619     142727.6   -40671.887     4080.107   -44751.994    1147.0631    0.9658014 
   98800    297.16745   -1110.1813    142930.94    -40705.29    4080.8793   -44786.169    1147.7458   0.96442744 
   98900    305.81737   -1037.1628    142703.12   -40607.244    4199.6651   -44806.909    1147.7803   0.96596712 
   99000    302.56356   -1010.7066    142914.36   -40593.876    4154.9819   -44748.857    1150.4544   0.96453927 
   99100    297.95438   -962.47659    142729.13   -40668.499    4091.6859   -44760.185    1151.3135   0.96579106 
   99200    299.06877   -1165.7547    142937.11   -40638.578    4106.9893   -44745.567    1153.9681   0.96438581 
   99300     301.1689   -688.13753    142777.08   -40604.586    4135.8296   -44740.416    1154.8404   0.96546668 
   99400    296.87293   -990.32693    143119.98   -40589.762    4076.8349   -44666.597    1157.1163   0.96315358 
   99500    303.29276   -1004.9146    143021.64   -40615.267    4164.9957   -44780.262    1157.5191   0.96381582 
   99600    300.24574   -936.98617     142680.8   -40725.813    4123.1522   -44848.965    1157.3246   0.96611819 
   99700    297.82569   -955.89762    142721.93   -40697.491    4089.9186    -44787.41    1159.0338   0.96583974 
   99800    297.84258   -1063.4217    142444.91   -40709.424    4090.1506   -44799.575    1158.5873   0.96771807 
   99900    302.51381   -788.62832    142900.36   -40648.844    4154.2987   -44803.142    1162.5671   0.96463378 
  100000    295.17963   -1145.4362    143060.78   -40675.153    4053.5814   -44728.734    1164.8115   0.96355214 
  100100    301.17106    -1222.307    142818.66   -40713.371    4135.8592    -44849.23    1166.2596    0.9651856 
  100200    291.13357   -1178.4039    142636.26   -40674.149    3998.0185   -44672.168    1166.7284   0.96641987 
  100300    298.49059    -1034.639    142555.28   -40730.327    4099.0494   -44829.376    1167.6378   0.96696889 
  100400    297.63627   -856.79948    142968.53   -40701.298    4087.3174   -44788.615    1170.6166   0.96417382 
  100500    297.37715   -1055.4536    142986.61   -40745.601     4083.759    -44829.36     1171.912   0.96405193 
  100600     297.0167   -1009.0716    143185.47   -40677.279    4078.8092   -44756.089    1175.5399   0.96271305 
  100646    296.52586   -1120.4716    143082.08   -40651.289    4072.0687   -44723.358    1176.4347   0.96340871 
Loop time of 126.144 on 6 procs for 100000 steps with 4608 atoms

Performance: 342.466 ns/day, 0.070 hours/ns, 792.744 timesteps/s
99.0% CPU use with 6 MPI tasks x no OpenMP threads

MPI task timing breakdown:
Section |  min time  |  avg time  |  max time  |%varavg| %total
---------------------------------------------------------------
Pair    | 97.46      | 98.259     | 99.913     |   8.3 | 77.89
Neigh   | 7.3166     | 7.3759     | 7.4787     |   2.2 |  5.85
Comm    | 15.533     | 17.305     | 18.01      |  20.8 | 13.72
Output  | 0.19975    | 0.20115    | 0.20775    |   0.7 |  0.16
Modify  | 2.156      | 2.2274     | 2.3246     |   3.4 |  1.77
Other   |            | 0.7751     |            |       |  0.61

Nlocal:        768.000 ave         781 max         759 min
Histogram: 2 0 0 1 1 0 1 0 0 1
Nghost:        1553.83 ave        1582 max        1541 min
Histogram: 3 0 0 1 1 0 0 0 0 1
Neighs:        0.00000 ave           0 max           0 min
Histogram: 6 0 0 0 0 0 0 0 0 0
FullNghs:      21506.3 ave       21876 max       21236 min
Histogram: 1 0 2 1 0 0 1 0 0 1

Total # of neighbors = 129038
Ave neighs/atom = 28.003038
Neighbor list builds = 7173
Dangerous builds = 0

undump              1
unfix               2
unfix               3
unfix               4


################################################
#######         Run Simulation         #########
################################################

reset_timestep      0
log                 log.run_${NAME}
log                 log.run_liq_299K_-1000atm_ML
