
# Set production fixes - Nose/Hoover
#
fix                 2 all nph iso ${PRES} ${PRES} ${PCOUPL}
fix                 2 all nph iso -1000 ${PRES} ${PCOUPL}
fix                 2 all nph iso -1000 -1000 ${PCOUPL}
fix                 2 all nph iso -1000 -1000 10000.0
fix                 3 all temp/csvr ${TEMP} ${TEMP} ${TCOUPL} 837492
fix                 3 all temp/csvr 299 ${TEMP} ${TCOUPL} 837492
fix                 3 all temp/csvr 299 299 ${TCOUPL} 837492
fix                 3 all temp/csvr 299 299 5000.0 837492

# Define Order parameter
#
compute             2 all orientorder/atom nnn NULL cutoff 3.5
thermo              200
thermo_style        custom step temp press vol etotal ke pe c_1[4]

# Run 1ns simulation
dump		    1 all custom 400 prod.${NAME}.dump id type x y z vx vy vz c_2[*]
dump		    1 all custom 400 prod.ice_299K_-1000atm_ML.dump id type x y z vx vy vz c_2[*]
run                 200000
Neighbor list info ...
  update every 1 steps, delay 0 steps, check yes
  max neighbors/atom: 2000, page size: 100000
  master list distance cutoff = 6.0032907
  ghost atom cutoff = 6.0032907
  binsize = 3.0016454, bins = 20 18 18
  2 neighbor lists, perpetual/occasional/extra = 1 1 0
  (1) pair sw, perpetual
      attributes: full, newton on
      pair build: full/bin/atomonly
      stencil: full/bin/3d
      bin: standard
  (2) compute orientorder/atom, occasional, copy from (1)
      attributes: full, newton on
      pair build: copy
      stencil: none
      bin: none
Per MPI rank memory allocation (min/avg/max) = 5.821 | 5.822 | 5.822 Mbytes
Step Temp Press Volume TotEng KinEng PotEng c_1[4] 
       0    296.97402   -996.69329    149922.99   -47286.855     4078.223   -51365.078   0.17396222 
     200    300.95909   -996.58206     149948.5    -47276.69    4132.9484   -51409.638   0.16528201 
     400    296.62237   -993.67051    149983.64   -47269.777     4073.394   -51343.171   0.16709912 
     600    294.55283   -1040.0857    149944.51   -47309.668    4044.9739   -51354.641   0.17442517 
     800    300.33535   -927.42163    149871.79   -47327.134    4124.3828   -51451.517   0.15967611 
    1000      296.859   -964.83297    149912.23   -47338.683    4076.6436   -51415.326   0.16421768 
    1200    292.68134    -1066.636    149986.44   -47362.229    4019.2734   -51381.502   0.17224778 
    1400    289.86989   -1055.4093    149940.61   -47353.402    3980.6649   -51334.067   0.16951906 
    1600    298.15151   -930.91026    149853.32   -47358.935     4094.393   -51453.328   0.15777832 
    1800    296.28212   -1011.1442     149971.8   -47364.475    4068.7215   -51433.197   0.16297499 
    2000    300.74237   -1062.8856    150072.53   -47316.558    4129.9723    -51446.53   0.16708334 
    2200    300.81812   -985.08411    149957.66   -47285.403    4131.0124   -51416.415   0.16394242 
    2400    293.79877   -947.99814    149869.65    -47304.89    4034.6186   -51339.509    0.1652616 
    2600    295.42178   -1019.9368    149963.85   -47349.941    4056.9067   -51406.848   0.16588546 
    2800    296.00372   -1097.2771    150041.69   -47366.892    4064.8983   -51431.791   0.16371418 
    3000    299.66711   -966.09765    149881.51   -47381.255    4115.2061   -51496.461   0.15512467 
    3200    295.74088   -896.26609    149796.24   -47326.103    4061.2888   -51387.392   0.17185647 
    3400    297.06058   -1050.2713    150007.86   -47364.344    4079.4117   -51443.756   0.16859392 
    3600    295.49737   -1116.0384     150099.9   -47392.667    4057.9449   -51450.612   0.16233191 
    3800    293.07468   -951.52178    149820.48   -47320.236     4024.675   -51344.911   0.17025859 
    4000    296.71169   -893.66345    149803.83   -47314.722    4074.6205   -51389.342   0.16580037 
    4200    296.00198   -1111.0437    150118.04   -47327.439    4064.8744   -51392.313   0.17330934 
    4400    295.31366   -1136.0143    150109.54   -47314.087     4055.422   -51369.509   0.17569793 
    4600    302.19691   -852.64368    149785.69   -47298.518    4149.9469   -51448.465   0.16546676 
    4800    297.94891   -894.01644     149834.4   -47287.392    4091.6107   -51379.003   0.15671677 
    5000    298.94702   -1148.3037    150171.73   -47261.007    4105.3174   -51366.324   0.16370187 
    5200    298.25496    -1078.837    150088.05   -47263.946    4095.8136   -51359.759   0.17207677 
    5400    302.55155   -825.12707    149760.66   -47228.875    4154.8169   -51383.692   0.16631244 
    5600    304.44504   -925.03253    149917.02   -47210.866    4180.8195   -51391.685    0.1650278 
    5800     299.9545   -1164.1418    150261.34   -47194.302    4119.1527   -51313.455   0.17122819 
    6000    307.78842   -1051.9678    150099.21    -47182.95    4226.7327   -51409.682   0.16958671 
    6200    304.97781   -806.25414    149763.69   -47180.659    4188.1358   -51368.795   0.15957796 
    6400    303.52802   -958.79334    149974.86   -47144.563    4168.2265   -51312.789    0.1668281 
    6600    299.24689   -1239.2678    150309.79   -47180.086    4109.4354   -51289.521    0.1722025 
    6800    298.60275   -1018.3622     150029.9   -47224.727    4100.5898   -51325.317   0.16334667 
    7000    298.41105   -771.69344     149689.6   -47233.867    4097.9572   -51331.824   0.16167795 
    7200    300.20912   -1014.6469    150031.76   -47176.288    4122.6493   -51298.937   0.16537999 
    7400    301.46119   -1212.2739     150380.8    -47153.64    4139.8435   -51293.484   0.16768577 
    7600    306.82365    -978.7295    149982.74   -47196.126    4213.4839    -51409.61   0.16629929 
    7800    302.96732   -719.17371    149646.87   -47229.719    4160.5266   -51390.246   0.17055715 
    8000    302.79198   -1062.0203    150132.55   -47190.385    4158.1187   -51348.504   0.17490989 
    8200    302.44897   -1334.5649    150454.77   -47221.834    4153.4082   -51375.242   0.16839561 
    8400    301.30905   -889.10733    149889.32   -47257.062    4137.7543   -51394.816   0.16019043 
    8600      301.443   -687.27914    149606.53   -47218.734    4139.5937   -51358.328   0.16218369 
    8800    303.64223   -1115.4826    150220.81   -47139.265    4169.7948    -51309.06   0.17234575 
    9000    305.56029   -1308.8929    150473.75   -47112.821    4196.1347   -51308.955   0.17552929 
    9200    303.82191    -830.6507    149817.94   -47107.574    4172.2624   -51279.836   0.16591482 
    9400    297.85908   -694.61324    149615.67   -47161.634    4090.3771   -51252.011   0.16195263 
    9600     301.0993   -1163.4702    150223.48   -47142.473    4134.8739   -51277.347   0.17173638 
    9800    301.70574   -1287.7799    150360.28   -47156.802    4143.2019   -51300.004   0.18173742 
   10000    301.59375   -865.99541    149749.82   -47161.421    4141.6639   -51303.085   0.17327384 
   10200    307.37423   -746.90243    149712.69   -47155.187    4221.0449   -51376.232   0.15976296 
   10400    306.34151   -1221.3471    150331.35   -47133.516    4206.8629   -51340.379   0.16427527 
   10600    307.13133   -1226.5167    150295.05    -47114.81    4217.7092    -51332.52   0.16580178 
   10800    307.62823   -755.61243    149715.56   -47156.511    4224.5329   -51381.044   0.16151859 
   11000    299.00361   -904.33786    149861.01   -47199.057    4106.0945   -51305.151    0.1680772 
   11200    301.48347   -1201.2812    150348.62   -47207.831    4140.1495    -51347.98    0.1665644 
   11400    300.21966   -1090.4742     150125.6   -47238.327    4122.7941   -51361.121   0.16760622 
   11600    300.00216   -780.89786    149713.74   -47214.215    4119.8073   -51334.022   0.16393645 
   11800    297.56457   -945.99891    149924.88   -47287.764    4086.3329   -51374.097   0.16873312 
   12000    293.61448   -1212.6493     150256.7   -47281.914    4032.0878   -51314.002   0.17533765 
   12200    300.32148   -1003.3126    150037.85    -47263.65    4124.1923   -51387.842    0.1674388 
   12400    301.46308   -821.30987       149775    -47235.15    4139.8694   -51375.019   0.16583794 
   12600    302.23198   -985.79915     150006.6   -47243.252    4150.4284    -51393.68   0.15867458 
   12800     297.5396   -1128.5015    150183.18   -47251.389    4085.9899   -51337.379   0.16442815 
   13000    295.30112   -981.87416    149970.11   -47233.967    4055.2498   -51289.217   0.17020582 
   13200    299.82612   -895.14246    149849.96   -47206.527    4117.3898   -51323.917   0.17107324 
   13400    297.40983   -993.35723    150070.96   -47222.387    4084.2078   -51306.594   0.16713989 
   13600    303.35907   -1092.3368    150187.39   -47211.168    4165.9062   -51377.075    0.1670693 
   13800    301.26377   -916.58652    149957.63   -47207.029    4137.1324   -51344.161   0.16069744 
   14000    298.77426   -883.63534    149889.97    -47228.59     4102.945   -51331.535   0.16269615 
   14200    300.81826   -1067.5665    150113.75   -47253.873    4131.0145   -51384.888   0.16977505 
   14400    298.53215    -1072.833    150114.18   -47279.721    4099.6202   -51379.341   0.16857866 
   14600    295.79811    -944.0166    149898.19   -47278.388    4062.0747   -51340.463    0.1613086 
   14800    301.12749   -939.50988     149964.1   -47261.737    4135.2609   -51396.998   0.15663624 
   15000    298.30356   -1129.8485    150152.25   -47312.102    4096.4811   -51408.583    0.1653378 
   15200    298.43816   -1029.3793    150021.18   -47369.106    4098.3295   -51467.435   0.16715954 
   15400     291.2639   -892.98504    149838.24   -47388.965    3999.8083   -51388.774    0.1661179 
   15600    290.83905   -992.44895    149968.02   -47425.525     3993.974   -51419.499   0.16224382 
   15800    298.96419    -1091.007    150122.88   -47374.487    4105.5532    -51480.04   0.15931744 
   16000    295.23006   -1018.9247    149996.28   -47361.394     4054.274   -51415.668   0.16091471 
   16200    296.55645   -911.32565    149866.34   -47309.574    4072.4886   -51382.063   0.16523544 
   16400    301.88622    -1006.229    150019.63   -47304.289    4145.6803   -51449.969   0.16689098 
   16600    301.14911   -1124.2513    150124.14   -47319.838    4135.5578   -51455.396   0.16467868 
   16800    297.54813   -969.49477     149892.6   -47275.046    4086.1071   -51361.153    0.1644574 
   17000    299.12424   -890.98346    149802.83   -47300.267    4107.7512   -51408.018   0.16251023 
   17200    297.34555   -1105.8164    150051.19   -47278.003    4083.3251   -51361.328   0.16933266 
   17400     299.5682    -1113.586    150124.06   -47323.726    4113.8479   -51437.573   0.16450149 
   17600    295.89336   -885.13538    149859.62   -47366.064    4063.3828   -51429.447   0.15840482 
   17800    295.58065   -878.49617    149783.35   -47386.482    4059.0884    -51445.57   0.15784992 
   18000    293.27754   -1130.9291    150097.48   -47417.405    4027.4608   -51444.866   0.16188591 
   18200    297.17306   -1101.5008    150132.81   -47441.381    4080.9563   -51522.337   0.15503747 
   18400    295.87247   -848.56892    149727.12   -47469.579    4063.0958   -51532.675   0.15230593 
   18600    299.13427   -824.84225     149731.6   -47425.727    4107.8889   -51533.616   0.15309495 
   18800    298.55132   -1202.4703    150257.14   -47350.618    4099.8834   -51450.501   0.16366182 
   19000     299.6279   -1176.0772    150230.86   -47378.975    4114.6677   -51493.643   0.16195521 
   19200    296.12338   -708.24273    149541.88   -47360.708    4066.5415    -51427.25   0.15041959 
   19400    302.01892    -739.2192    149650.84   -47351.061    4147.5026   -51498.563   0.15324809 
   19600    295.28049   -1440.1118    150530.96    -47365.92    4054.9665   -51420.887   0.16931891 
   19800    294.78251   -1256.1592    150296.13   -47366.426    4048.1279   -51414.554   0.16841652 
   20000    296.74333   -520.39268    149321.77   -47369.135     4075.055    -51444.19   0.15710683 
   20200    297.03626   -813.65059    149719.93   -47393.897    4079.0777   -51472.975   0.15659839 
   20400    296.00662   -1482.8759    150665.98   -47354.335    4064.9382   -51419.273   0.16553699 
   20600    294.18791   -1116.8865    150141.36   -47359.551    4039.9625   -51399.514   0.16192101 
   20800    293.19666   -530.08196    149302.25    -47372.39    4026.3501    -51398.74   0.16199069 
   21000    296.41811   -963.50617    149907.94   -47362.101    4070.5889    -51432.69   0.15977467 
   21200    296.25048   -1476.6182     150598.4   -47339.282     4068.287   -51407.569    0.1604151 
   21400    291.32666   -1024.1724    149955.09   -47344.001    4000.6701   -51344.671   0.15937521 
   21600    301.38078   -555.72274    149432.06   -47306.035    4138.7393   -51444.774   0.15402321 
   21800    294.45983   -1035.9902    150070.82   -47247.326    4043.6967   -51291.022   0.16438147 
   22000    297.11246   -1325.1983    150447.96   -47246.212    4080.1241   -51326.336   0.16566305 
   22200    302.43228   -920.54745    149852.28   -47213.473    4153.1791   -51366.652   0.16332496 
   22400    301.07179   -693.29287    149583.43   -47193.771    4134.4961   -51328.267   0.15851867 
   22600    300.43358   -1108.5112    150158.92   -47192.554    4125.7317   -51318.285   0.16439163 
   22800    299.42823   -1252.9422    150293.77   -47227.127    4111.9256   -51339.052   0.17022512 
   23000     299.7881   -832.35643    149726.65   -47252.862    4116.8676    -51369.73   0.15784908 
   23200    300.03865   -794.26072    149685.39    -47248.12    4120.3084   -51368.429   0.15766701 
   23400    296.66649   -1181.4562    150216.87   -47249.028    4073.9998   -51323.028   0.16328298 
   23600    301.80913   -1111.5572    150197.37   -47266.643    4144.6216   -51411.265   0.16111451 
   23800     304.5559   -770.99588     149753.8   -47210.622    4182.3419   -51392.964   0.15601245 
   24000    300.23444   -890.15828    149830.82   -47248.323     4122.997    -51371.32   0.16020579 
   24200    302.80983   -1200.6245    150260.43   -47225.474    4158.3639   -51383.837   0.16707649 
   24400    300.22078   -1155.5602     150176.6   -47232.068    4122.8095   -51354.877   0.16513634 
   24600    307.57123   -839.29997    149770.35   -47238.391    4223.7502   -51462.141   0.15928248 
   24800    306.21968   -829.71526    149894.85     -47156.5      4205.19    -51361.69   0.15507098 
   25000    301.82358   -1210.8019    150309.61   -47149.837    4144.8201   -51294.657   0.16209922 
   25200    302.52719   -1085.2738    150155.82   -47177.511    4154.4824   -51331.994   0.15966616 
   25400    301.62371   -884.13405    149781.76   -47247.976    4142.0753   -51390.051   0.16108639 
   25600    299.18171    -940.2764    149936.24   -47269.764    4108.5403   -51378.305    0.1547871 
   25800    302.55867   -1185.4128    150260.45   -47241.269    4154.9148   -51396.184   0.15221455 
   26000    300.40878   -1017.0611    150094.02    -47221.48    4125.3912   -51346.872   0.15704576 
   26200    295.59738   -878.14921    149830.76   -47273.133    4059.3181   -51332.451   0.16017885 
   26400    295.60263    -1025.001    150008.15   -47296.026    4059.3902   -51355.416   0.16540903 
   26600    296.02444   -1108.7371    150209.56   -47302.018    4065.1828   -51367.201   0.15860711 
   26800    300.59476   -984.45471    150018.76   -47309.624    4127.9451   -51437.569   0.15280742 
   27000    301.05473   -911.22017    149834.27   -47314.007    4134.2618   -51448.269    0.1585818 
   27200     292.0675   -1079.8976    150020.62   -47304.258    4010.8438   -51315.102   0.16355506 
   27400    299.55094   -1139.2226    150142.99   -47267.787    4113.6108   -51381.397   0.16777567 
   27600    306.40535   -957.69752    149940.74   -47275.204    4207.7397   -51482.944   0.15825789 
   27800     297.7885   -888.72739    149837.28   -47271.282    4089.4079    -51360.69   0.15357996 
   28000     296.6943   -1082.8804    150099.93   -47255.865    4074.3818   -51330.246   0.15955776 
   28200    297.98802   -1132.4024    150187.46   -47273.633    4092.1478   -51365.781   0.16689011 
   28400    295.72161   -908.59078    149907.01   -47272.445    4061.0241   -51333.469   0.16279534 
   28600     298.6815   -907.42389    149870.77    -47296.36    4101.6712   -51398.031    0.1588232 
   28800     298.5528   -1162.7348    150222.99   -47303.239    4099.9037   -51403.142   0.15994302 
   29000    296.05163   -1109.8511    150189.89     -47340.1    4065.5562   -51405.656   0.16100136 
   29200    295.43692   -822.46209    149771.34   -47383.487    4057.1147   -51440.601   0.15354804 
   29400    291.17904   -883.32272    149831.67   -47383.742    3998.6429   -51382.384   0.15103053 
   29600    296.41977   -1187.9304     150287.4   -47336.737    4070.6117   -51407.349   0.15764386 
   29800    298.03122   -1133.2845    150188.98   -47257.932    4092.7412   -51350.673   0.16254722 
   30000    303.89562   -742.42896    149671.76   -47255.051    4173.2746   -51428.326   0.15966288 
   30200    297.70209    -908.7338    149846.99   -47262.565    4088.2213   -51350.787     0.160943 
   30400    297.45551   -1331.5767     150423.5   -47307.007    4084.8351   -51391.842   0.16299201 
   30600    301.32638   -1091.3138    150090.07   -47257.276    4137.9922   -51395.268   0.16384913 
   30800    301.67678    -610.8039    149450.33   -47231.502    4142.8041   -51374.306   0.16009814 
   31000    294.34068   -962.02171    149922.04    -47212.39    4042.0605    -51254.45   0.16893625 
   31200    301.33988   -1444.9948    150604.02   -47202.998    4138.1776   -51341.175   0.16811972 
   31400    297.47351   -1048.2046    149998.35   -47210.265    4085.0823   -51295.347   0.16202694 
   31600    301.61311   -525.99646    149329.68    -47282.78    4141.9297   -51424.709   0.15867066 
   31800    301.06667   -1021.4998     150037.7   -47245.953    4134.4257   -51380.379   0.16742451 
   32000    297.64089   -1481.1331     150636.6   -47203.246    4087.3808   -51290.627   0.18458846 
   32200    298.11518   -942.09604    149891.89   -47250.852    4093.8941   -51344.746    0.1625537 
   32400    297.86198   -552.82642    149402.43   -47250.911     4090.417   -51341.328   0.15170578 
   32600    298.37361   -1167.5137    150131.32   -47229.142     4097.443   -51326.585   0.16629801 
   32800    306.89374   -1326.8469    150464.62   -47218.851    4214.4464   -51433.297   0.17731499 
   33000    298.13694   -848.36162    149785.89   -47217.009    4094.1929   -51311.202   0.16992859 
   33200    298.31949   -706.55707    149591.24   -47215.138    4096.6999   -51311.838   0.16099044 
   33400    302.59469   -1147.8977    150233.68    -47166.64    4155.4093    -51322.05   0.16215515 
   33600     300.3684   -1245.8405       150377   -47093.844    4124.8367   -51218.681   0.16905574 
   33800    303.00113   -864.33953    149843.05   -47139.378    4160.9908   -51300.369   0.16562326 
   34000    303.83823   -814.60037    149746.56   -47163.424    4172.4864   -51335.911   0.16858644 
   34200    299.19703   -1157.7924    150188.68    -47189.21    4108.7507   -51297.961    0.1730014 
   34400    305.09198   -1137.5827    150189.38   -47256.569    4189.7036   -51446.273   0.16060772 
   34600    304.98432   -859.30517    149780.27   -47235.369    4188.2252   -51423.595   0.15430195 
   34800    299.02011    -915.1511    149801.61   -47276.888    4106.3211   -51383.209   0.16663711 
   35000     297.9111   -1111.2667    150133.29   -47297.059    4091.0915    -51388.15   0.16563539 
   35200    297.19569   -1092.3272    150084.99   -47284.653    4081.2671    -51365.92   0.16595548 
   35400     297.5687   -851.42211    149785.48   -47249.225    4086.3895   -51335.615   0.16345147 
   35600    299.88732   -929.67578    149877.29   -47243.391    4118.2302   -51361.621   0.16289137 
   35800    301.12883   -1147.6729    150159.11   -47239.452    4135.2793   -51374.731   0.16539556 
   36000    300.44561   -1100.4462    150036.02   -47242.311     4125.897   -51368.208   0.16549251 
   36200    302.09183   -864.31707    149789.49    -47262.06    4148.5039   -51410.564   0.16354533 
   36400    304.65364   -960.30554    149989.81   -47288.246    4183.6841   -51471.931   0.16215489 
   36600    300.15585    -1145.219    150252.13   -47258.148    4121.9178   -51380.066   0.16844165 
   36800    295.51524   -1028.8128    150018.31   -47306.717    4058.1902   -51364.907   0.16553635 
   37000    300.32497   -765.03471    149764.11   -47299.768    4124.2403   -51424.008   0.15399408 
   37200    298.29794   -1013.3969    150043.73   -47256.818    4096.4038   -51353.222   0.16390194 
   37400    302.87833   -1182.6566     150272.5   -47244.839    4159.3044   -51404.143   0.17002263 
   37600    300.78274   -978.34877    149984.09   -47277.644    4130.5266    -51408.17   0.16090828 
   37800    304.18904    -810.7104     149806.1   -47245.479     4177.304   -51422.783   0.15220542 
   38000    299.82999   -1054.9943    150125.36   -47296.496    4117.4429   -51413.939   0.15561699 
   38200    295.34329   -1167.5054    150237.68   -47287.931    4055.8288    -51343.76   0.16382843 
   38400    301.91547   -887.39285    149893.79   -47258.316    4146.0819   -51404.398   0.16194304 
   38600    301.93863   -847.30499    149815.18    -47257.38       4146.4    -51403.78   0.16629245 
   38800    301.81485   -1111.9172    150156.37   -47304.884    4144.7002   -51449.584   0.16314543 
   39000    297.39238   -1135.8609    150172.78   -47331.528    4083.9682   -51415.496   0.15581479 
   39200    301.11152   -850.23275    149781.73    -47358.12    4135.0416   -51493.162   0.15367306 
   39400    296.00459   -868.75691    149796.84   -47347.904    4064.9103   -51412.814   0.16591227 
   39600    294.23771    -1217.968    150202.74    -47414.43    4040.6464   -51455.076   0.16760912 
   39800     291.7025     -1085.84    150096.94     -47403.4    4005.8315   -51409.231   0.15855473 
   40000    293.53967   -809.63488     149690.7   -47421.303    4031.0605   -51452.363   0.15499295 
   40200     296.0432   -848.33477     149862.2   -47393.237    4065.4405   -51458.677    0.1533738 
   40400     293.9094   -1256.7145    150302.21   -47381.644    4036.1379   -51417.782   0.17061937 
   40600    295.96674    -1045.304    150061.71   -47414.286    4064.3904   -51478.676   0.16447292 
   40800    287.56398   -733.61978    149595.28   -47439.665    3948.9988   -51388.663   0.16330362 
   41000    294.26882   -958.62215    149879.76   -47391.454    4041.0735   -51432.528   0.15444579 
   41200    297.87912   -1280.3337    150332.72   -47418.427    4090.6523   -51509.079   0.15783858 
   41400    296.91413   -1012.5039    150008.26   -47385.626    4077.4006   -51463.026    0.1585748 
   41600    299.18238   -715.00176    149609.91   -47386.312    4108.5495   -51494.862   0.15245341 
   41800     297.5153   -1045.7828     149999.6   -47381.299    4085.6562   -51466.956   0.15858396 
   42000    302.29681   -1283.9625    150349.69   -47346.914    4151.3187   -51498.233   0.15970147 
   42200     297.3739   -946.46732     149927.1   -47379.336    4083.7145    -51463.05   0.15660733 
   42400    295.61526   -758.33302    149625.87   -47435.803    4059.5637   -51495.367   0.15285483 
   42600      293.415   -1095.3549    150037.86    -47457.81    4029.3485   -51487.158   0.15888586 
   42800    294.74708    -1217.435    150256.06   -47453.988    4047.6414   -51501.629   0.16250402 
   43000    291.78017   -882.55443    149792.09   -47412.765     4006.898   -51419.663   0.15453061 
   43200    298.21947   -753.09754    149636.22   -47420.265    4095.3263   -51515.591   0.15161754 
   43400    290.04706   -1143.8409    150142.68   -47404.059    3983.0979   -51387.157   0.15819015 
   43600    297.56347   -1229.4039    150244.57   -47396.877    4086.3177   -51483.195     0.153432 
   43800     290.7701   -843.75325    149696.08   -47376.851    3993.0271   -51369.878   0.16069745 
   44000    292.32494   -840.94792     149665.7   -47397.407    4014.3791   -51411.786   0.16443408 
   44200    292.89311   -1182.9041    150202.78   -47432.764    4022.1815   -51454.946   0.16324717 
   44400    295.58422   -1178.1811    150182.94   -47405.859    4059.1374   -51464.997   0.15828142 
   44600    298.74827   -769.05719    149674.36   -47348.032    4102.5881    -51450.62   0.15159469 
   44800    297.72609   -827.65863    149803.51    -47311.09     4088.551   -51399.641   0.15625738 
   45000    302.06934   -1230.9473    150347.97   -47341.543     4148.195   -51489.738   0.16220652 
   45200    298.24837   -1140.5667    150160.93     -47365.6    4095.7231   -51461.323   0.16402845 
   45400    295.08881   -757.51501     149593.9   -47423.935    4052.3342   -51476.269     0.152638 
   45600     300.4762   -864.12671     149845.5   -47410.433     4126.317    -51536.75   0.14412525 
   45800    294.15381   -1348.7803    150406.64   -47373.957    4039.4942   -51413.451   0.16063328 
   46000    295.11278   -1068.6855    150095.64   -47375.415    4052.6633   -51428.078   0.16387976 
   46200    295.64531   -680.24871    149589.31   -47416.321    4059.9764   -51476.297   0.15293007 
   46400    294.89799   -968.00645    149943.02   -47393.529    4049.7138   -51443.243   0.14808783 
   46600    294.09033   -1279.5168    150382.08   -47382.553    4038.6225   -51421.176   0.15768012 
   46800    299.05288   -975.52746     149987.4   -47352.792    4106.7711   -51459.563   0.15355727 
   47000    301.06318   -704.24328    149610.82   -47336.702    4134.3778    -51471.08   0.14926439 
   47200    297.74287   -1044.3136    150061.69   -47301.046    4088.7813   -51389.828   0.15927934 
   47400    295.73692    -1289.108    150373.57    -47223.63    4061.2344   -51284.864   0.16924896 
   47600    299.72056   -880.26018    149918.89   -47203.076    4115.9401   -51319.016    0.1566719 
   47800    302.07246   -738.00384    149716.95   -47173.597    4148.2378   -51321.835   0.15439271 
   48000     303.3469   -1091.8244    150191.68   -47171.216    4165.7391   -51336.955   0.16668249 
   48200    303.38644   -1221.8031    150332.95   -47169.052    4166.2822   -51335.334   0.17122134 
   48400    303.71654   -874.60632    149861.29   -47155.887    4170.8153   -51326.702   0.16390737 
   48600     305.3407   -787.93885    149760.51   -47224.065    4193.1192   -51417.184   0.15983924 
   48800    303.78649   -1148.6805    150185.89   -47157.836    4171.7759   -51329.612   0.16637942 
   49000    299.00785   -1176.0637    150230.15   -47132.727    4106.1528    -51238.88   0.16986878 
   49200    305.07267   -877.99851    149851.34   -47173.932    4189.4384   -51363.371     0.162174 
   49400    300.89017   -914.00685    149856.49   -47186.104     4132.002   -51318.106    0.1687221 
   49600    300.62659   -1150.8167    150204.92   -47197.831    4128.3823   -51326.213   0.16863798 
   49800    300.97961   -1108.4063    150132.28   -47177.131    4133.2301   -51310.361   0.16322226 
   50000    299.85295   -858.08271    149794.21   -47183.344    4117.7582   -51301.102   0.16027044 
   50200    300.30805   -917.14318    149893.07   -47220.703    4124.0079   -51344.711   0.15958386 
   50400    294.97677   -1167.0916    150179.82    -47221.13    4050.7956   -51271.925   0.16838192 
   50600    301.05689   -1058.9367     150070.2   -47244.469    4134.2914   -51378.761   0.16587558 
   50800    299.30533   -900.30338    149841.97   -47259.553    4110.2379   -51369.791   0.15937339 
   51000    302.60783   -968.73284    149948.54   -47190.945    4155.5899   -51346.535   0.15676793 
   51200    298.35965   -1154.6521    150100.87   -47219.899    4097.2514    -51317.15   0.16840777 
   51400    306.43077   -1009.6201    149999.38   -47183.508    4208.0887   -51391.597   0.16525577 
   51600    304.81368   -965.62291     149927.9   -47186.019    4185.8818   -51371.901   0.16602504 
   51800    298.48328   -1003.7267    150024.72   -47179.241    4098.9491    -51278.19   0.16232567 
   52000    303.27429   -1013.3096    150083.43   -47139.727    4164.7421   -51304.469   0.16339724 
   52200    303.08924   -1002.9361    150024.11   -47112.151    4162.2008   -51274.352    0.1672395 
   52400    304.56527   -996.84471    149993.87    -47092.54    4182.4705    -51275.01   0.16820962 
   52600    303.96001   -1067.4581    150039.19   -47132.768    4174.1587   -51306.927   0.17566075 
   52800    302.93946   -1023.3684    150037.33    -47151.77     4160.144   -51311.914   0.16750672 
   53000    301.32551   -963.83619    149984.98   -47157.264    4137.9803   -51295.244   0.16516833 
   53200    302.88619   -1010.8579       149970   -47165.911    4159.4125   -51325.324   0.16935366 
   53400    302.23959   -999.12871    149990.05   -47194.808     4150.533   -51345.341   0.16887611 
   53600     303.0961    -971.4209    149988.56   -47220.306    4162.2951   -51382.601   0.16163131 
   53800    301.69571   -1041.4201    149969.56   -47196.124     4143.064   -51339.188   0.16326592 
   54000    303.25082   -1013.2518    149959.76   -47186.217    4164.4197   -51350.637   0.16643384 
   54200     307.2957    -957.2155    149995.86   -47194.421    4219.9664   -51414.387   0.15822342 
   54400    299.25297   -980.28865    150030.33   -47221.221    4109.5189    -51330.74   0.16053144 
   54600    300.47092   -1020.4338     150004.8   -47216.866    4126.2446    -51343.11   0.16372472 
   54800    307.13665   -968.74067    149974.54   -47160.801    4217.7822   -51378.583   0.16249248 
   55000    299.84026   -1015.0485    150001.85   -47162.709     4117.584   -51280.292   0.16760836 
   55200    303.69778   -991.94241    150020.87   -47193.648    4170.5577   -51364.205   0.16123481 
   55400    300.65167    -1006.373    150000.49   -47218.313    4128.7267    -51347.04   0.16349965 
   55600    297.78486   -961.10627    149938.49   -47257.173    4089.3579   -51346.531   0.15745965 
   55800    301.92525   -967.25215    149963.34   -47228.601    4146.2163   -51374.818   0.16194891 
   56000    300.02202   -1005.8844    150049.75   -47210.941      4120.08   -51331.021   0.17087983 
   56200    301.04149   -1065.2244    150042.54   -47247.193    4134.0799   -51381.273   0.16505262 
   56400    296.39123   -975.05657    149948.03   -47250.859    4070.2199   -51321.079   0.15999506 
   56600    297.57687   -995.38143    149979.12   -47255.658    4086.5017    -51342.16   0.16101084 
   56800    306.15195   -1029.7228    150078.77   -47203.567    4204.2598   -51407.827   0.16458438 
   57000    303.86135   -1062.8693    150083.32    -47211.38    4172.8039   -51384.184    0.1640289 
   57200    301.54904   -955.99002    149935.23   -47243.545    4141.0499   -51384.595   0.16269935 
   57400    300.55961   -925.01852    149900.78   -47264.107    4127.4625    -51391.57   0.15435219 
   57600    298.10145   -1089.0899    150069.04   -47250.906    4093.7055   -51344.611   0.15576969 
   57800    304.28418   -1044.0774    150095.42    -47263.39    4178.6104   -51442.001   0.15704051 
   58000    294.67267   -961.10496    149944.43   -47279.089    4046.6195   -51325.708   0.16372836 
   58200    298.24281    -923.7032    149927.39   -47321.327    4095.6468   -51416.974   0.15721926 
   58400    296.15888   -1038.6342    150044.03   -47311.526     4067.029   -51378.555   0.16092064 
   58600     303.8686   -1031.4787    150038.36   -47290.151    4172.9035   -51463.055   0.15473163 
   58800    295.73313   -938.64589    149886.58   -47325.076    4061.1824   -51386.258    0.1543917 
   59000    298.77133   -956.39605    149892.18   -47350.397    4102.9047   -51453.302   0.15857383 
   59200    294.58139   -1103.4806    150033.39   -47348.389    4045.3659   -51393.755   0.15999915 
   59400    296.21458   -1096.8093    150028.36   -47288.766    4067.7939    -51356.56   0.16327332 
   59600    299.21798   -901.59758    149890.95   -47287.019    4109.0385   -51396.057   0.15144113 
   59800    297.40098   -982.57975    149904.99   -47271.851    4084.0863   -51355.937   0.16287402 
   60000    299.39837   -1023.7128    150053.93   -47256.215    4111.5156   -51367.731   0.16247132 
   60200    300.97036   -1070.7572    150028.72   -47227.999    4133.1031   -51361.102   0.16014727 
   60400    301.95771   -966.24556    149899.93   -47197.607    4146.6619   -51344.269   0.16467229 
   60600    301.79147    -974.7433    149952.25    -47239.91    4144.3791   -51384.289   0.16489632 
   60800    303.90942   -1093.6736    150081.53   -47174.389     4173.464   -51347.853   0.16915738 
   61000    305.03032   -1034.8017    150064.35   -47216.222     4188.857   -51405.079   0.15888711 
   61200    296.34079   -918.02917    149947.62   -47221.956    4069.5272   -51291.483   0.15635216 
   61400    292.98232   -961.93141    149959.37   -47219.129    4023.4066   -51242.535   0.16085449 
   61600    305.51891    -1073.529    150084.85   -47210.092    4195.5665   -51405.659   0.15772556 
   61800    298.79432   -1017.6229    150070.66   -47209.702    4103.2204   -51312.923   0.16495501 
   62000    303.97782   -919.27247    149935.86   -47237.264    4174.4034   -51411.668   0.15531304 
   62200    295.27124   -975.80067    149939.89   -47249.213    4054.8394   -51304.052   0.15825857 
   62400    299.78255   -1068.2846    150104.16   -47206.051    4116.7914   -51322.843    0.1589862 
   62600    297.27368   -1072.9811    150065.32   -47228.363    4082.3381   -51310.701   0.17005031 
   62800    307.78896   -854.52204    149827.77   -47207.818    4226.7402   -51434.558   0.15603792 
   63000    295.82312   -968.85717    149903.14   -47172.137    4062.4182   -51234.555   0.16664523 
   63200    298.28436   -1199.5912    150178.97   -47172.625    4096.2174   -51268.842   0.16925117 
   63400    306.57613   -994.40378     150056.2   -47129.122    4210.0848   -51339.207   0.16055146 
   63600    301.66325   -847.05722     149778.2   -47112.537    4142.6182   -51255.155   0.16557085 
   63800    303.78954   -967.07992    149952.54   -47139.796    4171.8178   -51311.614   0.16260313 
   64000    305.40975   -1195.8978    150246.52   -47128.034    4194.0675   -51322.102   0.16955306 
   64200    300.97155   -997.09294    150036.59   -47132.836    4133.1194   -51265.955   0.16525772 
   64400    305.54165   -806.76089    149750.66   -47123.668    4195.8787   -51319.547   0.16549106 
   64600     302.6923   -980.28428    150028.64   -47178.422    4156.7498   -51335.172    0.1685269 
   64800     302.9681   -1240.8831    150315.47     -47184.7    4160.5373   -51345.238   0.16436346 
   65000    304.86439   -974.71577    149991.64   -47178.569    4186.5782   -51365.147   0.16214608 
   65200     300.9612   -745.25516    149724.57   -47210.285    4132.9773   -51343.262   0.16072155 
   65400    302.09639   -1037.9173    150090.81   -47232.487    4148.5665   -51381.054    0.1600967 
   65600    300.06309   -1246.9151    150321.56   -47253.874    4120.6439   -51374.518   0.16074844 
   65800    300.05273   -892.01533    149877.66   -47234.622    4120.5017   -51355.123   0.15394083 
   66000     304.1011    -777.5533    149686.49    -47236.98    4176.0963   -51413.076   0.15376849 
   66200    300.09497     -1158.62    150188.81   -47256.262    4121.0817   -51377.343   0.16470651 
   66400    302.47574   -1214.9603    150328.51   -47247.911    4153.7759   -51401.687   0.16266872 
   66600    298.22605   -851.94494    149802.38   -47268.867    4095.4167   -51364.283   0.16050964 
   66800    301.18631   -769.96043    149708.78   -47253.235    4136.0686   -51389.304   0.15617396 
   67000    297.98213   -1194.2276     150278.2   -47274.898    4092.0669   -51366.965   0.16064095 
   67200    294.60293   -1236.1392    150319.97   -47294.612    4045.6618   -51340.273   0.17125084 
   67400    301.10014   -791.60601    149715.11   -47338.887    4134.8853   -51473.773   0.15061289 
   67600     298.5762   -790.60329    149721.92   -47292.379    4100.2252   -51392.604   0.15582182 
   67800    301.12654   -1236.3448    150360.77   -47229.354    4135.2479   -51364.602   0.16213854 
   68000    301.45216   -1198.3714    150308.92   -47225.062    4139.7194   -51364.781   0.16196789 
   68200    296.31362   -765.01329    149676.84   -47308.102     4069.154   -51377.256   0.15738373 
   68400    303.01107   -828.30207    149776.93   -47250.361    4161.1274   -51411.488   0.15854575 
   68600    293.70153   -1280.9299    150357.66    -47224.75    4033.2833   -51258.033   0.16995529 
   68800    299.23981   -1097.8774    150198.77   -47192.476    4109.3382   -51301.814   0.15843428 
   69000    300.34508   -748.60959    149658.98   -47247.174    4124.5164   -51371.691   0.15902718 
   69200    301.38803   -892.83984    149832.06   -47251.163    4138.8388   -51390.002   0.16385199 
   69400    297.05889   -1273.1739    150326.28   -47283.256    4079.3885   -51362.644   0.16105145 
   69600    301.45133   -1081.8428    150105.21   -47300.156    4139.7081   -51439.864   0.15541999 
   69800    304.47015   -718.58815     149667.9   -47271.888    4181.1643   -51453.052   0.15108173 
   70000    302.19482   -979.85646    149959.72   -47227.836    4149.9182   -51377.755   0.15857198 
   70200    302.14896   -1210.3837    150364.67   -47203.452    4149.2883    -51352.74   0.16270471 
   70400    303.99715   -977.72882    150054.59   -47222.987    4174.6688   -51397.656   0.15628356 
   70600    304.46907   -738.17407    149681.98   -47200.734    4181.1495   -51381.884   0.15856946 
   70800    295.92058   -1010.1637     150049.7   -47220.708    4063.7566   -51284.464   0.16062561 
   71000    293.95575   -1237.5481    150337.47   -47262.002    4036.7743   -51298.776   0.17039396 
   71200    303.71124   -947.19563    149948.17   -47277.491    4170.7425   -51448.233   0.16084479 
   71400     301.8525   -807.28511    149738.19   -47246.562    4145.2173   -51391.779   0.16034557 
   71600    301.66814   -1033.3441    150073.87   -47219.392    4142.6855   -51362.078   0.16314592 
   71800    301.42434   -1106.3975    150217.74   -47236.255    4139.3374   -51375.592   0.16625805 
   72000    299.37629   -937.51536    149958.79   -47265.617    4111.2124    -51376.83   0.16308776 
   72200    296.11407   -905.24124    149871.41   -47302.275    4066.4137   -51368.689   0.16222974 
   72400    293.24977   -1033.5384    150039.13   -47279.469    4027.0794   -51306.549   0.16731754 
   72600    305.04008   -1072.9658    150132.13   -47244.485    4188.9909   -51433.476    0.1615434 
   72800    291.56952   -1029.8552    150015.98   -47323.763    4004.0052   -51327.768   0.16519112 
   73000    302.33671   -954.26503    149928.17   -47324.713    4151.8667   -51476.579   0.16216896 
   73200    295.98856   -1040.0945    150033.78    -47335.83    4064.6901    -51400.52    0.1638705 
   73400     295.0051   -1032.6931    150066.61   -47330.984    4051.1847   -51382.169   0.15808636 
   73600     297.7842   -943.61019     149970.6   -47315.763    4089.3488   -51405.112   0.15899618 
   73800    299.61371   -949.11748    149945.19    -47311.88    4114.4728   -51426.353   0.16525695 
   74000     297.2337   -1029.3113    150007.71   -47358.835    4081.7891   -51440.624   0.15655353 
   74200    302.11205   -1028.9337    150003.14   -47356.022    4148.7815   -51504.803   0.14995899 
   74400    293.20717   -986.04569    149892.95   -47317.091    4026.4944   -51343.585   0.16737368 
   74600    298.16915    -980.1737    149893.89   -47341.749    4094.6353   -51436.384   0.16446029 
   74800    298.31199   -1070.9049    149996.64   -47350.415    4096.5968   -51447.012   0.16479324 
   75000    297.55806    -1032.278    150010.11   -47311.208    4086.2433   -51397.451   0.16106948 
   75200    298.37711   -932.07324    149929.02   -47299.951    4097.4911   -51397.442   0.16014081 
   75400    294.10765   -1051.7678    149976.65   -47287.165    4038.8603   -51326.025   0.16381516 
   75600    301.81069   -1077.5844    150081.46   -47264.435    4144.6431   -51409.078   0.16678932 
   75800    304.37968   -976.57755    150018.73   -47241.065    4179.9219   -51420.987   0.16304756 
   76000     300.0368   -944.15367    149929.47   -47227.639     4120.283   -51347.922   0.15668622 
   76200    299.24711   -1001.5556    150032.35   -47254.468    4109.4384   -51363.907   0.15728565 
   76400    295.29385   -1045.3665    150109.92   -47221.722    4055.1499   -51276.872   0.16701194 
   76600    302.52722   -955.30908    149996.19   -47210.015    4154.4829   -51364.497   0.16628081 
   76800    300.17362   -945.91642    149919.15   -47211.523    4122.1618   -51333.684   0.16481103 
   77000    301.38111   -997.75019    150019.73   -47211.646    4138.7437    -51350.39   0.16538698 
   77200    297.88574   -1067.4484    150082.91   -47258.692    4090.7433   -51349.435   0.16513212 
   77400    301.68153   -977.87681    149977.04   -47249.839    4142.8694   -51392.708   0.16048491 
   77600    301.79628   -960.03367    149934.16   -47266.839    4144.4452   -51411.285   0.16451251 
   77800     298.3848   -1014.5036    150054.37   -47277.744    4097.5966   -51375.341   0.16219208 
   78000    297.99735   -1105.3134    150124.99   -47277.901     4092.276   -51370.177   0.15691587 
   78200    300.56008   -933.22339     149952.1   -47274.029    4127.4689   -51401.498   0.15425572 
   78400    295.44772   -930.40319    149900.09   -47295.157     4057.263    -51352.42   0.16364866 
   78600    292.86162   -1083.7238    150122.01   -47310.943    4021.7491   -51332.692    0.1670621 
   78800    301.64898   -1098.0418    150154.06   -47296.694    4142.4224   -51439.116   0.15884716 
   79000    300.92246   -899.26487    149869.97   -47282.531    4132.4453   -51414.976   0.15796725 
   79200    303.69216   -882.28822    149876.31   -47294.537    4170.4805   -51465.017   0.15869372 
   79400     302.2769   -1118.3485    150230.86   -47241.158    4151.0453   -51392.204   0.16475299 
   79600    297.31767   -1121.7502    150182.76   -47230.851    4082.9423   -51313.793   0.16722245 
   79800    300.50167   -817.25334    149803.33   -47263.604    4126.6668   -51390.271   0.15636419 
   80000    299.69806   -888.04473    149903.08   -47233.631    4115.6312   -51349.263   0.15433219 
   80200    300.07664   -1207.5249    150328.62   -47191.525      4120.83   -51312.355   0.16504777 
   80400    302.28634   -1086.7592    150207.21    -47161.81     4151.175   -51312.985   0.17020297 
   80600    299.97416   -786.55055    149768.16   -47187.861    4119.4227   -51307.283   0.16007601 
   80800    300.91403   -940.11961     149920.4   -47128.285    4132.3296   -51260.614   0.16043116 
   81000    298.84526   -1228.2792    150376.86   -47173.988      4103.92   -51277.908   0.17041135 
   81200    302.49507   -1073.8472    150135.31   -47157.801    4154.0414   -51311.843   0.16959063 
   81400    303.15979   -712.63481    149674.84   -47138.954    4163.1697   -51302.124   0.15802562 
   81600    307.77732    -954.4206    149971.29   -47158.039    4226.5804   -51384.619   0.15563971 
   81800    302.62146   -1292.9042     150419.6   -47154.869     4155.777   -51310.646   0.16651386 
   82000    305.80942   -959.86587    150041.35   -47125.739    4199.5559   -51325.295   0.15434074 
   82200    299.95748   -755.17508    149666.34   -47177.399    4119.1937   -51296.592   0.16239003 
   82400    302.69656    -1063.561    150097.49   -47174.294    4156.8084   -51331.102   0.16967533 
   82600    299.76513   -1300.0069       150370   -47214.509    4116.5522   -51331.061   0.16243395 
   82800    299.18777   -912.16342    149888.32   -47262.669    4108.6236   -51371.293    0.1562892 
   83000    303.50862    -738.3078    149683.18   -47249.406      4167.96   -51417.366   0.16277987 
   83200    298.40313   -1104.3465    150225.24   -47264.328    4097.8484   -51362.177   0.17142356 
   83400    297.84179   -1261.1291    150395.66   -47281.998    4090.1398   -51372.137   0.16075746 
   83600     295.4029   -861.32426     149806.1   -47307.598    4056.6475   -51364.245   0.15341838 
   83800    297.99697   -771.17763     149697.2   -47257.292    4092.2708   -51349.562   0.15452229 
   84000    295.33546   -1213.6982    150295.11   -47280.386    4055.7214   -51336.108   0.16162199 
   84200    299.71628    -1221.039    150316.81   -47267.409    4115.8814   -51383.291   0.16403693 
   84400    295.89273   -791.74719    149719.45   -47279.227    4063.3741   -51342.601   0.16007118 
   84600    295.09659   -807.34054    149751.58   -47274.889    4052.4411    -51327.33   0.15779093 
   84800    299.67896   -1218.4664    150310.12   -47277.963    4115.3688   -51393.332   0.16032948 
   85000     297.5213   -1191.0368    150206.48    -47241.66    4085.7387   -51327.398   0.17611306 
   85200    301.31402   -805.93397    149707.68   -47217.612    4137.8224   -51355.435   0.16621237 
   85400    304.81334    -867.7352    149820.59   -47201.872    4185.8772   -51387.749   0.15603657 
   85600    301.99376   -1214.8054    150281.64   -47192.559     4147.157   -51339.716   0.16602662 
   85800    306.23903   -1084.5635    150126.73   -47208.794    4205.4556   -51414.249   0.15802585 
   86000      301.838   -778.79687    149727.61   -47165.508    4145.0181   -51310.526   0.15859574 
   86200    300.69298   -938.58618    149961.31   -47173.652    4129.2939   -51302.945    0.1590418 
   86400    306.48664   -1212.3774    150322.08   -47162.275     4208.856   -51371.131   0.16395689 
   86600    309.51413   -1041.0671    150080.31   -47163.857    4250.4312   -51414.288   0.15890018 
   86800    301.07197   -842.24865    149780.49   -47199.407    4134.4985   -51333.905   0.16549218 
   87000    301.23773   -975.22247    149997.89   -47218.581    4136.7748   -51355.355   0.17046994 
   87200    302.07741   -1145.9899     150217.9   -47184.166    4148.3058   -51332.472   0.16084691 
   87400    301.65671   -1012.8864    150019.29   -47148.244    4142.5285   -51290.773   0.15546494 
   87600    302.74039   -882.61952    149828.29   -47220.542    4157.4102   -51377.952   0.16305487 
   87800    302.99257   -1008.2301    150000.58   -47226.085    4160.8733   -51386.959   0.16429901 
   88000    301.28528   -1079.0241     150135.4   -47173.273    4137.4279   -51310.701   0.15976563 
   88200    301.77777   -1006.0187     150005.2   -47187.118     4144.191   -51331.309   0.16126433 
   88400    304.11757   -953.99083    149885.69   -47173.086    4176.3224   -51349.409   0.15956663 
   88600    299.97071   -988.61784    150011.05   -47185.169    4119.3754   -51304.544   0.16095572 
   88800    300.16354   -1073.5144    150148.01   -47174.273    4122.0234   -51296.296   0.16310916 
   89000    301.82664   -1039.0179    150067.12    -47198.55    4144.8621   -51343.412   0.16908096 
   89200    309.67067   -945.74502    149956.61   -47174.313    4252.5809   -51426.894   0.15772931 
   89400    308.09803   -988.95271    150060.83   -47144.597    4230.9844   -51375.581   0.15198271 
   89600    301.14609    -1097.904    150160.08   -47165.213    4135.5163   -51300.729    0.1728192 
   89800    299.60812   -965.46355    150012.18   -47204.042    4114.3961   -51318.438   0.16337826 
   90000    301.50294   -893.35722    149920.66   -47222.725    4140.4168   -51363.142   0.15620149 
   90200    299.91285   -1053.3009    150079.23   -47267.918    4118.5808   -51386.499   0.15820528 
   90400    300.99408    -1043.137    150097.19   -47288.455    4133.4289   -51421.884   0.16113702 
   90600    304.45237   -909.14388    149936.68   -47282.512    4180.9202   -51463.432   0.15410543 
   90800     294.4859   -982.94154    149954.09   -47306.554    4044.0546   -51350.608   0.15912075 
   91000    295.91212   -1066.6275    150055.56    -47305.95    4063.6403    -51369.59   0.16745641 
   91200    293.60717   -1021.9917    149998.51   -47320.493    4031.9874    -51352.48   0.16173406 
   91400    301.33575   -921.15044    149910.94   -47312.627    4138.1209   -51450.748   0.15758286 
   91600    295.02824   -1017.5346    149963.75   -47316.154    4051.5025   -51367.657   0.16646506 
   91800    295.53699   -1050.6394    150068.81   -47290.641    4058.4888    -51349.13   0.16212681 
   92000    299.80182   -1015.5045    150017.68   -47307.088     4117.056   -51424.144   0.15634404 
   92200    290.97688   -983.02985    149906.74   -47331.297    3995.8668   -51327.164     0.163281 
   92400    296.72787   -971.13939    149957.46   -47308.931    4074.8427   -51383.773   0.16043398 
   92600    294.26893   -1069.6465    150093.68   -47365.214    4041.0751   -51406.289   0.15414315 
   92800    295.96093   -1078.7886    150058.17   -47334.516    4064.3107   -51398.827   0.16123002 
   93000    305.60703     -896.226    149912.17   -47263.692    4196.7766   -51460.469   0.15884616 
   93200    302.59206   -956.61755    150014.34   -47261.289    4155.3732   -51416.663   0.15734308 
   93400    297.90764   -1171.5847    150211.29   -47261.058    4091.0441   -51352.102   0.16423839 
   93600    294.56088   -1033.3935    150066.95    -47245.27    4045.0843   -51290.354   0.16771926 
   93800    301.11568   -832.00474    149835.11     -47239.2    4135.0987   -51374.298   0.15758119 
   94000    301.83311   -967.77526     150054.4   -47237.437    4144.9509   -51382.388   0.15489219 
   94200    298.91596   -1187.6368    150286.82   -47318.384    4104.8909   -51423.275   0.16469086 
   94400    297.64804   -947.04146    149939.03   -47307.746     4087.479   -51395.225   0.15627879 
   94600    297.14539   -795.29815     149693.5   -47307.675    4080.5764   -51388.251   0.15258995 
   94800    293.54452   -1080.4055    150087.94   -47356.266    4031.1271   -51387.393   0.15731235 
   95000    293.45302   -1199.9835    150281.73   -47358.943    4029.8706   -51388.814   0.16982389 
   95200    296.09548   -918.14571    149826.86   -47372.673    4066.1583   -51438.831   0.16258051 
   95400    295.08446   -789.44994     149659.3   -47387.941    4052.2745   -51440.215   0.15673295 
   95600    296.52869   -1129.1182    150122.32   -47342.466    4072.1075   -51414.574   0.16775713 
   95800    299.50945   -1180.9098    150248.73   -47301.987     4113.041   -51415.028   0.16109551 
   96000    301.39882   -843.54181    149785.12   -47300.857     4138.987   -51439.844    0.1531677 
   96200     294.8998   -837.51875    149722.69   -47345.142    4049.7386    -51394.88   0.15677188 
   96400    292.37049   -1200.7147    150227.23   -47330.552    4015.0046   -51345.556   0.16402195 
   96600     300.8896   -1197.0168     150243.1   -47342.687     4131.994   -51474.681   0.15550631 
   96800    295.14517   -777.37844    149668.79   -47403.506    4053.1082   -51456.615    0.1522916 
   97000    299.78645   -782.89489    149697.52   -47387.581     4116.845   -51504.426   0.15889574 
   97200    295.05006   -1268.3939    150304.69   -47364.843     4051.802   -51416.645   0.16240285 
   97400     294.8739    -1198.861    150231.25   -47318.291    4049.3829   -51367.674   0.16196443 
   97600    294.24311   -752.73547    149649.67   -47297.895    4040.7206   -51338.616   0.16230511 
   97800    302.91373   -847.58986    149806.96   -47292.311    4159.7906   -51452.101   0.15193437 
   98000    295.54008   -1264.5762    150355.99    -47252.43    4058.5312   -51310.961   0.16118922 
   98200    301.59846   -1114.5566    150150.86   -47268.278    4141.7285   -51410.007   0.15430364 
   98400    301.11047   -730.96771    149650.01   -47201.772    4135.0272     -51336.8   0.15366775 
   98600    298.22365   -968.19695    149896.26   -47248.052    4095.3837   -51343.436   0.16046005 
   98800    299.15998   -1216.6227    150314.14   -47201.084     4108.242   -51309.325   0.16639392 
   99000    301.47224   -1066.8702    150031.87   -47208.461    4139.9953   -51348.456    0.1689181 
   99200    297.95998   -759.89917     149648.1   -47280.296    4091.7628   -51372.059   0.15932663 
   99400    302.20227   -972.72594    149943.98   -47373.308    4150.0205   -51523.328   0.15211448 
   99600    298.19466   -1274.1925    150262.38   -47391.811    4094.9855   -51486.796    0.1645394 
   99800    295.27248   -939.84613    149917.43   -47367.616    4054.8565   -51422.472   0.15535949 
  100000    295.90116   -813.79635    149675.12    -47370.66    4063.4899    -51434.15   0.15476274 
  100200     301.5695   -1015.8461    150008.22   -47323.372    4141.3309   -51464.703   0.15395867 
  100400    296.91122   -1209.6806    150217.95   -47316.731    4077.3606   -51394.092   0.15987216 
  100600    295.82341   -936.66928    149893.51   -47267.607    4062.4222   -51330.029   0.16026604 
  100800     297.8781   -806.10367    149758.97    -47301.19    4090.6384   -51391.828   0.16082972 
  101000    298.75456   -1060.3024    150113.36   -47278.495    4102.6744    -51381.17   0.16454059 
  101200    298.96658   -1141.5861     150237.3   -47254.712    4105.5861   -51360.298   0.16069204 
  101400    295.42499   -935.44881    149863.02   -47267.037    4056.9509   -51323.988   0.16205854 
  101600    300.56605   -813.83473    149796.94   -47286.118     4127.551   -51413.669   0.15975401 
  101800    303.77419   -1079.4368    150167.31   -47245.836     4171.607   -51417.443   0.15461708 
  102000    302.60072   -1086.1763    150166.64   -47247.336    4155.4922   -51402.828    0.1560096 
  102200    297.60988   -856.76585    149793.83   -47243.896     4086.955   -51330.851   0.16459233 
  102400    303.39485   -863.18167    149844.92   -47184.942    4166.3977    -51351.34    0.1597272 
  102600    302.26474   -1150.1163    150226.22   -47191.496    4150.8784   -51342.374   0.16194544 
  102800    301.28419   -1137.1996    150133.01   -47204.348    4137.4128   -51341.761   0.16505236 
  103000    299.06918   -835.83043    149733.95   -47202.688    4106.9949   -51309.683   0.16654848 
  103200    299.65324   -893.98085    149873.12   -47181.426    4115.0156   -51296.442   0.16796537 
  103400    299.27332   -1180.8599    150250.77   -47205.467    4109.7983   -51315.266   0.16949499 
  103600    302.75013   -1029.5442    150077.81   -47211.813     4157.544   -51369.357   0.16649395 
  103800    302.19017   -814.03949     149763.7   -47221.608    4149.8543   -51371.462   0.15283551 
  104000    304.84033   -972.83982     149980.8   -47227.602    4186.2479    -51413.85   0.15235109 
  104200    298.06682   -1164.1198    150265.65   -47237.082      4093.23   -51330.312   0.16792585 
  104400    302.11623   -1019.5224    149984.82   -47258.334     4148.839   -51407.173   0.16402213 
  104600    300.13597   -774.60879    149717.85   -47255.924    4121.6448   -51377.569    0.1575562 
  104800    302.80153   -1030.0714    150029.53   -47242.712    4158.2498   -51400.962   0.15927263 
  105000    301.33129   -1187.0691    150269.38   -47268.371    4138.0596    -51406.43   0.16362856 
  105200    297.32069   -982.81039    149913.29   -47275.022    4082.9837   -51358.006   0.16475285 
  105400     298.4818   -817.83184    149686.35   -47268.869    4098.9288   -51367.797   0.16358515 
  105600     297.9879   -1063.0601    150085.97   -47261.623    4092.1462    -51353.77   0.16768701 
  105800    297.43379   -1220.4864    150299.62   -47274.653    4084.5369   -51359.189   0.15771138 
  106000    299.20507   -846.53695    149825.93   -47261.721    4108.8612   -51370.582   0.15104119 
  106200    305.50308   -765.29415    149641.69   -47240.875    4195.3491   -51436.224   0.16101258 
  106400    300.49656    -1141.734    150156.41   -47246.024    4126.5966    -51372.62   0.16756812 
  106600    302.43492   -1216.5163    150289.83   -47243.358    4153.2154   -51396.573   0.16587814 
  106800     300.7116   -788.98396    149681.94   -47245.593    4129.5497   -51375.143    0.1621497 
  107000    302.20919   -741.97216    149614.26   -47203.335    4150.1154   -51353.451    0.1613306 
  107200     303.6951   -1300.3859    150380.26   -47180.408    4170.5208   -51350.929   0.17226095 
  107400    301.79985   -1244.5945    150368.05   -47185.765    4144.4942   -51330.259   0.16987828 
  107600    302.60878   -689.42093    149498.43   -47176.226    4155.6029   -51331.829   0.16828371 
  107800    302.60247   -703.32796    149633.93   -47197.722    4155.5162   -51353.238   0.15419242 
  108000    297.99972    -1417.779    150546.75   -47157.775    4092.3085   -51250.084   0.16770927 
  108200    298.23954   -1183.2059    150266.74   -47197.218    4095.6019    -51292.82   0.17180211 
  108400    301.47028   -582.62774    149415.22   -47205.641    4139.9683    -51345.61   0.16153406 
  108600     299.8128   -877.85334    149808.45   -47172.799    4117.2069   -51290.006   0.16556486 
  108800     303.2981   -1385.1329    150600.79   -47182.198    4165.0691   -51347.267   0.17011004 
  109000    298.71277   -1081.1297     150168.8   -47229.261    4102.1006   -51331.361   0.16580291 
  109200    300.59117   -656.38849    149517.74   -47240.799    4127.8958   -51368.695   0.15750837 
  109400     296.9568   -1013.7646    149967.28   -47220.614    4077.9866     -51298.6   0.16662167 
  109600    302.85752   -1279.0659    150468.16   -47171.432    4159.0187    -51330.45   0.16495793 
  109800    299.99936   -1028.7996    150065.33   -47231.615    4119.7687   -51351.384   0.15816391 
  110000    301.37414   -717.12856    149683.98   -47173.779    4138.6481   -51312.427   0.15987282 
  110200    304.06755   -1013.2273    150077.59   -47156.671    4175.6356   -51332.306   0.16714041 
  110400    304.16877   -1220.1772     150347.9   -47205.379    4177.0256   -51382.405   0.16196518 
  110600    297.47635   -954.63381     149949.9   -47285.883    4085.1213   -51371.005   0.15435926 
  110800    300.39224   -814.48196    149755.49   -47285.244    4125.1641   -51410.408   0.16417064 
  111000    299.25105   -1055.3864    150105.19   -47282.768    4109.4925   -51392.261   0.16992673 
  111200    297.00769   -1145.4421    150219.42     -47268.1    4078.6854   -51346.786   0.16215599 
  111400    297.76684   -901.94641    149893.88   -47328.304    4089.1106   -51417.415   0.15599738 
  111600    295.03113   -904.26443    149782.31    -47385.35    4051.5421   -51436.892   0.15661934 
  111800    293.41003   -1090.4275    150045.77   -47415.093    4029.2802   -51444.374   0.16317998 
  112000    290.68996   -1098.1483    150103.51   -47404.517    3991.9266   -51396.443    0.1623419 
  112200    300.13396   -875.60191    149856.69   -47365.694    4121.6172   -51487.311   0.15705811 
  112400    294.77458   -890.87494    149865.86   -47332.683    4048.0189   -51380.702   0.15826772 
  112600    300.36202   -1131.2819    150158.58   -47303.788    4124.7491   -51428.537   0.16165971 
  112800     296.2733   -1094.8806     150105.6   -47320.584    4068.6003   -51389.184   0.16882618 
  113000     298.3098   -839.10966    149819.86   -47301.577    4096.5668   -51398.144   0.16201535 
  113200    295.67912   -939.71457    149908.74   -47336.706    4060.4407   -51397.147   0.15531006 
  113400    297.38222   -1116.9985    150170.76   -47312.409    4083.8287   -51396.238   0.15831699 
  113600    298.56439   -1081.2019     150076.1   -47318.867     4100.063    -51418.93   0.16543085 
  113800    298.79813   -861.61175    149836.88   -47304.373    4103.2727   -51407.645    0.1592616 
  114000    296.31888   -1008.9363    149979.32   -47287.951    4069.2262   -51357.178   0.16432437 
  114200    294.82768   -1169.6913    150194.21   -47297.908    4048.7483   -51346.657   0.17026296 
  114400     301.7757   -993.24848    149985.07   -47240.746    4144.1625   -51384.909   0.15822303 
  114600    301.55022   -849.38665    149804.97   -47215.116    4141.0661   -51356.182   0.16407939 
  114800    298.19299   -1044.1168    150058.77   -47196.259    4094.9626   -51291.221   0.16845063 
  115000    300.32684   -1119.9139    150196.49   -47223.603     4124.266   -51347.869   0.16174795 
  115200    300.45569   -959.27408     149905.7     -47243.3    4126.0353   -51369.335   0.15850551 
  115400    298.83259   -823.64773    149784.83   -47257.979     4103.746   -51361.725   0.16211362 
  115600    300.73253   -1091.6478    150130.65   -47236.862    4129.8371     -51366.7   0.16778249 
  115800     301.3282   -1185.3097     150245.9   -47250.525    4138.0172   -51388.542   0.16612833 
  116000     299.1834   -893.97792    149826.77    -47241.43    4108.5636   -51349.993   0.16582645 
  116200    303.68623   -838.25433    149753.26    -47261.11     4170.399   -51431.509   0.16352771 
  116400    296.03023   -1183.1025    150180.53    -47296.99    4065.2623   -51362.253   0.16598217 
  116600    301.47821   -1138.7652    150143.91   -47309.442    4140.0772   -51449.519   0.16333176 
  116800    302.95827   -759.33253     149680.9   -47269.675    4160.4023   -51430.077     0.158535 
  117000    302.40258   -874.29371    149777.61   -47277.393    4152.7713   -51430.164    0.1583097 
  117200    300.66343   -1249.9629    150312.77   -47257.316    4128.8882   -51386.204   0.16284361 
  117400    300.71005   -1118.1873    150157.82   -47285.552    4129.5285    -51415.08   0.16840741 
  117600    300.71423    -696.8189     149560.5   -47273.148    4129.5858   -51402.734   0.15918865 
  117800    296.76664   -921.13631    149830.18   -47230.342    4075.3752   -51305.718   0.16524443 
  118000    301.13207   -1391.7291    150483.12   -47211.552    4135.3238   -51346.876   0.17118831 
  118200    301.42031   -1076.3842    150089.73   -47251.825    4139.2821   -51391.107   0.16662804 
  118400    301.28179   -609.66568    149398.74   -47313.043    4137.3798   -51450.423    0.1571832 
  118600    299.59955    -941.6535    149885.36    -47336.72    4114.2784   -51450.998   0.15821712 
  118800    295.78466   -1427.3466    150545.61   -47373.922    4061.8901   -51435.812   0.16660759 
  119000    291.37307   -994.37608    149913.84    -47382.59    4001.3075   -51383.898   0.15637939 
  119200    297.07757   -544.08355    149361.51   -47392.215     4079.645    -51471.86   0.14994988 
  119400    292.95787    -1093.723    150091.94   -47409.508    4023.0709   -51432.579   0.15872899 
  119600    297.00765   -1380.3765     150493.1   -47339.464    4078.6849   -51418.149   0.16759226 
  119800    298.73239   -847.85185    149761.08   -47347.626      4102.37   -51449.996   0.15656698 
  120000    294.83652   -688.85335    149493.75   -47370.021    4048.8695    -51418.89   0.15981735 
  120200    293.82974     -1128.82    150168.86   -47333.662    4035.0439   -51368.706   0.16596424 
  120400    295.40405   -1284.0362     150344.9   -47377.983    4056.6633   -51434.646   0.16050354 
  120600    292.59443   -904.13128    149766.35   -47379.563    4018.0799   -51397.643   0.16135807 
  120800     293.8694   -779.02206     149656.3   -47372.632    4035.5886   -51408.221   0.15343389 
  121000    296.47183   -1089.1237    150094.94   -47350.647    4071.3266   -51421.973   0.15731368 
  121200    290.80956   -1157.9229    150169.26   -47347.457     3993.569   -51341.026    0.1630605 
  121400    294.45031   -920.19956    149840.29   -47351.919    4043.5659   -51395.485    0.1624637 
  121600    295.57993   -928.05577    149808.57   -47342.551    4059.0786   -51401.629    0.1620131 
  121800    290.87262   -1095.0696    150074.19   -47336.174     3994.435   -51330.609   0.16730786 
  122000    292.18566   -1078.6758    150080.39   -47312.842    4012.4664   -51325.309   0.16689264 
  122200    297.20223   -970.54476    149877.53   -47283.396     4081.357   -51364.753   0.16328809 
  122400    299.94145   -967.23836    149942.95   -47235.718    4118.9735   -51354.691   0.15435792 
  122600     300.9745   -1047.5106    150162.06   -47151.468      4133.16   -51284.628   0.16266795 
  122800    299.70836   -1014.5934    150134.23   -47151.546    4115.7726   -51267.318   0.16520615 
  123000    299.54053   -955.50828    149955.88   -47203.739    4113.4679   -51317.207    0.1573871 
  123200    302.87484   -927.22857    149947.88   -47228.249    4159.2566   -51387.506   0.15781257 
  123400    293.55315   -1034.6383    150069.24   -47312.003    4031.2456   -51343.248   0.15989373 
  123600    298.37573   -1014.2159    150071.59   -47258.555    4097.4722   -51356.027   0.15829155 
  123800    293.65836   -996.15726    150001.32   -47282.486    4032.6904   -51315.177   0.16148574 
  124000    296.03386   -989.74559    149990.45   -47263.736    4065.3122   -51329.049   0.16561659 
  124200    302.98748   -1038.5056    150065.04   -47246.607    4160.8035    -51407.41    0.1606458 
  124400     301.4161   -1037.1553    150078.66   -47259.938    4139.2244   -51399.162   0.15464014 
  124600    300.77345   -967.78158    149981.58   -47280.092     4130.399   -51410.491   0.15478776 
  124800    298.96567   -947.03755    149958.59   -47285.371    4105.5736   -51390.945   0.15912525 
  125000     299.7032    -1016.472     150033.2   -47294.083    4115.7018   -51409.785   0.15907277 
  125200    296.59743   -1011.8953    150029.17   -47283.036    4073.0515   -51356.087   0.16458118 
  125400    297.68143   -983.15443    149925.37   -47354.696    4087.9375   -51442.634    0.1634733 
  125600    296.92586    -944.3239    149923.51   -47347.209    4077.5617    -51424.77   0.16205146 
  125800    292.92044   -1061.2386     150023.4   -47335.774    4022.5569   -51358.331   0.15936188 
  126000    293.47406   -1034.7096    150009.52   -47302.694    4030.1595   -51332.853    0.1624127 
  126200    298.11308   -939.12703    149906.36   -47283.914    4093.8653    -51377.78   0.15778331 
  126400    295.59526   -955.31188    149908.46   -47314.095    4059.2891   -51373.384   0.15782732 
  126600    294.87858   -1069.0982    150020.09     -47338.5    4049.4471   -51387.947   0.16167331 
  126800    296.14801   -1019.6017    149986.24   -47309.671    4066.8798   -51376.551   0.15819754 
  127000    299.54839   -919.14648    149862.29   -47329.585    4113.5758   -51443.161   0.15771078 
  127200    292.84351   -965.65642    149920.66   -47363.067    4021.5004   -51384.567   0.16357644 
  127400    293.22433   -1085.1682    150107.89   -47359.395    4026.7301   -51386.125   0.17007231 
  127600    297.74294   -1048.7633    150011.25   -47355.194    4088.7823   -51443.977   0.16302291 
  127800    297.86766   -892.03273    149764.54    -47348.17     4090.495   -51438.665    0.1587872 
  128000    297.27696   -994.95336    149910.29   -47343.065    4082.3832   -51425.448   0.15959264 
  128200    297.78529   -1141.5427    150172.82   -47303.862    4089.3639   -51393.226   0.15923036 
  128400    296.46177   -1012.7254    149997.21   -47334.485    4071.1885   -51405.674   0.16114293 
  128600    291.49886   -856.93058    149739.22   -47370.479    4003.0349   -51373.514   0.16105032 
  128800    294.02533   -1051.7795    149951.57   -47405.899    4037.7298   -51443.629   0.16335258 
  129000    294.46623   -1136.7672    150182.23   -47435.992    4043.7846   -51479.777   0.15552482 
  129200      290.611   -986.58335    149913.71   -47396.318    3990.8422    -51387.16   0.16342955 
  129400    290.82917   -840.37353    149716.52   -47399.444    3993.8383   -51393.283   0.16471221 
  129600    293.38743   -1059.5295    150040.52    -47395.56    4028.9698    -51424.53   0.16178411 
  129800    293.11625   -1189.1562    150214.12   -47404.644    4025.2459    -51429.89   0.16209645 
  130000    292.89803   -954.09356    149801.51   -47420.787    4022.2491   -51443.036   0.16306712 
  130200    297.06744   -743.95892    149621.21   -47442.208     4079.506   -51521.714   0.14957219 
  130400    294.11187   -1122.8968    150081.58    -47419.37    4038.9183   -51458.288   0.15509405 
  130600    293.60838   -1216.1749    150227.72   -47371.537    4032.0041   -51403.541   0.16656659 
  130800      295.787   -858.59714     149787.7   -47400.321    4061.9222   -51462.243   0.15891147 
  131000    289.10417   -813.66469    149684.93   -47421.057    3970.1496   -51391.207   0.15628325 
  131200    293.24362   -1129.9089    150130.25    -47387.89     4026.995   -51414.885   0.16141808 
  131400    300.29672   -1138.5182    150149.63    -47389.09    4123.8523   -51512.942   0.16308931 
  131600    295.09086   -818.70909    149710.85   -47387.509    4052.3623   -51439.871   0.15669641 
  131800    297.89769    -883.9882    149773.14   -47358.734    4090.9074   -51449.642   0.16004811 
  132000     298.8008   -1187.5893    150256.98   -47294.576    4103.3095   -51397.885   0.17111506 
  132200    299.14419   -1128.3336    150141.87    -47303.75    4108.0251   -51411.775   0.16396134 
  132400    299.97409   -742.50776    149632.06   -47314.729    4119.4218   -51434.151   0.15693111 
  132600     300.5847   -906.42454    149829.56   -47287.822     4127.807   -51415.629   0.15897487 
  132800    301.37644   -1274.5177    150366.27   -47248.893    4138.6797   -51387.572   0.16954532 
  133000    295.00913   -1093.7723    150116.55   -47245.938    4051.2399   -51297.178   0.16975203 
  133200    302.14943   -695.10825    149575.96   -47199.976    4149.2948    -51349.27   0.16486351 
  133400    298.12443   -946.57875    149917.07   -47182.109    4094.0212    -51276.13   0.16649428 
  133600    304.04029   -1318.4756    150455.12   -47186.418    4175.2612   -51361.679    0.1635574 
  133800    298.50475    -1052.814    150070.84   -47212.923     4099.244   -51312.167   0.16476449 
  134000    305.43006   -631.53944    149557.08   -47169.213    4194.3463   -51363.559   0.16141907 
  134200     301.1363   -1019.0614    150032.96   -47177.602     4135.382   -51312.984   0.17103898 
  134400    301.75076   -1369.0687    150503.95   -47167.228      4143.82   -51311.048   0.17310153 
  134600    302.52098   -962.28956    149956.46   -47193.461    4154.3972   -51347.858   0.16187561 
  134800    299.10328   -657.34753    149550.55   -47241.912    4107.4632   -51349.375   0.15604894 
  135000    300.13739   -1118.8716    150139.75   -47291.984    4121.6643   -51413.648   0.16194681 
  135200     302.1404   -1307.0127    150432.91   -47296.489    4149.1708    -51445.66   0.17124597 
  135400    294.50524   -886.60673    149807.57   -47327.278    4044.3202   -51371.599   0.16042736 
  135600    297.58628   -706.60329    149582.75   -47293.413     4086.631   -51380.044   0.15393559 
  135800    298.10524   -1163.1249    150168.23   -47359.715    4093.7577   -51453.473   0.16260266 
  136000    295.20002   -1261.8115    150282.88   -47389.958    4053.8614    -51443.82   0.16858213 
  136200    297.51435   -893.32553    149776.44   -47408.807    4085.6432   -51494.451   0.16002854 
  136400    297.51497   -803.06566    149736.97   -47362.134    4085.6517   -51447.785   0.15799129 
  136600     296.1026   -1109.7979    150172.11     -47297.7    4066.2562   -51363.956   0.16661556 
  136800    294.13239   -1098.1547    150170.75   -47306.797    4039.2001   -51345.997   0.16319994 
  137000    295.38543   -902.86267    149842.98   -47316.823    4056.4076   -51373.231   0.16003014 
  137200    302.68773   -900.41324    149869.34   -47350.635    4156.6871   -51507.322   0.15865672 
  137400    297.42859    -1109.114    150121.69   -47302.906    4084.4655   -51387.371   0.16471003 
  137600     300.6422   -1088.5706    150086.93   -47295.575    4128.5967   -51424.172   0.15715069 
  137800    295.51101   -870.45612    149875.86   -47270.247    4058.1321   -51328.379   0.15967534 
  138000    301.31101   -1002.7371    149917.71   -47269.216    4137.7812   -51406.997   0.16699484 
  138200    299.27907   -1043.9829    150059.29   -47317.158    4109.8774   -51427.035   0.15526048 
  138400    298.51868   -1017.0222    150000.17   -47302.767    4099.4352   -51402.202   0.16173459 
  138600    296.69155   -957.27209    149910.71   -47317.965    4074.3439   -51392.309   0.16536151 
  138800    298.21783   -1029.5039    149984.36   -47265.872    4095.3037   -51361.176    0.1623193 
  139000    300.71514   -1076.0664    150062.66   -47251.899    4129.5983   -51381.497   0.16144282 
  139200    301.12715   -990.60092    149959.83   -47253.724    4135.2563    -51388.98   0.16351735 
  139400    301.71347    -905.0714    149912.86   -47280.906    4143.3079   -51424.214   0.16157172 
  139600     299.5754   -1011.4426    150064.39    -47260.26    4113.9467   -51374.206   0.16094637 
  139800    301.53836   -1095.8083    150150.85   -47219.417    4140.9033    -51360.32   0.16698882 
  140000    298.46418   -986.76183    150010.67   -47187.635    4098.6868   -51286.321   0.16602092 
  140200     300.4664   -921.98226    149937.47   -47232.403    4126.1825   -51358.585   0.15674932 
  140400    302.79743   -1009.7273    150072.77    -47258.22    4158.1936   -51416.414   0.15832929 
  140600    293.07877   -1097.2888    150114.65   -47255.786    4024.7312   -51280.517   0.16914179 
  140800     300.2297   -925.21232    149964.25   -47251.335    4122.9319   -51374.267   0.16039948 
  141000    299.62041    -936.4986     149954.6   -47290.587    4114.5649   -51405.152   0.16110003 
  141200     308.0758   -1040.8816    150080.97   -47239.794    4230.6793   -51470.473   0.15856736 
  141400    295.86268   -1076.4445    150065.24   -47243.311    4062.9615   -51306.272   0.16391292 
  141600    302.62038    -940.5633    149932.62   -47229.202    4155.7621   -51384.965   0.16508797 
  141800    298.07707   -978.18197    149979.73   -47283.232    4093.3708   -51376.603   0.16840873 
  142000     297.3541   -1078.2064    150078.78   -47298.522    4083.4426   -51381.965   0.17049263 
  142200    301.66175   -1015.2139    150002.95   -47295.582    4142.5977   -51438.179   0.15708143 
  142400    298.87253   -960.01615    149890.94   -47301.327    4104.2945   -51405.622   0.15937708 
  142600    298.22984   -1058.8476    149990.67   -47289.848    4095.4687   -51385.317   0.16506891 
  142800    295.26967   -1043.8463    150062.16   -47292.766    4054.8179   -51347.584   0.16469053 
  143000    294.80575   -978.99761    149924.78   -47359.239    4048.4471   -51407.687   0.16543304 
  143200    297.79216   -918.32165    149875.87   -47326.944    4089.4583   -51416.402   0.16044463 
  143400    298.78358   -1081.3406    150082.96   -47287.759    4103.0729   -51390.832   0.16124491 
  143600    299.84858   -1106.1705    150169.08   -47275.244    4117.6982   -51392.942   0.15889288 
  143800    301.87594   -964.06089    149924.51    -47292.51    4145.5391   -51438.049   0.16851112 
  144000    300.47104   -888.43748    149808.31   -47281.918    4126.2462   -51408.164   0.16913972 
  144200    299.52853   -1105.3179    150123.54    -47250.05     4113.303   -51363.353   0.16510427 
  144400     298.4584   -1180.5865    150213.92       -47250    4098.6074   -51348.607   0.16730085 
  144600    297.69766   -886.49872    149819.86   -47227.758    4088.1604   -51315.919   0.16735514 
  144800    305.97966   -822.57214     149775.4   -47198.573    4201.8937   -51400.467    0.1611245 
  145000    301.33963   -1108.6628    150193.55   -47236.013    4138.1742   -51374.187   0.15999376 
  145200    299.05888   -1113.2705    150152.53   -47268.049    4106.8536   -51374.903   0.16710219 
  145400    296.00727   -842.82918    149735.38    -47279.16     4064.947   -51344.107   0.16213951 
  145600    292.49716   -942.86144    149854.16   -47296.816    4016.7442    -51313.56   0.16315553 
  145800    294.95451   -1234.1765    150273.38   -47306.556      4050.49   -51357.046   0.16923546 
  146000    292.73373   -1111.6151    150090.34   -47295.262    4019.9929   -51315.255   0.17117068 
  146200    297.55443   -749.76802    149669.08   -47333.472    4086.1936   -51419.665   0.15604752 
  146400    298.10401   -924.00208    149904.15   -47282.283    4093.7407   -51376.024   0.16015259 
  146600     306.2266   -1238.6448    150330.22   -47238.163     4205.285   -51443.448   0.16760096 
  146800    303.73621   -1000.2321     150037.6   -47197.592    4171.0854   -51368.678   0.16210825 
  147000    301.20305   -769.53222    149670.89   -47216.864    4136.2986   -51353.163   0.15850358 
  147200    302.99254   -995.31205    149980.36   -47178.811    4160.8729   -51339.684   0.16601755 
  147400    298.14985   -1248.5264    150315.69   -47239.466    4094.3702   -51333.836   0.17146222 
  147600    302.67654   -959.31502    149927.76   -47259.559    4156.5334   -51416.092   0.16503831 
  147800    297.10427   -789.87258    149618.96   -47307.049    4080.0118   -51387.061   0.16478287 
  148000    302.86908   -1038.4587    150069.28   -47264.743    4159.1775    -51423.92   0.16560967 
  148200     297.8892   -1258.2369    150338.32   -47302.346    4090.7908   -51393.137   0.16592979 
  148400     294.2725   -889.69945    149799.18   -47361.595    4041.1242   -51402.719   0.16334758 
  148600    300.59637   -713.41273    149585.98   -47333.723    4127.9673   -51461.691   0.15989613 
  148800    298.11389   -1130.2946    150163.21   -47328.907    4093.8764   -51422.783   0.16030117 
  149000    297.01319   -1256.5268       150309   -47330.883    4078.7609   -51409.644   0.16426857 
  149200    295.18787    -791.6318    149709.71   -47345.329    4053.6945   -51399.023    0.1611324 
  149400    293.01689   -778.89801    149650.57   -47368.862    4023.8814   -51392.744   0.16286999 
  149600    295.88523   -1237.9531    150282.82   -47359.218    4063.2712   -51422.489   0.16479461 
  149800    295.72726   -1206.8329    150271.79   -47344.917    4061.1018   -51406.019   0.16917326 
  150000    298.89592   -742.05583    149636.25   -47312.359    4104.6157   -51416.974     0.159168 
  150200    299.55267   -800.49895    149745.62   -47255.945    4113.6345    -51369.58   0.15928104 
  150400    302.47784   -1298.7451    150418.44   -47215.636    4153.8048   -51369.441   0.17061564 
  150600     298.3975   -1162.3264    150233.14   -47270.177     4097.771   -51367.948   0.17394461 
  150800    299.28107   -716.48667    149567.67   -47242.204    4109.9048   -51352.109   0.16055509 
  151000    297.03868   -855.77757    149814.65     -47280.7     4079.111   -51359.811   0.16158751 
  151200    298.25293   -1295.0386    150405.68   -47258.328    4095.7858   -51354.114   0.17582387 
  151400    301.66175   -1090.1286    150115.37   -47173.625    4142.5978   -51316.223   0.17088656 
  151600    308.84149   -698.24811    149650.92   -47166.894    4241.1942   -51408.088   0.16074441 
  151800    301.90015   -972.66793    149991.42    -47175.51    4145.8715   -51321.382   0.16966964 
  152000    302.90317   -1226.5198    150348.68   -47170.142    4159.6456   -51329.788   0.17161952 
  152200    299.43902   -1020.3304    150006.31   -47195.098    4112.0739   -51307.172   0.16749122 
  152400     296.0502   -793.70472    149684.38   -47248.665    4065.5366   -51314.201   0.16269331 
  152600    298.22651   -990.11661    149980.98   -47213.374     4095.423   -51308.797   0.17005282 
  152800    306.40585   -1167.6838    150270.79   -47140.013    4207.7465    -51347.76   0.16660548 
  153000    295.62342   -1021.9878    150059.12   -47213.388    4059.6758   -51273.064   0.16753554 
  153200    303.79421   -838.73338    149838.02    -47155.74     4171.882   -51327.622   0.16632355 
  153400    298.58734   -1053.9203    150060.66   -47207.604    4100.3781   -51307.982    0.1676462 
  153600    300.39772   -1119.7394    150201.23   -47233.619    4125.2393   -51358.858   0.16447921 
  153800    299.09554    -974.0073    149976.74   -47267.414     4107.357   -51374.771   0.16179496 
  154000    302.13172   -881.29537    149853.34   -47285.638    4149.0516    -51434.69   0.15806991 
  154200    300.95333   -999.25937    150042.83   -47226.942    4132.8693   -51359.812   0.15897672 
  154400    300.44423    -1089.853    150147.83   -47219.943    4125.8781   -51345.821   0.16329635 
  154600    297.07814   -1050.9428    149979.11   -47244.566    4079.6528   -51324.219   0.16857169 
  154800    297.92827   -879.03147    149849.43   -47262.331    4091.3274   -51353.658   0.16227716 
  155000    299.56834   -1007.1671    150030.62   -47248.493    4113.8497   -51362.343   0.16674382 
[...]
  163200     295.0689   -929.99522    149833.03   -47321.175    4052.0608   -51373.236     0.163311 
  163400     291.6537   -797.03798    149575.62   -47359.417    4005.1612   -51364.578    0.1652497 
  163600    296.69736    -1091.933    150026.82   -47300.974    4074.4237   -51375.397   0.16648161 
  163800    292.81172    -1214.938    150224.02   -47358.611    4021.0638   -51379.674   0.16749963 
  164000     292.9385   -923.07017    149767.24   -47383.316    4022.8049   -51406.121   0.15947164 
  164200    295.98741   -804.99216    149633.53   -47382.279    4064.6744   -51446.953    0.1626604 
  164400    297.78037   -1096.3725    150071.76   -47315.987    4089.2963   -51405.283   0.16652917 
  164600    301.28532   -1189.0214     150193.9   -47292.837    4137.4284   -51430.265   0.16749527 
  164800    296.35832   -926.10255       149813   -47337.594    4069.7679   -51407.362   0.15768793 
  165000    296.99985   -814.31502    149698.12   -47313.499    4078.5778   -51392.076   0.15718283 
  165200    297.96779   -1106.3794    150068.65    -47305.58      4091.87    -51397.45   0.16204227 
  165400    293.26659    -1119.924    150133.79    -47333.04    4027.3104    -51360.35   0.16042755 
  165600    294.94365   -883.06214    149792.66   -47274.614    4050.3408   -51324.955   0.16547904 
  165800    296.37404    -893.9265    149779.25   -47301.167    4069.9837   -51371.151   0.16811549 
  166000    301.84732   -1092.3241    150102.18   -47254.879    4145.1461   -51400.025   0.16761972 
  166200    303.32434   -1120.2088    150089.16   -47286.685    4165.4294   -51452.114   0.16208872 
  166400    298.94088    -883.3866     149793.9   -47285.666    4105.2332   -51390.899   0.16019101 
  166600    297.31329   -955.32829     149857.1   -47279.763    4082.8821   -51362.645   0.17026997 
  166800    296.75955    -1108.219    150116.13   -47337.889    4075.2778   -51413.167   0.16394968 
  167000    296.76922   -1028.5767    150035.16   -47340.276    4075.4105   -51415.686   0.16217285 
  167200    300.87556   -887.76003     149809.1    -47290.92    4131.8013   -51422.721   0.15631289 
  167400    298.34178   -959.04007    149926.04   -47337.852     4097.006   -51434.858   0.16028806 
  167600     297.0908   -1114.3056    150181.78   -47315.029    4079.8268   -51394.856   0.16581833 
  167800    294.61527    -1129.344    150066.98   -47386.672    4045.8312   -51432.504   0.16743726 
  168000    293.83767   -818.65475    149741.39   -47379.254    4035.1528   -51414.407   0.16023838 
  168200    295.45038   -920.05651    149870.78    -47375.97    4057.2995   -51433.269   0.15656877 
  168400    297.08308    -1136.452    150190.86   -47325.337    4079.7207   -51405.058   0.16170858 
  168600    295.05312   -1091.5945    150046.11   -47339.637    4051.8441   -51391.481   0.16475626 
  168800    294.41231   -856.82395    149712.81    -47385.41    4043.0441   -51428.454   0.16511569 
  169000    290.22132   -931.74364    149864.89    -47368.33     3985.491   -51353.821   0.16332355 
  169200    298.88753   -1230.9332    150263.08   -47330.484    4104.5005   -51434.985   0.16040334 
  169400    298.65932   -1041.7675    150045.33   -47360.593    4101.3665    -51461.96   0.15690908 
  169600    294.75462   -726.32296    149547.38   -47377.372    4047.7449   -51425.116   0.16147074 
  169800    294.92311   -935.20956    149889.22   -47379.562    4050.0588   -51429.621   0.16492528 
  170000    294.22021   -1426.2437    150510.02     -47408.9    4040.4061   -51449.306    0.1703841 
  170200    294.88928   -1021.8149     149984.5   -47427.107    4049.5942   -51476.701   0.15819845 
  170400    292.92239   -523.18844    149306.33   -47404.608    4022.5836   -51427.191   0.15484193 
  170600    296.51166   -1059.6186    150019.25   -47377.925    4071.8737   -51449.798    0.1614764 
  170800    290.87545   -1524.0863    150627.64   -47389.661    3994.4738   -51384.134   0.16975768 
  171000    298.11817   -848.77319    149749.74   -47404.004    4093.9352   -51497.939   0.15818327 
  171200    293.62215   -493.85864     149245.6   -47437.519    4032.1931   -51469.712   0.15465409 
  171400    294.21985   -1148.0764    150156.05   -47422.419    4040.4012   -51462.821   0.15802877 
  171600    287.89831   -1453.3239    150540.05   -47375.822    3953.5901   -51329.412   0.17204087 
  171800    294.23277   -803.33317    149660.97   -47368.377    4040.5785   -51408.956   0.15986809 
  172000     300.7798   -630.16568    149422.38   -47378.971    4130.4862   -51509.457   0.15821571 
  172200    289.17947   -1241.1028    150223.79   -47373.254    3971.1836   -51344.437   0.16527294 
  172400    297.25874   -1268.7422    150344.33   -47337.741     4082.133   -51419.874   0.16121437 
  172600    302.45155   -781.13874    149682.41   -47332.409    4153.4437   -51485.853    0.1514934 
  172800    296.36988   -801.32824     149711.8   -47340.872    4069.9266   -51410.798   0.15565379 
  173000    296.38532   -1213.5745    150279.74   -47351.129    4070.1387   -51421.267   0.16418063 
  173200    293.15315   -1159.5489    150186.36   -47390.476    4025.7526   -51416.228   0.16749067 
  173400    292.33807   -782.32374    149687.86   -47383.112    4014.5594   -51397.671   0.15951157 
  173600    297.72147   -877.09286    149823.99   -47332.073    4088.4874   -51420.561   0.15382313 
  173800    294.01194   -1224.0434    150273.49   -47325.684     4037.546    -51363.23   0.16743041 
  174000    301.26881   -1089.2154    150149.29   -47290.435    4137.2016   -51427.637   0.16241262 
  174200    293.17151   -830.50959    149798.43   -47288.892    4026.0048   -51314.897   0.15937901 
  174400    299.45698   -968.56982    150001.47   -47270.789    4112.3204   -51383.109   0.16414721 
  174600    300.21486    -1219.914    150308.27   -47278.334    4122.7281   -51401.062   0.16395938 
  174800    304.19139   -1015.5357    150073.25   -47245.466    4177.3362   -51422.802   0.15943962 
  175000    301.66619   -821.91192    149842.61   -47298.209    4142.6587   -51440.868   0.15509213 
  175200    297.57544   -1046.8796    150059.59   -47291.295    4086.4821   -51377.777   0.16560936 
  175400    296.37424   -1155.6348    150221.19   -47298.918    4069.9865   -51368.905   0.16603466 
  175600     296.9607   -983.76748    149997.67   -47314.155      4078.04   -51392.195   0.15933711 
  175800    306.12456   -844.77023    149851.95   -47300.843    4203.8837   -51504.727   0.14877709 
  176000    298.76237   -1064.2747    150081.19   -47284.528    4102.7817    -51387.31   0.15701418 
  176200    300.23819   -1104.7486    150216.25   -47230.508    4123.0485   -51353.557   0.16218443 
  176400    293.99506   -964.99038     150004.1   -47273.985    4037.3142   -51311.299    0.1639517 
  176600    296.63521   -854.48069     149879.6   -47254.181    4073.5703   -51327.752   0.15988695 
  176800      297.509    -1034.797    150117.34   -47259.439    4085.5697   -51345.008   0.15349209 
  177000     301.3392   -1102.9489    150233.35   -47273.572    4138.1682   -51411.741   0.15899483 
  177200    302.49648   -922.14695    149951.93   -47291.958    4154.0607   -51446.019    0.1554264 
  177400    296.44352   -890.75244    149794.52   -47386.067    4070.9378   -51457.004   0.15756098 
  177600    298.90964   -1025.4024    150074.87   -47345.347     4104.804   -51450.151   0.15661386 
  177800    296.10845   -1144.3674    150202.98    -47320.55    4066.3365   -51386.887   0.16431533 
  178000    296.75976   -939.08268    149884.91    -47282.96    4075.2807   -51358.241   0.16147569 
  178200    298.60186   -856.75695    149803.56   -47321.662    4100.5775    -51422.24    0.1542076 
  178400    296.49542   -1128.5037    150146.47   -47290.344    4071.6506   -51361.994   0.16816278 
  178600    295.07407   -1145.8101    150160.64   -47305.775    4052.1317   -51357.906   0.17125521 
  178800    299.80432   -822.39363    149778.28   -47280.204    4117.0904   -51397.294   0.16227743 
  179000    300.62016   -894.07359    149891.01   -47252.587     4128.294   -51380.881   0.16148971 
  179200    301.88733   -1203.2081    150326.89   -47270.509    4145.6954   -51416.205   0.16199241 
  179400    298.12355   -1101.8794    150091.57   -47245.575    4094.0091   -51339.584   0.16413691 
  179600    305.45552   -694.77512    149581.76   -47260.622     4194.696   -51455.318   0.15305726 
  179800    298.31086   -946.71595    149920.17   -47285.031    4096.5813   -51381.612   0.16455377 
  180000    300.65181   -1378.2508    150487.64   -47240.729    4128.7286   -51369.457   0.16783642 
  180200     302.9768   -1011.2045    150001.09   -47209.869    4160.6568   -51370.525   0.16308173 
  180400    309.93208   -537.39283    149436.97   -47172.367    4256.1708   -51428.538   0.15379284 
  180600    298.88359   -1070.4603    150090.48   -47255.133    4104.4464   -51359.579   0.16525664 
  180800    301.04615    -1394.366    150598.06   -47208.696    4134.1439    -51342.84   0.16728467 
  181000    298.54172   -918.91995    149909.89   -47262.407    4099.7517   -51362.158   0.15593801 
  181200    300.80773    -561.2696    149491.48   -47250.805    4130.8698   -51381.675   0.15398801 
  181400    300.42975   -1175.6142    150224.67   -47282.983    4125.6792   -51408.662   0.15849242 
  181600    298.35456   -1334.4858    150493.16     -47297.1    4097.1814   -51394.281   0.16133934 
  181800    297.60607   -814.53759    149714.17   -47280.489    4086.9027   -51367.392   0.15854364 
  182000    299.77038   -665.09517    149551.48   -47291.195    4116.6244   -51407.819    0.1583303 
  182200    300.76812   -1230.2406    150320.67   -47298.131    4130.3259   -51428.457   0.16471559 
  182400    295.22598   -1299.0181    150391.27   -47295.872    4054.2179    -51350.09    0.1686109 
  182600    301.26241   -740.12296    149638.19   -47270.168    4137.1137   -51407.281   0.15832052 
  182800    298.66715   -722.15147    149649.74   -47233.882    4101.4741   -51335.356   0.15898861 
  183000    298.05338   -1268.0513    150359.15   -47224.159    4093.0455   -51317.204   0.16747625 
  183200    298.50938   -1189.3348    150269.79   -47204.603    4099.3075    -51303.91   0.16592628 
  183400    303.68243   -719.37685     149633.6   -47223.608    4170.3469   -51393.955   0.16015524 
  183600    301.05247   -845.18826    149783.31    -47252.75    4134.2307   -51386.981   0.15489409 
  183800    297.03193   -1261.4088    150334.75   -47277.341    4079.0183   -51356.359   0.16691257 
  184000    298.33622   -1098.9246     150099.9   -47293.374    4096.9296   -51390.304   0.16511176 
  184200    298.43827   -719.74378    149597.69   -47344.336     4098.331   -51442.667   0.15529144 
  184400    291.78839   -990.75329    149863.43   -47350.785    4007.0109   -51357.796    0.1665781 
  184600     299.7642   -1229.0083    150274.79   -47353.162    4116.5394   -51469.701   0.16285831 
  184800    298.34372   -1011.3256     150006.7   -47344.405    4097.0326   -51441.438   0.15550067 
  185000    295.46793   -822.40204    149708.13   -47339.304    4057.5405   -51396.845   0.15650438 
  185200    294.04891   -983.87608    149944.67   -47394.272    4038.0537   -51432.325   0.16006754 
  185400    292.57546   -1174.1995    150167.53   -47368.143    4017.8194   -51385.962   0.16605199 
  185600    298.05108    -932.4872    149905.54   -47375.061    4093.0139   -51468.075   0.15643188 
  185800    298.90694   -834.46189    149745.08   -47321.844     4104.767   -51426.611   0.15865077 
  186000    300.14529   -1086.8277    149998.77   -47304.161    4121.7728   -51425.933   0.16810843 
  186200    298.53965    -1126.105    150123.75   -47291.586    4099.7232    -51391.31   0.16894474 
  186400    298.05932   -901.31321    149854.03   -47243.318     4093.127   -51336.445   0.17039746 
  186600     295.7992   -880.02222     149761.5   -47279.226    4062.0897   -51341.315   0.16973398 
  186800     302.6628   -1062.1636    150072.84   -47303.249    4156.3447   -51459.594   0.16041612 
  187000    294.71652    -1124.613    150184.59   -47271.255    4047.2217   -51318.477   0.16222189 
  187200     297.5707    -905.3877    149922.72   -47295.043     4086.417    -51381.46    0.1621475 
  187400    297.62187   -867.66718    149828.08   -47282.468    4087.1196   -51369.587   0.16435922 
  187600    297.90909    -1035.004    150086.16   -47320.628     4091.064   -51411.692   0.16127862 
  187800    295.84313   -1111.4346    150142.56   -47306.835     4062.693   -51369.528   0.16379688 
  188000    298.31409   -907.32672    149858.91   -47284.669    4096.6257   -51381.295   0.16607594 
  188200    300.29952   -880.37021    149843.67   -47276.139    4123.8907    -51400.03   0.16104721 
  188400    297.66858   -1152.6199    150169.88   -47259.005    4087.7611   -51346.766   0.16905633 
  188600    296.95711   -1118.0066    150161.67    -47264.12    4077.9908    -51342.11   0.16715264 
  188800    296.37982   -884.44185     149825.4   -47283.134    4070.0632   -51353.197   0.16171781 
  189000    302.27204   -856.17985    149861.45   -47276.514    4150.9786   -51427.493     0.156339 
  189200    293.98878   -1159.8788    150233.43   -47274.341    4037.2279   -51311.569   0.16250969 
  189400    299.79857   -1098.1885    150178.25   -47236.233    4117.0114   -51353.244   0.16587195 
  189600    301.47598   -832.98382    149791.55   -47257.071    4140.0466   -51397.118   0.16435889 
  189800    293.44277   -895.12115    149875.49   -47295.365    4029.7298   -51325.095   0.16366491 
  190000    300.21085   -1224.4764    150306.42    -47323.03    4122.6731   -51445.703   0.16357701 
  190200    299.81252   -1127.0704    150153.68    -47298.71     4117.203   -51415.913   0.16927926 
  190400    301.84235   -715.81299    149636.07   -47304.321    4145.0777   -51449.399   0.16197889 
  190600    303.28584   -879.85847    149893.79   -47244.362    4164.9007   -51409.262   0.16659113 
  190800    298.18648   -1423.6691    150597.84   -47264.764    4094.8732   -51359.637   0.17026229 
  191000    299.93036   -1097.6201    150122.07   -47285.514    4118.8213   -51404.335   0.15967002 
  191200     297.0474   -424.80955    149223.81    -47289.92    4079.2307    -51369.15   0.15411328 
  191400    296.09561   -938.05173    149921.09   -47309.846    4066.1601   -51376.006   0.15630469 
  191600    294.91593    -1625.709    150858.58   -47245.277    4049.9601   -51295.238   0.18072877 
  191800    300.06976   -1011.9923    149994.19   -47295.465    4120.7356   -51416.201   0.16558818 
  192000    298.79343   -368.83042    149163.99   -47305.783    4103.2082   -51408.991    0.1580558 
  192200     293.6564   -1106.4288    150105.88    -47264.45    4032.6635   -51297.113   0.16376164 
  192400    299.07127   -1552.4387    150765.45   -47258.458    4107.0236   -51365.482    0.1725033 
  192600    298.03444   -892.11101    149840.54   -47305.175    4092.7853    -51397.96   0.16162282 
  192800    297.19216   -542.57958    149347.48   -47287.459    4081.2186   -51368.678   0.15645075 
  193000    301.13851   -1153.3408    150191.46   -47267.925    4135.4123   -51403.338   0.16458237 
  193200    302.87776   -1398.0337    150499.02   -47212.988    4159.2967   -51372.284   0.16947085 
  193400    300.89367   -818.65479    149755.63   -47226.099      4132.05   -51358.149   0.15885312 
  193600    305.98135    -667.0565    149569.23   -47242.605     4201.917   -51444.522   0.15237038 
  193800    297.80097   -1181.0944    150208.63   -47283.165    4089.5792   -51372.744   0.16606015 
  194000    296.96698    -1218.964    150297.13   -47306.422    4078.1264   -51384.548   0.17066901 
  194200    302.15982    -807.8154    149770.22   -47300.293    4149.4375   -51449.731   0.16016394 
  194400    299.43229   -807.15229    149764.24   -47281.058    4111.9814    -51393.04   0.16014603 
  194600    293.18045   -1147.2781    150248.97   -47299.114    4026.1275   -51325.241    0.1641441 
  194800    297.25806   -1166.4952    150203.17   -47286.029    4082.1236   -51368.153   0.16740748 
  195000    296.56039   -830.26649    149758.68   -47274.673    4072.5428   -51347.216   0.16438405 
  195200    300.94752   -877.03661       149837   -47259.432    4132.7894   -51392.221    0.1586081 
  195400    299.94767   -1166.5185    150220.25   -47255.421     4119.059    -51374.48   0.16014694 
  195600    297.66782   -1066.5893    150112.26   -47261.071    4087.7507   -51348.822   0.16584072 
  195800    296.32486   -851.54146    149778.37   -47312.414    4069.3084   -51381.722   0.16001537 
  196000    294.73776     -923.701    149908.84   -47280.482    4047.5134   -51327.995   0.16358553 
  196200    300.77544   -1149.3211    150196.01   -47262.967    4130.4263   -51393.393   0.16343817 
  196400    297.30307   -1035.5747    150050.39   -47265.419    4082.7417   -51348.161   0.16419578 
  196600    299.11047   -865.93225    149807.68   -47336.517     4107.562   -51444.079   0.15649575 
  196800    291.41685   -996.64509    149931.64    -47324.64    4001.9087   -51326.549   0.16199156 
  197000    299.73469   -1108.6568     150134.6   -47332.334    4116.1342   -51448.468   0.16005016 
  197200    296.28086   -1042.4563    149969.14    -47391.74    4068.7041   -51460.445   0.15737805 
  197400    297.75159   -842.57214    149733.89   -47351.324     4088.901   -51440.225   0.15462069 
  197600     298.1967   -981.61418    149976.67   -47258.574    4095.0137   -51353.587   0.16185546 
  197800    300.03887    -1175.905    150256.19   -47241.212    4120.3114   -51361.523   0.16261997 
  198000    301.49452    -981.9734    149991.38    -47275.42    4140.3012   -51415.722   0.16297289 
  198200    299.24392   -838.29529    149714.89   -47305.097    4109.3947   -51414.491   0.16171248 
  198400    298.89799   -1032.2434    150005.33   -47227.015    4104.6441   -51331.659   0.16886279 
  198600    299.37717   -1167.0071    150306.92   -47211.114    4111.2244   -51322.338   0.16725496 
  198800    295.48807   -979.47451    150018.89   -47248.807    4057.8171   -51306.624   0.16208525 
  199000    301.57121   -809.84146     149763.1   -47260.991    4141.3544   -51402.346    0.1588384 
  199200    301.60257   -1062.9057    150085.99   -47250.187    4141.7851   -51391.972   0.15958974 
  199400    299.12121   -1194.9226    150289.02   -47257.663    4107.7096   -51365.372   0.16292858 
  199600    301.02735   -939.51166    149880.25   -47287.328    4133.8857   -51421.214   0.15485581 
  199800    302.05076   -783.65463    149677.35   -47269.401    4147.9399   -51417.341   0.15773986 
  200000    299.11907   -1093.2422    150114.25   -47282.907    4107.6801   -51390.587   0.16080129 
Loop time of 109.742 on 6 procs for 200000 steps with 4608 atoms

Performance: 787.304 ns/day, 0.030 hours/ns, 1822.462 timesteps/s
97.9% CPU use with 6 MPI tasks x no OpenMP threads

MPI task timing breakdown:
Section |  min time  |  avg time  |  max time  |%varavg| %total
---------------------------------------------------------------
Pair    | 75.782     | 76.622     | 78.012     |   9.4 | 69.82
Neigh   | 10.817     | 11.106     | 11.493     |   7.9 | 10.12
Comm    | 10.459     | 11.634     | 12.797     |  22.7 | 10.60
Output  | 3.1279     | 3.1295     | 3.1358     |   0.2 |  2.85
Modify  | 5.7981     | 5.9123     | 6.0336     |   3.0 |  5.39
Other   |            | 1.338      |            |       |  1.22

Nlocal:        768.000 ave         775 max         761 min
Histogram: 1 0 1 0 0 2 0 1 0 1
Nghost:        1391.50 ave        1398 max        1387 min
Histogram: 2 1 0 0 0 1 0 1 0 1
Neighs:        0.00000 ave           0 max           0 min
Histogram: 6 0 0 0 0 0 0 0 0 0
FullNghs:      21840.7 ave       22075 max       21645 min
Histogram: 1 0 1 0 2 0 1 0 0 1

Total # of neighbors = 131044
Ave neighs/atom = 28.438368
Neighbor list builds = 12911
Dangerous builds = 0
write_data		data.${NAME}
write_data		data.ice_299K_-1000atm_ML
System init for write_data ...
Total wall time: 0:02:41
