
# Import phase coexistance setup
#
read_data           ../data.ice_water_1atm
Reading data file ...
  orthogonal box = (-0.037551654 -0.031298218 -0.031298218) to (113.76774 57.301808 57.301808)
  3 by 1 by 2 MPI processor grid
  reading atoms ...
  11553 atoms
  reading velocities ...
  11553 velocities
  read_data CPU = 0.030 seconds

# Define potential
#
pair_style 	    sw
pair_coeff	    * * ../ML.sw mW
Reading sw potential file ../ML.sw with DATE: 2019-02-27

# Reset velocity/set timestep
#
velocity	    all create ${TEMP} 120598 rot yes dist gaussian
velocity	    all create 288 120598 rot yes dist gaussian
timestep	    10.0

# Define output
#
compute	            1 all msd
compute             2 all orientorder/atom nnn NULL degrees 2 4 12
thermo              100
thermo_style        custom step temp press vol etotal ke pe c_1[4]

# Neighbor lists
#
neigh_modify        delay 0 every 1 check yes

# Set fixes
#
fix                 1 all momentum 10 linear 1 1 1 rescale
fix                 2 all nph iso ${PRES} ${PRES} ${PCOUPL}
fix                 2 all nph iso 0 ${PRES} ${PCOUPL}
fix                 2 all nph iso 0 0 ${PCOUPL}
fix                 2 all nph iso 0 0 10000.0
fix                 3 all temp/csvr ${TEMP} ${TEMP} ${TCOUPL} 837492
fix                 3 all temp/csvr 288 ${TEMP} ${TCOUPL} 837492
fix                 3 all temp/csvr 288 288 ${TCOUPL} 837492
fix                 3 all temp/csvr 288 288 5000.0 837492

# Run longer equilibration 0.5 ns
#
dump 1 all atom 1000 eq.${NAME}.dump
dump 1 all atom 1000 eq.Tmelt_288K_AUTO.dump
run 50000
Neighbor list info ...
  update every 1 steps, delay 0 steps, check yes
  max neighbors/atom: 2000, page size: 100000
  master list distance cutoff = 6.0032907
  ghost atom cutoff = 6.0032907
  binsize = 3.0016454, bins = 38 20 20
  2 neighbor lists, perpetual/occasional/extra = 1 1 0
  (1) pair sw, perpetual
      attributes: full, newton on
      pair build: full/bin/atomonly
      stencil: full/bin/3d
      bin: standard
  (2) compute orientorder/atom, occasional, copy from (1)
      attributes: full, newton on
      pair build: copy
      stencil: none
      bin: none
Per MPI rank memory allocation (min/avg/max) = 4.643 | 4.644 | 4.646 Mbytes
Step Temp Press Volume TotEng KinEng PotEng c_1[4] 
       0          288   -99.542473    374087.66   -103773.35    9917.0835   -113690.44            0 
     100    353.06446   -406.29475    371833.68   -104249.78    12157.534   -116407.31     3.291582 
     200    347.13539    274.48857    367800.96   -104741.19     11953.37   -116694.56    6.7526298 
     300    345.87144   -335.69746    366057.59   -105048.88    11909.847   -116958.73    9.9176962 
     400    338.13823    22.673807    365215.08   -105542.09    11643.559   -117185.65    12.985434 
     500    331.06142     191.4742    364723.09   -105886.93    11399.874    -117286.8    15.943513 
     600    331.02955    104.36636    364546.77   -106252.21    11398.777   -117650.99    18.640433 
     700    325.78317   -204.59138    364224.58   -106530.04    11218.121   -117748.16    21.474695 
     800    322.70698   -268.74425    363106.83    -106802.3    11112.195    -117914.5    24.116429 
     900    321.16989    143.62718    362184.66   -107001.27    11059.266   -118060.53     26.92063 
    1000    316.04453      94.1978    362245.61   -107217.39    10882.778   -118100.16    29.241946 
    1100    311.62567   -24.736288    362619.77   -107471.61    10730.617   -118202.23    31.597197 
    1200    311.08242   -314.61905    362701.51   -107691.14    10711.911   -118403.05    33.750555 
    1300    308.80831    88.011401    362145.34   -107913.25    10633.604   -118546.86    36.250984 
    1400    311.20151    114.65336    361728.45   -108064.54    10716.012   -118780.55    38.438035 
    1500    304.97957    26.334053    361611.86    -108205.6    10501.763   -118707.37    40.576505 
    1600     301.9016    8.1387744    362068.54   -108342.98    10395.776   -118738.76    42.392659 
    1700    303.18216   -9.1063471    362037.24   -108452.98    10439.871   -118892.85    44.102269 
    1800    298.88942   -262.07077    361798.76   -108542.19    10292.053   -118834.25    45.809706 
    1900    301.82537   -237.84271    361191.72   -108586.56    10393.151   -118979.71    47.771537 
    2000    299.36974    249.72538    360216.63   -108621.53    10308.593   -118930.13    49.445659 
    2100    301.67744    247.17795    360497.58   -108782.11    10388.057   -119170.17    50.950486 
    2200    293.19091    -83.93002    361349.45   -108814.56    10095.829   -118910.39    52.592957 
    2300    300.19838   -17.122524     361156.4   -108846.22    10337.127   -119183.35    54.421305 
    2400    296.57955    143.29862     361098.8   -108865.23    10212.514   -119077.74    56.176466 
    2500    296.92671   -120.56515     361305.2   -108875.36    10224.469   -119099.83    57.575565 
    2600    299.08103   -106.00919    360739.23   -108956.97    10298.651   -119255.63    59.119705 
    2700    296.85149    135.85881    360385.38   -108942.24    10221.879   -119164.12    60.679365 
    2800    297.24345    179.80206    360695.78   -109051.38    10235.375   -119286.76    62.229078 
    2900    297.08824    68.175222    360982.29   -109186.23    10230.031   -119416.26    63.622114 
    3000    297.32105    105.85989    361198.85   -109226.06    10238.048   -119464.11    65.182383 
    3100    292.01171   -82.223068    361238.82   -109298.26    10055.224   -119353.49    66.609848 
    3200    291.06568    62.431255    360279.37   -109341.53    10022.648   -119364.18    67.995257 
    3300    297.47152    302.04882    359621.31   -109336.33    10243.229   -119579.56    69.868608 
    3400    293.80624   -186.32017    360462.92   -109351.72    10117.017   -119468.74    71.447651 
    3500    291.78548   -182.93691     360942.8   -109426.38    10047.434   -119473.81     72.99943 
    3600    295.21638   -37.016485    360642.57   -109448.51    10165.575   -119614.08    74.787636 
    3700     296.0845     128.8267    360486.92      -109513    10195.468   -119708.47    76.436589 
    3800    291.91403   -61.674356    360581.83   -109595.74    10051.861    -119647.6    77.708586 
    3900    291.57076   -84.465395    360845.13   -109641.76     10040.04    -119681.8    78.940288 
    4000    291.62806     45.39507    361033.59   -109639.32    10042.013   -119681.34    80.226422 
    4100    293.13055    47.163338    360747.74   -109673.26     10093.75   -119767.01    81.742553 
    4200    293.19067     24.99753    360930.24   -109661.46    10095.821   -119757.28    83.152947 
    4300    289.37797   -78.246037    360961.12   -109678.06    9964.5328   -119642.59    84.572346 
    4400    289.27065    117.99512    360417.91   -109724.16    9960.8376      -119685    85.781198 
    4500    294.01559    119.28338    360512.41   -109625.31    10124.226   -119749.54    87.277089 
    4600    289.89778   -139.92239    361208.02    -109595.9    9982.4322   -119578.33    87.912543 
    4700    293.58081    13.093439    361437.63    -109527.8    10109.255   -119637.05    89.117027 
    4800    289.77205   -114.72172    361032.18   -109573.39    9978.1029    -119551.5    90.547234 
    4900    290.75223    225.23575    359828.02   -109594.92    10011.855   -119606.78    91.464892 
    5000    290.60377    312.32358    359647.69   -109653.76    10006.743    -119660.5    92.729556 
    5100    292.36835    -20.74642    360831.86   -109702.28    10067.505   -119769.79    93.731365 
    5200    289.06652   -307.16086    361851.19   -109749.76    9953.8083   -119703.57     94.58809 
    5300    289.99993   -269.06377    361370.08   -109713.53    9985.9497   -119699.48    95.491997 
    5400    292.60153    276.74936       360298   -109764.78    10075.534   -119840.31     96.59316 
    5500    290.88943    152.22333    360249.95   -109757.36    10016.579   -119773.94    97.824245 
    5600     290.9584   -65.312773    360743.68   -109907.73    10018.954   -119926.68    98.426729 
    5700    285.87679    126.30632    360669.88   -109993.36    9843.9722   -119837.33    99.529028 
    5800    289.24326   -98.895071    360567.03   -109976.83    9959.8944   -119936.72     100.4448 
    5900    289.75298     156.9306    360505.32      -109953    9977.4463   -119930.45    101.48942 
    6000    288.64983    114.37479    360143.42   -109985.94    9939.4598    -119925.4    102.69855 
    6100    289.41034    113.21154    360256.42   -109942.99    9965.6476   -119908.64    103.72996 
    6200    289.38917   -169.27681    360783.44   -109961.56    9964.9185   -119926.48    104.71862 
    6300    290.13184   -93.611607     360834.6   -109908.39    9990.4919   -119898.88    105.79855 
    6400    289.21422    -130.5398    360544.77   -109954.25    9958.8942   -119913.14     107.1101 
    6500    291.89409   -119.84662    360223.17    -109903.2    10051.174   -119954.38     108.6743 
    6600    289.58389    321.42018    359887.04   -109906.59    9971.6237   -119878.21    110.08102 
    6700    289.04527     93.34345    360168.27   -109980.87    9953.0767   -119933.95    111.17319 
    6800    286.75147   -139.51952     360716.2   -109976.21    9874.0914    -119850.3    112.33645 
    6900    290.89632     67.64735    360077.97   -109944.92    10016.816   -119961.73    113.53262 
    7000    289.97609    39.289706    359878.63   -109908.79    9985.1287   -119893.91    114.71843 
    7100    292.38492    129.26424    360414.77   -109903.65    10068.075   -119971.72    115.99275 
    7200    285.47054   -191.19897    361298.68   -110015.39    9829.9834   -119845.38    117.30111 
    7300    291.88671   -9.0992623     361155.8   -109938.84     10050.92   -119989.76    118.14223 
    7400    292.34759   -24.859155    360993.93   -109884.01     10066.79    -119950.8    118.96748 
    7500    291.23018   -97.671262    360886.09   -109943.49    10028.313    -119971.8    120.15666 
    7600    289.86847  -0.18207191    361034.94   -109922.99    9981.4228   -119904.42    121.59725 
    7700     290.3716   -106.82682    361562.44    -109931.8    9998.7479   -119930.55    122.95107 
    7800    291.82194   -137.13666     361693.7    -109959.7    10048.689   -120008.39    124.41767 
    7900    289.72911    102.93652       361822   -109991.21    9976.6242   -119967.83    125.64014 
    8000    289.72976   -134.26173    361962.17   -110038.13    9976.6467   -120014.78    126.84058 
    8100    291.49304    38.890017    361151.12   -110081.41    10037.364   -120118.78    127.92838 
    8200    290.98041   -56.147704    360496.18   -110059.31    10019.712   -120079.02    129.18208 
    8300    287.60832    84.395118    360368.99   -110050.82    9903.5962   -119954.42    130.45733 
    8400    289.48274    106.59197    360881.04   -110119.63    9968.1408   -120087.77    131.34022 
    8500    289.21862   -123.13108    361083.85   -110101.87    9959.0457   -120060.91     132.1369 
    8600    289.79755    1.2203432    361049.44   -110143.54    9978.9808   -120122.52    133.38925 
    8700    287.78028    2.5125962    360941.26   -110140.85    9909.5175   -120050.37    134.12503 
    8800    288.66871   -41.251386    361130.51   -110115.21    9940.1101   -120055.32    135.18885 
    8900    287.84013    17.956143    361063.79   -110191.61    9911.5785   -120103.19     136.1131 
    9000    289.68121    138.54641     360721.7   -110158.04    9974.9748   -120133.02    137.52605 
    9100    287.04848    53.489079    360344.08   -110220.66    9884.3186   -120104.98    138.97788 
    9200     286.5052   -6.5004148    360209.86   -110180.76     9865.611   -120046.38    140.27107 
    9300    285.55375    41.776458    360608.85    -110277.5    9832.8486   -120110.35    141.33267 
    9400    287.47223   -256.75715    361137.17   -110233.04    9898.9101   -120131.95    142.39938 
    9500    287.10095    10.339512    360427.13   -110200.98    9886.1254    -120087.1    143.68494 
    9600    289.26615    168.00352    359785.92   -110168.97    9960.6824   -120129.65    144.48709 
    9700    288.36723   -229.07739    360575.64   -110206.08    9929.7287   -120135.81     145.5971 
    9800    288.58528    77.783476    360784.78   -110213.83    9937.2371   -120151.06    146.89437 
    9900    286.95039   -130.66137    360638.51   -110215.78    9880.9409   -120096.72    147.63919 
   10000    286.16594   -149.31492    360588.21   -110183.04     9853.929   -120036.97    148.30635 
   10100    288.52623   -23.936941    360335.77   -110151.25    9935.2038   -120086.46    149.51771 
   10200    288.52786   -78.557161    360552.47   -110121.62    9935.2601   -120056.88    150.57484 
   10300    288.58011    -45.72079    360605.71   -110101.51    9937.0591   -120038.57    151.94307 
   10400    288.17813    42.806237    360062.47   -110192.26    9923.2174   -120115.48    153.09893 
   10500    295.49152    113.79392    360058.62    -110165.8    10175.049   -120340.85    154.09646 
   10600    293.25424   0.22073928    360936.48   -110153.33     10098.01   -120251.34    155.24017 
   10700    291.26213   -52.947796    361304.73   -110161.73    10029.413   -120191.14    155.97634 
   10800    290.67268    131.29353    360685.02   -110157.74    10009.115   -120166.85     156.4832 
   10900    290.50927   -79.728533    360806.48   -110101.37    10003.489   -120104.86    157.76185 
   11000    290.31695    160.83829    360868.57   -110161.51    9996.8662   -120158.38    158.77782 
   11100    291.17632    106.69373    360834.43    -110176.6    10026.458   -120203.05    159.78647 
   11200     289.6428   -52.509529    361092.64   -110186.43    9973.6522   -120160.08    160.79862 
   11300    285.88699    -142.8166    361180.19   -110210.03    9844.3236   -120054.35    161.94944 
   11400    287.91735    246.07309    360458.95   -110259.29    9914.2375   -120173.53    162.70158 
   11500    288.51275    66.263845    360350.01   -110312.78    9934.7398   -120247.52    163.58652 
   11600    287.70349    -134.2801    360908.31   -110333.93    9906.8732    -120240.8    164.50021 
   11700    287.62189   -72.614566     361178.8   -110283.68    9904.0636   -120187.74    165.86204 
   11800    288.22464    13.557489    360973.26   -110336.13    9924.8189   -120260.94    166.82328 
   11900    286.05956   -84.985518    360480.12   -110360.71    9850.2657   -120210.97    167.51021 
   12000     285.2675    110.90819    359883.06   -110374.26    9822.9918   -120197.26    168.56161 
   12100    285.74137   -99.982982    360820.46   -110346.58     9839.309   -120185.89     169.5033 
   12200     286.5268    -184.5047     361465.8   -110337.24    9866.3548   -120203.59    170.75188 
   12300     289.3831    105.67147    361244.63   -110311.83    9964.7097   -120276.54     172.3868 
   12400    287.71352    14.020582    361172.65   -110401.89    9907.2187   -120309.11    173.75043 
   12500    289.58746   -146.11294    360945.74   -110335.15    9971.7467    -120306.9    174.13178 
   12600    287.39253    100.94579    360633.82   -110341.25    9896.1656   -120237.41    175.02792 
   12700    286.65957   -61.375883    361364.97    -110348.9    9870.9266   -120219.83    176.12675 
   12800    283.88278   -140.90181     362096.4   -110439.15    9775.3098   -120214.46      177.213 
   12900    291.06817    101.91408    361492.62   -110426.16    10022.734   -120448.89    178.55047 
   13000    288.50032    144.85655    360869.86   -110424.37    9934.3117   -120358.68    179.83104 
   13100    289.18984   -49.759581    361142.85   -110388.61    9958.0548   -120346.67    180.91265 
   13200    289.24721   -22.940903    361474.09   -110442.53    9960.0303   -120402.56    182.01217 
   13300    286.24819    48.194609    361389.53   -110501.27     9856.761   -120358.03     182.8598 
   13400    287.78246     109.2611    361056.61   -110519.64    9909.5926   -120429.23     183.6158 
   13500    289.11804    35.374441    361481.79   -110521.53    9955.5824   -120477.11    184.59165 
   13600    286.59025   -200.19342    361836.61   -110637.26    9868.5399    -120505.8    185.65543 
   13700    287.96389    37.239549    361296.86   -110649.49    9915.8399   -120565.33       186.91 
   13800    286.06712    231.47534       361268   -110693.47     9850.526   -120543.99    187.58988 
   13900    287.10977   -126.49348    361870.27   -110657.08     9886.429   -120543.51    188.02115 
   14000    287.81123   -19.465442    361399.06    -110634.8    9910.5835   -120545.38    188.78448 
   14100    288.46687    122.76844    361122.26    -110625.8    9933.1598   -120558.96    189.64696 
   14200    285.29669   -107.20738    361633.89    -110609.6    9823.9969    -120433.6    190.06996 
   14300    287.59074   -25.505643    361515.55   -110550.02     9902.991   -120453.01    190.91011 
   14400    287.49356   -8.1135957    361466.44   -110524.69    9899.6446   -120424.33    192.03381 
   14500    285.51656    77.127772    361429.22   -110585.85     9831.568   -120417.42    193.19167 
   14600    285.19592    124.26076    361046.43    -110622.5    9820.5269   -120443.03    194.02062 
   14700     286.9629    278.61231    361195.06   -110608.02    9881.3717    -120489.4    195.16339 
   14800    283.93031   -34.606048    361681.56   -110686.57    9776.9465   -120463.52    195.98026 
   14900    285.88799   -93.371736    361915.04   -110695.38     9844.358   -120539.74    197.03652 
   15000    286.96664      95.3362    361925.18   -110794.69    9881.5004   -120676.19    198.15324 
   15100    285.40576   -44.794087    361676.35   -110768.48    9827.7524   -120596.23    199.54466 
   15200    286.04658    66.324748    361197.07   -110763.62    9849.8188   -120613.44    200.39038 
   15300    287.19732    -124.4798    361282.75   -110744.06    9889.4438    -120633.5    200.92901 
   15400    287.38453   -1.9963134    361584.59   -110699.94    9895.8903   -120595.83    202.09636 
   15500    288.67115   -8.2437823    361132.39   -110694.57    9940.1942   -120634.77    202.93472 
   15600    286.13388    290.07602    360410.42   -110708.37     9852.825    -120561.2    203.83114 
   15700    284.89995    74.816933    361202.57   -110672.08    9810.3354   -120482.41    204.50155 
   15800    283.98353   -121.48239    362048.39   -110662.46    9778.7792   -120441.24    205.93473 
   15900    285.75068    87.151722    361299.69   -110666.72    9839.6298   -120506.35    207.05452 
   16000    289.48333     359.2853    360813.96    -110591.4    9968.1608   -120559.56    207.61205 
   16100    286.24863   -270.42149    361843.06   -110545.12    9856.7762    -120401.9    208.25849 
   16200    290.15082   -23.320328    361753.95   -110508.74    9991.1454   -120499.89     209.1283 
   16300    288.86679    125.06172    361282.25    -110498.5     9946.931   -120445.43     210.8217 
   16400    291.47643    180.14128    361557.72   -110499.48    10036.792   -120536.27    211.83728 
   16500    285.48946   -203.23114    361919.51   -110507.79    9830.6346   -120338.43    212.64231 
   16600     289.4336    94.423867    361155.08   -110434.57    9966.4485   -120401.02    213.71871 
   16700    290.41803    62.536012     361316.8   -110452.46    10000.347   -120452.81    214.60625 
   16800     286.9051    85.784005     362100.1   -110500.19    9879.3814   -120379.57     215.8749 
   16900    289.89865   -45.741407    362029.07   -110537.02    9982.4623   -120519.48     217.0191 
   17000    293.13259    166.93767    361468.68   -110546.41    10093.821   -120640.23      217.549 
   17100    290.31021   -80.046237     361779.3   -110534.34    9996.6339   -120530.97    218.45112 
   17200    291.49324    38.059331    361939.13   -110393.67    10037.371   -120431.04    218.71951 
   17300    292.03837    50.787559    362038.69    -110361.9    10056.142   -120418.04    220.15127 
   17400    289.79027   -53.704295    362137.26   -110447.53    9978.7303   -120426.26    221.26788 
   17500    288.45001   -96.468233    361721.46    -110481.3    9932.5792   -120413.88    222.11086 
   17600    290.64876    149.75305    361247.06    -110511.6    10008.292   -120519.89    223.05326 
   17700    291.29823    9.6994864    361801.12    -110429.7    10030.656   -120460.35    224.10216 
   17800      292.166    72.766909    362020.91   -110411.04    10060.537   -120471.57    225.19672 
   17900    291.55889    55.158028    361930.34   -110482.13    10039.631   -120521.76    226.51576 
   18000    290.76535    11.897715    362027.02   -110585.85    10012.307   -120598.16     228.0318 
   18100    289.40301    29.355453    362211.58   -110671.36    9965.3954   -120636.75    228.77527 
   18200      289.551    176.40839    362155.11   -110657.88     9970.491   -120628.37    229.45674 
   18300    291.56413   -92.512812    362178.18    -110597.4    10039.812   -120637.22    230.75421 
   18400    292.44278   -12.712339    361989.72   -110600.69    10070.068   -120670.76      231.875 
   18500    290.25042    98.315048    361518.48   -110624.39    9994.5751   -120618.97    233.06699 
   18600    294.39182    42.535453     361751.5   -110572.36    10137.182   -120709.54    234.02574 
   18700    290.60367   -115.54179    362759.86    -110616.9    10006.739   -120623.64    235.04105 
   18800    288.11245   -218.80112    362672.73   -110532.06    9920.9556   -120453.01    235.54147 
   18900    292.09388    110.23869    361863.19   -110598.33    10058.053   -120656.39    235.81267 
   19000    291.40273   -95.139798    361594.67   -110618.61    10034.254   -120652.87    236.03782 
   19100    291.81122    90.091755    361463.77   -110608.22     10048.32   -120656.54    236.93201 
   19200     290.0285    48.169061    361878.22   -110630.47    9986.9336    -120617.4    237.76782 
   19300    286.55155   -113.23789    361926.48    -110631.9    9867.2071   -120499.11     238.6011 
   19400    286.39789    140.57356    361215.68   -110681.07    9861.9159   -120542.99    239.74456 
   19500    284.69839    105.09924    360867.72   -110774.65    9803.3947   -120578.05    240.74756 
   19600    288.41198    11.643439    361033.11   -110699.33    9931.2697    -120630.6    242.17297 
   19700    291.85759     44.03249    361329.55   -110587.43    10049.917   -120637.35     243.7115 
   19800    290.29439   -18.644064    362260.56   -110645.91    9996.0894      -120642    245.23997 
   19900    289.81454    63.745624    362548.62   -110564.74     9979.566   -120544.31    246.25821 
   20000    291.13388   -146.54976    361969.97   -110529.86    10024.997   -120554.86    247.06884 
   20100    288.48446    166.95725    361150.74   -110607.77    9933.7656   -120541.54    248.06381 
   20200    289.17319   -101.89066     361370.4   -110635.23    9957.4815   -120592.71    248.98071 
   20300    289.43736   -63.299647    361686.81   -110635.45    9966.5781   -120602.03    249.85323 
   20400     289.9745   -149.15132    361494.72   -110565.93    9985.0742   -120551.01    250.68792 
   20500    291.70978    263.69993     361502.2   -110509.98    10044.827    -120554.8    251.95495 
   20600    292.54176    71.993671    362035.41   -110481.81    10073.476   -120555.29    253.02752 
   20700      291.731   -109.59952    362053.63   -110511.71    10045.558   -120557.26    254.55325 
   20800    291.58214    130.75612    361472.09   -110492.17    10040.432    -120532.6    255.37061 
   20900    290.05139   -107.88861    361634.89   -110400.39    9987.7218   -120388.11    256.33244 
   21000    289.31089   -104.53132     361558.8   -110500.97     9962.223    -120463.2    257.11353 
   21100    291.83566    49.084312    361143.96   -110433.72    10049.162   -120482.88    257.99819 
   21200    289.50289   -310.77609    361557.14   -110498.36    9968.8345   -120467.19    258.76599 
   21300    288.12062   -99.123118    361262.37   -110528.62    9921.2371   -120449.85    259.21559 
   21400    292.17574    155.15573    361100.27   -110613.27    10060.872   -120674.15    260.43203 
   21500    291.91897   -42.620613    361762.67   -110575.88    10052.031   -120627.91    262.00085 
   21600    288.18578   -74.796931    362359.36    -110637.1    9923.4808   -120560.58    263.04543 
   21700    288.74828   -204.83416    361996.62   -110619.33    9942.8499   -120562.18     263.9837 
   21800    289.59814    131.62175    361032.59   -110647.43    9972.1145   -120619.55    264.53551 
   21900    288.77072    147.12109    361076.26   -110628.86    9943.6229   -120572.49    266.12956 
   22000    289.96399   -15.295401    362170.15   -110596.91     9984.712   -120581.62    266.79902 
   22100    286.83492   -46.620993    362807.08   -110567.68    9876.9646   -120444.64    268.01556 
   22200     291.4173   -253.38067    362764.21   -110540.54    10034.756    -120575.3    269.61812 
   22300    296.62347    130.55235    362370.38   -110600.52    10214.027   -120814.55    270.15749 
   22400    292.37309    54.975883    362278.45   -110644.21    10067.668   -120711.88    271.07643 
   22500    291.77667    54.791966    362005.35   -110528.88     10047.13   -120576.01    271.37531 
   22600    290.56037   -146.94758    362227.32   -110607.36    10005.248   -120612.61    272.74889 
   22700     290.2566   -35.377354    362012.19   -110593.62    9994.7878   -120588.41    273.72984 
   22800    289.04887    65.659537    361279.73   -110587.98    9953.2005   -120541.18    273.65354 
   22900    292.15604     197.4048    361407.78   -110523.18    10060.194   -120583.38    274.56514 
   23000    290.45728   -176.96034    362352.33   -110613.27    10001.698   -120614.97    276.08161 
   23100     287.7777     38.11619     362409.5   -110648.13    9909.4287   -120557.55    276.74324 
   23200    292.35884    81.604423    362387.68   -110617.58    10067.177   -120684.76    277.42196 
   23300     288.5373     -298.586    362721.33   -110628.65    9935.5852   -120564.23    278.45259 
   23400    289.48687   -203.78139    362630.29    -110624.2     9968.283   -120592.49    279.58346 
   23500     290.1411    22.844002     361877.8   -110681.13    9990.8108   -120671.94    280.44984 
   23600    287.98294     29.73312    361368.77   -110690.29     9916.496   -120606.79    280.87644 
   23700    286.59176    7.9157042    361372.46   -110755.01    9868.5916    -120623.6    281.71956 
   23800    288.05296   -76.370093    361876.85    -110724.8    9918.9072   -120643.71    283.04869 
   23900    288.46484    39.708348    361981.31   -110699.21      9933.09    -120632.3    283.94489 
   24000    288.76515   -150.85877    361979.47   -110741.17    9943.4309    -120684.6    284.70112 
   24100    289.82545    47.233178    361880.36   -110736.74    9979.9418   -120716.69    285.96599 
   24200     289.1571    50.133698    361740.47   -110722.77    9956.9273    -120679.7    286.87928 
   24300    288.95489   -80.842812    361677.91   -110669.14    9949.9646    -120619.1    287.39042 
   24400    288.03267    152.46856    361290.72   -110739.04    9918.2083   -120657.25    287.97577 
   24500     290.1472    133.79783    361039.44   -110750.15    9991.0208   -120741.17    289.07307 
   24600     286.1025   -52.085025    361120.82   -110811.97    9851.7445   -120663.72    290.28634 
   24700    288.65601     23.51758    361242.16   -110821.96    9939.6729   -120761.63    290.72384 
   24800    283.47361      78.4684    361991.13   -110825.13    9761.2204   -120586.35    291.86818 
   24900    288.12076   -44.373642     362567.3   -110851.94    9921.2418   -120773.18    293.27773 
   25000    285.78366   -58.096516    362621.06   -110823.25    9840.7654   -120664.02    294.44123 
   25100    285.53465   -51.165955    362579.04   -110833.78    9832.1909   -120665.97    295.29342 
   25200    289.60707    17.281054    362128.32   -110767.85    9972.4219   -120740.27    296.15639 
   25300    291.86098    153.53149       361783   -110717.02    10050.034   -120767.06    296.70839 
   25400    287.48052   -183.18208    362532.83   -110768.17    9899.1954   -120667.37    297.87688 
   25500    288.60617   -206.50027    362360.85   -110829.34    9937.9566    -120767.3    298.90231 
   25600    288.61577    159.39849    361002.82   -110841.72     9938.287   -120780.01    299.77543 
   25700    287.61128    376.07026    360600.36   -110778.76    9903.6983   -120682.46    300.19133 
   25800      284.589    -107.0591    361952.19   -110789.47    9799.6281    -120589.1    301.37004 
   25900    288.41589   -111.65909    362345.32   -110815.57    9931.4044   -120746.97    302.63142 
   26000    283.84479    221.22549    361941.11   -110869.04    9774.0017   -120643.04    303.58325 
   26100    286.76639    9.2627582    362447.47   -110864.33     9874.605   -120738.94    304.50323 
   26200    289.81082   -172.55496    362388.35   -110785.16     9979.438    -120764.6    305.06928 
   26300    292.61796    150.01616    361652.38   -110760.03      10076.1   -120836.13    305.89025 
   26400    289.92886    49.297528    361621.63   -110732.87    9983.5024   -120716.38    306.45642 
   26500    287.36736   -161.87162       361861   -110731.27    9895.2988   -120626.57    307.28237 
   26600    289.54463    306.09546    361414.23   -110783.57    9970.2717   -120753.84    308.24317 
   26700    288.48607    76.227125    361642.62   -110878.99    9933.8211   -120812.81    309.53567 
   26800    288.91423   -70.598759    362014.23   -110918.44    9948.5643   -120867.01    310.45201 
   26900     286.9859    -125.1802    361839.64   -111003.77    9882.1637   -120885.93    310.85747 
   27000    285.83473    176.85147    361396.94   -111007.01     9842.524   -120849.54    311.71003 
   27100     284.6495    12.742217    361665.31   -111055.73    9801.7113   -120857.44    312.84257 
   27200    287.13063    56.791267    361737.19   -110950.44    9887.1472   -120837.58    313.62155 
   27300    287.59635    62.794267     361626.2   -110962.43     9903.184   -120865.62    314.68612 
   27400    287.68199   -111.63657     362050.7   -110916.41     9906.133   -120822.54    315.86579 
   27500     290.7287    9.0137378    361838.01   -110854.41    10011.044   -120865.46    316.42953 
   27600    291.93862    132.01942    361328.78   -110803.31    10052.707   -120856.02     317.5016 
   27700    289.74752    127.08286    361131.64   -110864.03    9977.2582   -120841.29    319.12707 
   27800     288.8662    150.77378    361839.94   -110882.76    9946.9104   -120829.68    320.58506 
   27900    288.50996    -107.3492    362933.87   -110763.54    9934.6437   -120698.19    322.15976 
   28000    288.39479   -20.353901    363228.13   -110785.97    9930.6779   -120716.64    323.15237 
   28100    292.40734   -208.10875    362613.35   -110772.38    10068.847   -120841.23    323.73836 
   28200    292.95221    192.58892    361291.66   -110822.92     10087.61   -120910.53    324.13253 
   28300    289.40495     136.9243    361201.12   -110778.18    9965.4621   -120743.64    325.09208 
   28400    290.82683     29.73716     361765.8   -110808.38    10014.424    -120822.8    326.05949 
   28500    290.79885   -273.17293     362192.4   -110749.09     10013.46   -120762.55    326.94208 
   28600    291.68125    37.430965    361942.83   -110655.72    10043.845   -120699.57    328.30793 
   28700    290.50813     232.2804    361807.17    -110615.6    10003.449   -120619.05    329.23341 
   28800    287.66973   -186.46308       362166   -110750.25    9905.7108   -120655.96    330.68329 
   28900     289.9844   -109.61831    361967.62    -110772.8    9985.4151   -120758.21     331.0762 
   29000    291.99121     9.360764    361579.07   -110833.09    10054.518    -120887.6    331.62634 
   29100      291.336    143.91364    361523.18   -110817.69    10031.957   -120849.65    332.73969 
   29200    292.14237   -53.692565    362033.59   -110817.58    10059.723   -120877.31    333.70654 
   29300    288.32895   -288.30198    362174.37   -110830.99    9928.4106    -120759.4    335.00134 
   29400    288.88714    144.02935    361355.78   -110899.02    9947.6316   -120846.66    335.27082 
   29500    288.51654    37.674249    361453.84   -110911.91    9934.8702   -120846.78    336.02122 
   29600    288.79634    -64.95227    362582.77   -110844.33    9944.5049   -120788.84    337.13702 
   29700    291.53701   -218.86134    363402.88    -110861.6    10038.878   -120900.48    338.31952 
   29800    289.91128   -7.9742775     362657.2   -110826.97    9982.8971   -120809.87    339.01911 
   29900    294.22078     85.24726    362174.24      -110776    10131.292   -120907.29    339.61978 
   30000    288.41246   -61.807112    362495.19   -110807.61    9931.2864   -120738.89    339.96846 
   30100    286.60724   -158.00705    362190.34   -110765.44    9869.1246   -120634.57    340.80623 
   30200    288.65414    151.15552       361437   -110764.49    9939.6084    -120704.1    342.34421 
   30300    290.13617    294.14472    361643.95   -110756.14    9990.6412   -120746.78    343.04258 
   30400    287.21714   -202.57894    362502.11   -110874.81    9890.1263   -120764.93    345.01315 
   30500    290.51828   -97.655763    362033.46   -110840.05    10003.799   -120843.85    345.47181 
   30600    289.28803    16.525962    361251.37   -110865.41     9961.436   -120826.84    346.41175 
   30700    287.88021    179.17338    361246.86   -110899.27    9912.9585   -120812.23    347.90259 
   30800    286.44012   -81.232634    361787.85   -110990.84    9863.3701   -120854.21    349.72542 
   30900    288.38027   -88.291974    362339.22   -111014.31    9930.1779   -120944.48    350.51252 
   31000    286.62025    -12.36585    362202.88   -111024.53    9869.5728    -120894.1    351.58249 
   31100    285.45432    140.37402    361832.73   -110992.96    9829.4248   -120822.39      352.394 
   31200    289.16292   -249.05513    362126.63   -110931.09    9957.1279   -120888.21    353.31272 
   31300    289.31633   -166.17207    362626.43   -110924.82    9962.4103   -120887.23    354.38852 
   31400    286.87354   -42.045468    362248.39   -110989.91    9878.2948   -120868.21     354.6332 
   31500    288.75799   -28.412415    361598.16   -110967.61    9943.1845    -120910.8    355.14791 
   31600      286.704    99.813454    361699.76   -110999.36    9872.4566   -120871.82    355.81102 
   31700    288.68323     46.51516    361869.65   -110946.95    9940.6101   -120887.56    356.69295 
   31800    286.93578   -24.393746    362111.96   -110973.15    9880.4376   -120853.58    357.75198 
   31900    287.96045   -72.888169    362330.06   -111023.08    9915.7216    -120938.8    359.19102 
   32000    286.37577   -75.433598    362358.07   -111027.25    9861.1542   -120888.41    360.47004 
   32100    286.64032    38.023748    361774.68   -111049.86     9870.264   -120920.12    360.99626 
   32200    289.10444    345.60547    361659.06   -111024.78     9955.114    -120979.9    361.62404 
   32300    285.70406   -181.51728    362501.97   -111040.64    9838.0243   -120878.66     362.6153 
   32400    290.02643   -238.33022    362468.98   -111044.37    9986.8622   -121031.24    363.23863 
   32500    284.34772     240.5755     361374.8   -111047.99    9791.3197   -120839.31    362.71767 
   32600    288.61359    105.17541    361621.29   -111004.76    9938.2119   -120942.98    363.64362 
   32700    287.76463   -164.11884    362936.12   -111027.52    9908.9786    -120936.5    365.10621 
   32800    288.19045    -95.24894    362640.82   -111026.65    9923.6416   -120950.29    365.71848 
   32900    288.94954    150.71634       361418   -111047.96    9949.7803   -120997.74    365.75058 
   33000    287.14866    120.78956    361549.75   -111028.97     9887.768   -120916.74    366.32026 
   33100     283.2752    -97.25139    362357.43   -111065.41    9754.3883    -120819.8    367.01406 
   33200    291.55185    67.894774    361845.79   -111117.74    10039.389   -121157.13    367.24724 
   33300    289.09153    414.78808    361543.06   -111106.55    9954.6695   -121061.22    368.31937 
   33400    287.21638   -155.19746    362925.19   -111120.95    9890.1001   -121011.05    369.83595 
   33500    290.34882   -242.08809     363495.9   -111130.74    9997.9634   -121128.71    370.83624 
   33600    286.78604    275.38488    362339.97   -111127.78    9875.2817   -121003.06    371.89696 
   33700    286.78866    38.812284    361755.53   -111089.09    9875.3719   -120964.46    372.06483 
   33800    288.40493    21.622038    361791.45   -111066.24    9931.0269   -120997.27    372.85405 
   33900    287.96633    119.03051    361521.57    -111117.7    9915.9239   -121033.62    374.24087 
   34000    287.36464   -53.352838    361967.33   -111066.91    9895.2052   -120962.11    375.40612 
   34100    287.42041   -118.16567    362578.46   -111099.02    9897.1258   -120996.15      375.998 
   34200    288.51304   -70.524051    362132.44   -111131.47    9934.7495   -121066.22    376.70053 
   34300    286.58108   0.69817159    361500.78   -111053.29     9868.224   -120921.51    377.29974 
   34400    288.41256   -3.1154858    362146.47   -111152.15    9931.2896   -121083.44    378.29834 
   34500    284.53449   -214.79328    362411.99   -111141.58     9797.751   -120939.33    379.26596 
   34600    286.70825    85.077084    361491.17   -111234.49    9872.6029   -121107.09    379.63505 
   34700    286.47048    40.772688    361562.79      -111185    9864.4157   -121049.42    380.68026 
   34800    290.32836   -18.934096    361834.37   -111181.25    9997.2592   -121178.51    381.80185 
   34900    288.94093    77.199861    361422.07   -111231.73    9949.4839   -121181.22    382.42086 
   35000     287.0067   -21.815341    361805.98   -111171.65    9882.8799   -121054.53    383.76623 
   35100    288.21487     121.8814    362089.13   -111192.72    9924.4823    -121117.2    385.16515 
   35200    285.72952    47.262273    361759.75   -111181.39    9838.9011   -121020.29    385.44317 
   35300     287.4767    144.63717    361654.78   -111097.38    9899.0641   -120996.45    386.85446 
   35400    286.52222    -146.0048    362034.54   -111125.34    9866.1971   -120991.54    387.92435 
   35500    287.81566    110.66902    361671.23   -111066.02    9910.7358   -120976.76    388.97544 
   35600    289.82791    188.68388    361657.27   -111031.29    9980.0264   -121011.32    390.00002 
   35700    291.80495    52.054861    362544.77   -111078.65    10048.104   -121126.76    390.73259 
   35800    287.76136   -178.45917    363113.47   -111105.22    9908.8659   -121014.09    391.16465 
   35900    288.12196    115.93901    362275.61   -111072.24     9921.283   -120993.52    392.09101 
   36000    288.68594   -33.448759    362177.73   -111123.89    9940.7033    -121064.6     393.3923 
   36100    291.55495   -166.60793    362769.44   -111129.76    10039.496   -121169.26    393.85299 
   36200     286.9437    8.8276147    362253.82    -111129.7    9880.7105   -121010.41    395.02802 
   36300      285.785    138.28601    361799.37   -111177.22    9840.8114   -121018.04    395.72448 
   36400    286.35331    80.469927    362373.46   -111149.52    9860.3808    -121009.9    397.29194 
   36500    288.62296   -185.27504    363096.26   -111117.83    9938.5348   -121056.36    398.54076 
   36600    292.05389   -78.909574    362634.17    -111070.1    10056.676   -121126.78    399.45645 
   36700    286.49946    46.379554    362105.87   -111083.38    9865.4136   -120948.79     400.1451 
   36800    288.23344   -73.619104    362260.44   -111070.82    9925.1219   -120995.94    401.66287 
   36900    288.20997    27.243946    361871.84   -111090.48    9924.3135    -121014.8    402.57272 
   37000    284.24682   -6.0369135    361416.96   -111152.97    9787.8453   -120940.81    403.33904 
   37100    287.31319    37.292764    361753.41   -111119.52    9893.4338   -121012.95    404.24423 
   37200    288.37651   -97.053228    362364.77   -111150.91    9930.0483   -121080.96     405.5959 
   37300    286.70411     -86.9566     362318.9   -111160.48    9872.4603   -121032.94    406.91152 
   37400    285.29373    10.753948    361986.63   -111143.43    9823.8951   -120967.33    407.87819 
   37500    288.06455   -76.140766    361994.23   -111133.73    9919.3061   -121053.03    408.37501 
   37600    289.52382      59.9745    361709.86   -111146.29    9969.5551   -121115.84    409.00823 
   37700    290.72337    137.26249     361455.3    -111141.1    10010.861   -121151.96    408.81852 
   37800     287.2702   -59.345496    362029.85   -111188.81    9891.9534   -121080.76      409.882 
   37900    288.96753    61.350263    362401.61   -111255.04    9950.3996   -121205.44    411.03175 
   38000    284.41273   -52.537939    362084.07   -111281.05    9793.5582   -121074.61    411.36976 
   38100    288.40084   0.60929542    361806.26   -111326.57    9930.8863   -121257.46    411.96535 
   38200    286.28327    165.05679    362448.16   -111304.19    9857.9692   -121162.16    413.88355 
   38300    288.57609   -24.217193    363159.07   -111419.59    9936.9206   -121356.51    415.64064 
   38400    286.97756   -102.51342    363372.22   -111415.42    9881.8765   -121297.29    417.20663 
   38500    287.52301   -108.84376    362757.41    -111404.7    9900.6587   -121305.35    417.84362 
   38600     285.1592    4.1162655    362452.86    -111452.7    9819.2623   -121271.96    418.81908 
   38700    285.40388    15.105367    362119.76    -111394.8    9827.6878   -121222.49    419.05627 
   38800    287.59594    67.354045    361727.38   -111358.08      9903.17   -121261.25     419.3678 
   38900    287.64077    33.115984    361733.06   -111348.71    9904.7136   -121253.42     420.7879 
   39000    286.70892    74.797042    362333.63   -111354.03    9872.6261   -121226.66    421.81794 
   39100    290.07266   -282.83949    362919.48   -111341.82    9988.4543   -121330.27    422.92225 
   39200     289.2745    83.230867    362324.96   -111285.22    9960.9699   -121246.19    422.91133 
   39300    287.86459    198.91231    361865.03   -111464.45    9912.4206   -121376.87    423.40591 
   39400     288.9962    103.75153    362713.81   -111477.55    9951.3868   -121428.93    424.76843 
   39500    284.55435   -106.15795    363566.86   -111484.86     9798.435    -121283.3    425.47565 
   39600    285.95014   -52.231103    362969.39   -111516.75    9846.4981   -121363.25    425.27179 
   39700    283.40827    125.01949     362163.2   -111553.59    9758.9704   -121312.56    426.27901 
   39800    287.23773   -104.00045     362223.4   -111608.54    9890.8353   -121499.37    427.48461 
   39900    286.87604    29.427373    362322.87   -111528.84    9878.3807   -121407.22    428.81187 
   40000     287.2176    179.35843    362391.19    -111411.5     9890.142   -121301.65    430.02209 
   40100    286.96686   -30.066514    362716.67   -111393.46     9881.508   -121274.97    431.05037 
   40200     287.2361   -88.525585    362713.86   -111355.47    9890.7791   -121246.25    431.86532 
   40300    289.10064    75.284572    362277.44   -111294.96    9954.9832   -121249.94    432.30285 
   40400    285.96924    27.184635    361975.93   -111296.54    9847.1557    -121143.7    432.15436 
   40500    285.69924    66.511193    362265.65   -111348.55    9837.8584   -121186.41    433.47119 
   40600    290.05858   -103.29039    362839.17   -111377.98    9987.9693   -121365.95    434.86981 
   40700    287.62374    30.636968    362821.98   -111389.88    9904.1274   -121294.01    434.90883 
   40800    286.31099   -42.534844    362359.09   -111409.85    9858.9234   -121268.78    435.34175 
   40900    290.53461    213.44825    361963.16   -111418.55    10004.361   -121422.91    436.78709 
   41000    290.05897   -160.71195    362967.05   -111338.09    9987.9828   -121326.07    438.57055 
   41100    286.12159   -357.96994    363312.25   -111338.98    9852.4018   -121191.38    439.08563 
   41200    289.33486     3.447171    362412.14   -111313.24    9963.0484   -121276.29    439.66455 
   41300    289.13083    88.784932    362503.29   -111346.86    9956.0229   -121302.89    440.76612 
   41400    290.92912   -88.835112     363397.2   -111377.39    10017.946   -121395.33    441.93775 
   41500    290.28238   -135.11778    363195.12    -111460.5    9995.6756   -121456.18    442.74836 
   41600    290.62052    286.90486    362093.06   -111495.72    10007.319   -121503.04    443.15762 
   41700      289.148    73.114225    362422.56   -111513.82    9956.6142   -121470.43    444.21455 
   41800    287.02545   -166.92362    362831.64   -111477.22    9883.5255   -121360.74    445.00307 
   41900    287.99871   -74.697226    362698.32   -111502.48    9917.0391   -121419.52    445.47091 
   42000    285.33028    173.88302    362338.89   -111523.97    9825.1536   -121349.12    446.22852 
   42100    285.25233   0.61431801    362888.49   -111535.56    9822.4694   -121358.03    446.81083 
   42200    288.28958   -206.57939    363209.95   -111453.83    9927.0549   -121380.89    447.87567 
   42300    289.68696    88.667981    362329.58   -111488.77    9975.1729   -121463.95    448.79523 
   42400    287.54136    187.91936    362252.92    -111457.4    9901.2907   -121358.69     448.9049 
   42500    290.92361   -175.57901    363249.35   -111491.25    10017.756   -121509.01     450.2939 
   42600    290.27532   -39.354737    363294.76   -111502.11    9995.4325   -121497.54    451.41514 
   42700    286.77262   -127.91742    362776.69   -111446.58    9874.8196    -121321.4    451.25782 
   42800    289.35952    82.665799    362430.21   -111538.53    9963.8975   -121502.42    451.03364 
   42900    287.52675    -46.04967    362761.49   -111568.51    9900.7875    -121469.3    451.35667 
   43000    287.84767   -16.466006    362737.05    -111567.4     9911.838   -121479.24    452.21309 
   43100     287.2482    60.436294     362364.2   -111609.02    9891.1957   -121500.22    453.15792 
   43200    284.17484   -27.301183    362187.49   -111607.14    9785.3669   -121392.51    453.82949 
   43300    285.10389    32.720175    362369.44   -111615.62     9817.358   -121432.98    454.96141 
   43400    286.05181    54.605641    362578.17   -111551.84    9849.9991   -121401.84    455.89245 
   43500    288.13727   -89.969026    362498.36   -111582.28    9921.8105   -121504.09    456.78541 
   43600    288.85948   -14.616776    362577.93   -111537.58    9946.6789   -121484.26    457.70573 
   43700    285.87521     23.56161    363035.63   -111542.69    9843.9179   -121386.61    458.19444 
   43800    290.10926   -62.891573    362980.18    -111519.7    9989.7146   -121509.42    458.90626 
   43900    289.76723    140.55696     362522.6   -111402.27    9977.9369   -121380.21    459.74925 
   44000    290.43709    51.225322    362936.91   -111439.32    10001.003   -121440.32    460.23816 
   44100    289.76352    14.224097    363191.91   -111440.48    9977.8093   -121418.29    461.19059 
   44200    288.33178   -18.921371    362723.39   -111477.98    9928.5081   -121406.49    461.59288 
   44300    292.68374     86.28886    362409.28   -111452.06    10078.365   -121530.42    462.74389 
   44400    288.79229   -17.579004    362824.15   -111489.71    9944.3656   -121434.07    463.41531 
   44500    285.49925   -50.376658    363121.32   -111473.34     9830.972   -121304.31    463.63939 
   44600    287.03879   -177.88215    363075.71   -111533.41    9883.9849    -121417.4    464.24177 
   44700    287.19318    137.52753    362679.76   -111522.67    9889.3012   -121411.97    464.59116 
   44800    290.21074   -132.82506    362805.89   -111407.64    9993.2089   -121400.84    466.17666 
   44900    289.73595   -114.66131    362982.65   -111404.41    9976.8598   -121381.27     467.3253 
   45000    288.48736    6.1424715    362656.68    -111406.8    9933.8653   -121340.66     467.4208 
   45100    289.41915   -85.286386    362504.38   -111377.65     9965.951    -121343.6    467.93796 
   45200    291.10035    100.84013     362245.4   -111352.54    10023.842   -121376.38    468.79754 
   45300    290.59316     39.73269    362551.99   -111329.64    10006.377   -121336.01    470.08352 
   45400    287.77793   -104.73105    363068.43   -111321.96    9909.4367    -121231.4     472.0732 
   45500    291.68459   -36.812426    362915.31   -111408.03     10043.96   -121451.99    473.16694 
   45600    291.28562   -12.948592     362925.5   -111384.07    10030.222   -121414.29    473.95204 
   45700    290.09024    171.46764    362584.35   -111411.84    9989.0593    -121400.9    474.38812 
   45800    287.17689    19.774525    362468.64   -111416.09    9888.7403   -121304.83    475.81826 
   45900    289.12666    33.754073    362670.46   -111457.14    9955.8793   -121413.02    476.09296 
   46000    288.61567   -171.77718    363192.18   -111499.32    9938.2835    -121437.6    476.59625 
   46100    289.36418    195.67403    362213.34   -111464.74    9964.0581    -121428.8    476.53732 
   46200     285.6593    288.49069    362080.99   -111542.39    9836.4832   -121378.88    476.93395 
   46300    287.27702   -140.92123    363398.46   -111588.01    9892.1881    -121480.2    478.14501 
   46400    286.43808   -224.14423    363719.73   -111619.17    9863.2998   -121482.47    479.21283 
   46500    285.93962    128.25542    362652.34    -111610.5    9846.1358   -121456.64    479.41697 
   46600      285.668    107.13203    362052.66   -111664.72    9836.7826    -121501.5    478.97825 
   46700    288.46916   -134.90573    362181.21      -111612    9933.2386   -121545.24    480.81875 
   46800    290.34706    123.97219    362672.08   -111544.72    9997.9031   -121542.62    482.65543 
   46900    285.96657   -325.96215    363536.77   -111522.47    9847.0636   -121369.53    484.32866 
   47000    289.32762   -33.073241     363416.8    -111499.5    9962.7993    -121462.3    484.54121 
   47100    286.87158    222.26115     362803.4   -111548.18    9878.2271   -121426.41    484.76612 
   47200    289.27261    161.06377     362476.6   -111578.74    9960.9049   -121539.64    485.16033 
   47300    290.22608   -18.932309    362507.64   -111498.86    9993.7369    -121492.6    486.15382 
   47400    290.94752     243.3301    361850.17   -111479.23    10018.579   -121497.81    486.53478 
   47500    289.75044    112.50679    361967.74   -111439.14    9977.3587    -121416.5    487.66584 
   47600    289.55702   -65.819712    363106.75   -111506.04    9970.6984   -121476.74    488.66468 
   47700    287.33981   -152.99712    363640.68   -111523.97    9894.3503   -121418.32    489.69411 
   47800    285.37455     138.2161    362733.39      -111507    9826.6781   -121333.68    489.25549 
   47900    287.20204    136.94979     362450.2   -111450.98    9889.6062   -121340.59    489.90056 
   48000    289.73518   -157.89274    363031.86   -111468.45    9976.8333   -121445.29    491.48959 
   48100    288.52161    70.323792    362652.53   -111390.61    9935.0449   -121325.66     491.2191 
   48200    293.31719    31.940481    362533.94   -111363.23    10100.177   -121463.41    491.67589 
   48300    289.44537    44.274001    362740.94   -111446.26    9966.8537   -121413.12    492.30262 
   48400    288.22971    90.810098    362568.56   -111523.55    9924.9936   -121448.55    492.65028 
   48500    284.71394    27.662733    362738.48    -111485.5    9803.9302   -121289.44    493.48489 
   48600     288.4215   -70.429122    362699.54   -111465.22    9931.5976   -121396.81    494.17049 
   48700    291.08552     150.7115    362162.99   -111478.18    10023.331   -121501.51    494.57888 
   48800    289.05739   -41.587101    362520.94   -111397.81     9953.494   -121351.31    495.94851 
   48900    287.75437   -194.85718    363471.32   -111433.12    9908.6253   -121341.75    497.49448 
   49000    290.07949    -33.30856    363681.99   -111362.41    9988.6893    -121351.1    498.22013 
   49100    291.09623    22.116538    362958.89   -111333.76      10023.7   -121357.46    499.42688 
   49200    289.62779    81.813682    362844.79    -111262.8    9973.1354   -121235.94    500.37416 
   49300    290.70661    49.250731    363259.88    -111210.8    10010.284   -121221.08     501.7325 
   49400    294.07555    58.300988    362873.58   -111279.89    10126.291   -121406.18    501.81938 
   49500    288.63885   -80.221992    362272.22   -111393.36    9939.0819   -121332.44    502.37953 
   49600    289.57722   -25.752314    362313.01   -111410.27    9971.3941   -121381.67    503.15045 
   49700    286.31196    28.336918    362701.22   -111505.65    9858.9569    -121364.6    504.16311 
   49800    286.49945   -66.281864     363277.9   -111471.34    9865.4132   -121336.76     504.5883 
   49900    288.03169    -13.79379    363400.05   -111459.06    9918.1746   -121377.24    505.25792 
   50000    288.91691   -42.576359    363010.19   -111409.08    9948.6568   -121357.74    506.15279 
Loop time of 153.978 on 6 procs for 50000 steps with 11553 atoms

Performance: 280.559 ns/day, 0.086 hours/ns, 324.721 timesteps/s
99.5% CPU use with 6 MPI tasks x no OpenMP threads

MPI task timing breakdown:
Section |  min time  |  avg time  |  max time  |%varavg| %total
---------------------------------------------------------------
Pair    | 49.816     | 87.8       | 128.63     | 334.5 | 57.02
Neigh   | 14.36      | 16.541     | 18.547     |  41.7 | 10.74
Comm    | 3.1345     | 45.972     | 86.154     | 487.2 | 29.86
Output  | 0.076232   | 0.07693    | 0.079736   |   0.5 |  0.05
Modify  | 2.8842     | 2.9329     | 2.97       |   1.8 |  1.90
Other   |            | 0.6556     |            |       |  0.43

Nlocal:        1925.50 ave        1989 max        1864 min
Histogram: 2 0 0 0 1 1 0 0 0 2
Nghost:        2516.50 ave        2537 max        2492 min
Histogram: 1 0 1 0 0 0 3 0 0 1
Neighs:        0.00000 ave           0 max           0 min
Histogram: 6 0 0 0 0 0 0 0 0 0
FullNghs:      54901.0 ave       57061 max       53286 min
Histogram: 2 0 1 0 1 0 0 0 1 1

Total # of neighbors = 329406
Ave neighs/atom = 28.512594
Neighbor list builds = 7079
Dangerous builds = 0

reset_timestep      0
undump              1

################################################
#######         Run Simulation         #########
################################################

log                 log.run_${NAME}
log                 log.run_Tmelt_288K_AUTO
