LAMMPS data file via write_data, version 29 Oct 2020, timestep = 200000

4608 atoms
1 atom types

-0.48350816538591346 53.8835081653841 xlo xhi
-0.034478353279553176 50.94159835328172 ylo yhi
-0.034478353279553176 50.94159835328172 zlo zhi

Masses

1 18.015

Atoms # atomic

3331 1 1.2538204160243756 0.0848433235700911 1.3716993850647368 1 1 -1
1521 1 3.5018339546205888 1.8977332719608884 6.511376305638729 1 0 2
740 1 9.952097229446204 48.78637041875638 2.569804593368499 0 -1 1
3721 1 0.0037555057142394377 11.569184567475034 23.307728799814186 1 2 0
1429 1 13.842450390500495 50.537175500823615 1.1120043488823455 1 -1 0
762 1 0.07601927506996153 8.314712334513851 24.320839856647183 1 0 -1
3862 1 7.077769676272011 27.244463038387746 0.40064818543312747 0 0 0
2166 1 1.2466170231884417 17.186463954972332 3.5112655353100983 1 -1 1
2240 1 0.8121810651009018 1.1051449287242507 24.696124148347188 2 1 -1
2054 1 4.133384674231748 1.7040153180172308 3.5727289425234883 0 1 -1
4601 1 11.374514332751327 0.07047719108110787 0.49651447974127316 0 2 1
757 1 11.600764088663215 2.7023772703445865 0.4293090034361988 0 1 0
4411 1 1.513734164267453 26.3561964055282 7.7325162134481715 1 -1 -1
4157 1 13.75559541737574 2.644079726106908 2.3149580397151737 0 0 1
2599 1 4.986359446278587 8.893449875305429 3.173616938346119 1 1 1
4396 1 3.1476794547658598 5.60334573029949 2.958112358236982 0 1 1
2928 1 2.5221479054798017 8.675895305386215 22.89694188636 0 0 0
3518 1 0.9554846566882391 19.444613525866014 5.19646810719461 0 0 0
3931 1 1.4484913003226165 11.17751014328385 20.58541079520538 1 -1 1
2384 1 4.011160228070224 22.537330748315423 1.020389500375419 1 0 2
1941 1 1.7859577849083705 13.749841145963872 3.383278673805947 1 1 0
2997 1 2.738314844082787 14.75210004002649 5.553751021757776 1 1 -1
776 1 7.046918691897821 10.771296794787608 2.951811875852745 0 -1 0
3103 1 -0.324557206208156 48.48633309289095 5.4854138838597155 2 -1 -1
2820 1 7.121733178267572 13.005237602617807 4.452109857015924 0 1 0
3820 1 13.680123650845289 9.776167590953527 2.199640623085692 1 0 1
2192 1 -0.04673682515976263 5.088783922734105 9.328770714992807 1 -1 0
858 1 0.3472519473262311 40.52386187147098 22.00461303333497 -1 0 1
674 1 3.049393213520324 14.50707340905843 1.24508562381515 1 0 1
1493 1 8.998675861499366 14.424001366096194 2.3618067027943255 0 0 1
2334 1 -0.01567483932759789 42.65685298315901 2.5804593704736902 0 1 1
920 1 1.5321687463084506 6.8161784273758395 21.080140544143703 0 1 0
2593 1 12.964144194692599 48.04297492868439 24.607758608918854 1 0 1
464 1 3.64975561341622 17.18058899460602 0.9650275865110967 -1 0 0
2266 1 5.534527333387883 18.264903940299128 2.6509669825829416 0 0 0
1712 1 8.536917167223793 21.469526470069734 3.4173192504239442 -1 -1 0
1582 1 0.46469735051764494 13.671898024991124 16.71124297973837 2 1 0
1022 1 10.406746209979492 18.11553249851941 1.17866508279051 -1 -1 1
2253 1 12.420991649445266 16.30021097607749 2.033812817266944 1 0 1
734 1 14.247165970849514 17.5831685303466 3.708163117869671 1 0 0
2465 1 3.7448540840644675 25.153021380902292 24.703966838268876 1 0 1
3376 1 14.915858884091335 29.499437301340528 0.2987671658153441 1 0 0
2695 1 5.701185413878713 20.621116624290575 2.3163780422430156 1 0 0
2239 1 7.814064928310657 20.347850918210245 0.5493650653438514 1 0 1
2905 1 10.141529354862687 4.935624770152362 1.5088722597251805 0 0 1
1037 1 2.745022033719182 10.750981734901133 25.21975074679069 0 1 1
2382 1 -0.1720666016013908 47.91539045672509 2.8584382605792666 0 -1 0
976 1 13.867287528216464 19.77118333843823 1.668397968390005 -2 0 0
3156 1 14.06959168458816 6.113757183397381 1.1173428780759418 0 0 0
2489 1 -0.47757150378772195 18.619647930653006 18.916372901945916 0 0 1
2968 1 7.950155351867435 19.7514625991193 5.944838439703218 0 0 0
1486 1 7.80674004810666 24.1314483665269 3.044991611688334 0 1 1
3001 1 5.139882028043626 39.25035630738441 23.328780219573865 0 -1 1
3781 1 11.878954660704842 22.967472884664755 3.297551731748314 1 0 0
229 1 1.4075015456405544 21.534829420803323 2.0144595629968944 1 0 0
1378 1 0.9626965988557339 28.94708222655623 4.507296498260194 1 0 0
781 1 4.056359639916724 26.757288612439304 2.7974601152835143 0 0 1
2575 1 5.693490325765289 28.681986028001504 2.2411379486102683 0 -1 0
359 1 8.107468826690738 24.852750004898525 0.35529092982035704 0 -1 0
475 1 0.998048231722592 18.515711254714347 1.283832189250254 0 1 0
1505 1 5.903083430887196 32.43227949065266 2.612569899133752 -1 0 0
651 1 10.674895719636606 29.659294005839932 1.5060366224458694 1 0 1
3375 1 17.629131737114474 26.444240112968448 9.531500937137404 2 0 0
1605 1 7.846834276392235 17.049749891912768 1.8250586808316023 1 1 0
4443 1 11.342335910045101 12.993626778085 -0.005401385518113189 0 0 1
2009 1 2.497199712887423 34.31995170931837 3.4219401627631174 0 -1 -1
4176 1 -0.15449176703854095 49.46428956542519 21.69545412283386 1 0 -1
2392 1 0.3430203267818366 13.940526164902385 25.372964467358653 1 0 -1
816 1 -0.3741822908941087 44.27887665076592 9.470078966666485 1 -2 0
1948 1 14.346352329528848 27.154573920186753 1.5097888938534412 0 0 0
133 1 12.1411710335135 32.15966767440873 25.031334777037607 -1 1 0
4552 1 1.2849435793134691 9.71600483355379 2.693749107518189 1 0 0
3422 1 11.183625610064716 20.45747093805946 23.442590758305254 1 -1 0
716 1 9.922849851181223 33.89944876095769 2.692095141819076 1 0 0
990 1 10.43504263136006 32.04073659396607 5.476335129450152 1 0 0
4334 1 12.649356520253209 26.183763409342692 24.387022785934043 1 -1 1
4152 1 6.506697304751222 38.76059389490403 2.5373146044276136 0 0 2
1669 1 14.789844140518353 30.674436455965612 21.270001585828545 1 -1 0
123 1 12.098970849674421 39.71595122704147 1.293366741908355 0 0 0
2929 1 14.983912955724884 36.91058572544368 2.3257189764543535 0 0 2
2791 1 3.9577006512455615 4.449298061705465 10.769294774376325 0 0 1
3418 1 15.835930690690521 21.107407738252192 3.1071741722871873 0 -1 0
4517 1 12.110469178875483 7.036620948948493 3.0383387988077675 -1 0 0
2950 1 4.232800365305856 40.379324787752545 3.012816458776026 -1 0 3
1752 1 9.910258901412327 40.72089047097389 3.149173042033487 0 -1 0
1658 1 4.396617898697501 12.264678088665413 15.433982733506376 0 0 1
3722 1 16.48861052538869 40.119762266828715 2.813168800138357 -1 -1 0
2389 1 0.0645495895350624 0.5436975561139493 18.470690569348104 0 -1 1
2132 1 8.265074460004023 29.271038653120954 25.307074990330506 0 0 0
3456 1 7.083069094082042 42.95835615160282 3.937212864837847 0 -1 0
3606 1 8.220367355974943 31.78850873016713 23.833757011313434 2 0 0
4598 1 10.775888020972134 42.87096698949742 4.216706251362351 1 -1 0
3169 1 -0.278277469284689 47.17900227525302 18.368534032882014 1 0 0
4276 1 1.25871465950429 2.7180004110730156 0.07602107473381187 1 0 1
1065 1 4.229651741898445 49.15970589195394 0.33540291282016993 0 -1 0
4315 1 8.979614485522168 19.16510534525251 22.755193371929277 1 -1 1
1549 1 5.694273168060846 46.19949147292324 0.24922929556416368 0 1 0
2164 1 12.64120451344609 48.28460164011347 2.685116489603467 0 -1 1
3273 1 12.868104465676913 45.78138780301994 1.6620197641420467 0 0 0
4553 1 11.470053501835793 10.324847662000522 0.6589440325656509 1 0 0
2336 1 7.24383459611827 35.896375755333274 0.8194722041896269 0 0 2
832 1 3.6318671214347233 49.626111359714365 4.30986249159258 1 -1 1
1177 1 7.8183802262473225 2.796563386718317 8.295063648086456 1 0 1
1576 1 13.707748664629678 49.00842732339046 5.092120125785599 0 0 0
2025 1 1.5644282952843174 49.3441075117621 8.07832955730071 0 0 1
1097 1 2.8653614870693502 47.004233479614456 7.117739371831996 0 -2 1
1063 1 4.152173027449966 8.301327573204173 5.951140580859163 -1 0 1
4394 1 17.613186134887805 10.72423998802473 16.67029312882604 0 -1 0
640 1 5.770191176183251 3.9690959892453037 7.0163114318643345 -1 0 0
2667 1 6.411343993667852 3.2988517810189935 4.110563260236101 2 -1 0
2949 1 13.33317109995945 4.431587928600199 7.908668213289279 1 1 1
1073 1 0.9495962091722057 21.980937221476488 4.7487722898755305 0 0 1
2961 1 12.979492504728702 0.659582557535048 4.562275463019008 -1 0 0
4063 1 3.6324300398380354 11.439883016824481 3.900787744513826 0 1 1
3858 1 -0.09361197990775927 16.311619630644824 16.82690750869735 0 1 1
980 1 9.484701719781757 10.17004461990565 6.898559044762563 -1 0 0
1911 1 7.543314721292834 6.518868268292524 5.447868309255839 1 0 1
3204 1 6.172631888376508 5.8269408564374245 2.8627309065937334 1 0 0
4196 1 17.093978520720892 17.781464540352243 12.141304483980715 0 -2 0
1841 1 14.622760623913683 4.886395814458405 4.496956786541098 1 1 1
1765 1 1.3748314445625724 12.964029979697473 9.428236262398578 0 1 0
3326 1 12.470443551760134 6.4693726613912155 5.846579220391517 0 0 0
779 1 8.66079067595589 8.934878043107945 4.618272898564356 0 0 1
3401 1 9.71970402137159 8.188625738932082 2.1764486913342878 1 0 0
556 1 10.065628282374062 6.674637614313553 24.07331754411241 0 2 0
2449 1 -0.21439131200992034 22.916896576636244 22.66951278929431 -1 1 1
2165 1 4.11168959464192 17.595260091935064 4.959382415672736 1 0 0
4559 1 1.8395630032198742 15.445739202462821 8.113255304838878 1 0 1
828 1 9.606970289088219 12.736730443420745 6.01853229372614 0 1 1
3260 1 11.465445923374462 15.698308662809788 9.214592701137414 0 0 1
3567 1 12.713004784837738 12.2141890683549 4.701693203588028 1 -1 0
3355 1 14.908041538196391 12.331453068402269 1.650203727747135 1 -1 0
135 1 16.193565240264277 29.533878893152693 23.92254605075601 -1 0 -1
488 1 16.974566696619735 11.375466768908632 23.1910804852041 0 0 -1
170 1 3.2837856195860478 17.511577964893956 9.779383804334216 -1 0 0
3364 1 6.430261243493141 17.02342497417411 6.84110822920336 1 0 1
3236 1 11.452896296661622 14.931963743115967 4.410284764780912 1 0 0
500 1 5.699277818677589 3.513763737033166 14.353466131243623 0 0 1
31 1 13.883030837894772 17.226920241740583 6.771315986746702 -1 -1 -1
1988 1 2.013319758854785 23.63591702881917 8.001886941131417 1 0 0
1248 1 3.2086389758588028 20.11957549473257 6.864977466669667 1 1 1
3812 1 5.283723357344404 20.97235734169403 5.118844692283346 1 1 0
1333 1 11.078206953833954 19.70439191678009 5.262009410670082 1 -1 1
2598 1 11.52596250031488 17.02219193478516 5.953297654726191 0 -1 0
3657 1 16.313101892249666 31.55497582030315 4.335516455364588 1 0 0
4118 1 16.67126969258559 21.79628846972298 9.741118887146637 0 -1 0
3290 1 14.875877694521218 42.21122420982836 0.6329638228678792 1 -2 1
4109 1 4.894645195372371 24.276867582511116 3.1872953278737097 2 0 2
4576 1 12.365274443995599 21.278139953822553 6.932529885706811 -1 0 1
456 1 11.239702173851425 20.20091181659796 2.5350816661058775 -1 -1 1
2847 1 0.5179050022701417 5.327972921685841 5.7226363553014545 1 0 0
2661 1 3.344215157710788 23.15021638445401 5.537665281530484 1 -1 1
1147 1 2.0924196823616477 27.58244905710739 10.251408597557145 0 2 0
1089 1 4.629429674536147 25.648703205188145 6.848749385551747 -1 0 1
3405 1 3.6111572457354484 30.480499287194466 6.5365798940191855 0 2 1
4202 1 7.721933766539573 24.452431296092673 6.186951077812455 0 0 1
1252 1 16.984148737657332 40.75038280324219 7.56954749710052 0 0 1
3158 1 0.9318652884227749 31.769511652498093 6.740418981637953 2 0 0
3510 1 4.507633871470151 30.772788835646697 1.2739464340413345 0 0 2
713 1 1.8938084165149434 30.580028925779036 1.356976761212103 0 0 0
1761 1 5.10059548925039 34.05350797568443 7.527084563871998 1 1 0
3928 1 10.07207730254678 26.846329373435534 7.513361311971448 1 0 1
2366 1 -0.42225800949703285 43.96795702190781 22.14194030134132 1 1 1
228 1 13.003282973750265 27.791609752358582 5.359009090604157 0 1 2
1858 1 2.192857816308792 37.56134597886626 24.83557800474843 0 0 1
2268 1 7.0322542103596 29.659907214655473 4.807967964753656 1 0 0
4533 1 0.8725506195551427 34.54157565714701 5.713512564828543 1 -1 0
3962 1 6.090756937248015 31.889443185254354 5.350968627073263 -1 0 1
261 1 9.11718394397984 30.731322154233112 3.592919009013444 0 0 0
1746 1 1.6383409343015045 33.33711547190834 0.4010632821367782 1 -1 1
3772 1 5.120576263491669 35.16158710519436 2.7865897913978026 1 0 -1
4574 1 9.279663880710501 35.478389748830296 5.788520344328943 0 1 0
1253 1 6.767175425427603 34.92161557864779 9.585136822384008 -1 -2 0
33 1 8.586345236331027 32.678677171202814 7.158289453892775 0 0 0
3494 1 14.436904471488097 30.990741941666926 6.140742316142912 1 0 0
549 1 12.432892287637756 32.789230326111316 2.1511090871737952 0 0 -1
3173 1 1.3829359523295521 39.92620969729696 2.627447151306756 1 1 0
1284 1 3.9544762384150545 12.729256657306072 24.028844136929727 0 -1 0
3263 1 8.60946198695288 46.758722933358456 25.21150750300523 0 1 -1
3475 1 14.982446223184123 32.79268911930723 24.638893920561756 1 0 0
523 1 9.15819482343339 36.55884545256094 2.785327405286363 1 0 0
431 1 8.822899416059515 38.71739790034031 5.195241924641346 0 0 0
3934 1 12.158078756626187 35.732250387291806 6.263758660706819 1 0 0
2782 1 12.699387478213087 44.22870355727557 6.870419459565094 -1 0 0
4116 1 2.0382162480843222 32.264463801908285 22.825161530031068 1 0 1
141 1 2.5612082436753174 36.33070726592302 0.33894793880868407 1 1 0
532 1 7.577078499440658 38.55707995375492 23.559884315108935 0 0 -1
1545 1 16.726439758675266 5.293413851601826 24.700623347573433 0 -1 -2
3593 1 2.568246470354235 44.217238495074874 3.5052739270003315 1 0 0
1883 1 14.061696743792712 39.98823341287049 3.539136229375956 0 -1 1
1067 1 13.607044480367234 37.40331579806997 5.162274179144441 1 1 1
4406 1 1.052556912209587 45.35667021294703 5.67671204896043 1 0 -1
3937 1 0.33620501808937975 10.328191119074386 11.075899208064495 2 1 0
1149 1 4.694474656810108 44.526695012429116 5.100989840770593 1 0 2
3335 1 14.200822479713256 43.207586695616904 3.158346002956485 1 0 0
1928 1 14.059844265554434 46.47722331986241 6.8467465796018505 2 -1 0
3814 1 4.453767425117628 42.789194463804535 1.2139144955826802 2 0 -1
1713 1 0.6945500794777484 8.768449288137877 16.906690310793593 0 1 1
520 1 6.954224828392604 49.83865375269226 5.23096748405534 0 0 1
3287 1 4.70910958981657 47.27900035547473 5.495794211318019 0 -1 1
4087 1 2.3334866953060964 48.47806090034339 2.2555589835156593 1 -1 1
3838 1 9.906465983961622 45.83202294740826 5.185172232042942 2 -1 1
1156 1 10.04652877661777 44.80821960703282 2.12375214412927 1 -2 1
749 1 11.477788445183457 47.854334993699275 6.413780274251342 1 -1 1
3730 1 15.484126358850485 49.42323731399251 7.298777250148632 1 0 -1
1525 1 1.2808879654854433 47.77015597990664 10.475425658157755 0 -1 0
28 1 10.01407701326483 5.075907948782753 5.509540720619032 0 1 1
3635 1 7.890569933807045 47.3874407682937 3.977932070697289 1 0 0
815 1 9.623282443514988 49.48145032813144 7.842859916353732 0 -1 1
1855 1 10.472834293681032 0.3888106689703894 3.5073753787536512 1 0 -2
2758 1 3.5701834289303367 5.857145405351674 5.915475857992565 1 1 1
831 1 11.848774886043259 47.815436313245726 22.13463955633822 0 1 1
4426 1 3.986866329111642 50.554887296019096 7.6991312753770345 1 2 0
1386 1 8.925968563282895 0.4393735893807388 6.092614931661952 0 1 0
287 1 16.244131025296188 1.9622445049602377 9.017101393682399 0 0 -1
752 1 -0.47022088516845734 9.581198879080128 7.695608631761876 0 1 1
743 1 3.716024393147393 11.424359814756368 8.715442522524437 0 0 -1
2780 1 15.701532264741203 7.4009150583979 7.09004257154959 0 0 2
2493 1 12.269146471478845 5.334003912129092 10.778096974330547 1 1 1
2048 1 16.00356169811994 15.26378543318421 2.787617765927623 1 -1 -1
4237 1 2.8359985318547194 10.347717450193311 6.20645250455304 2 0 3
4094 1 5.025150990839903 13.269401281260057 6.4507417990437155 0 1 1
2378 1 11.784266987753389 8.504481052058923 7.445398244218647 0 0 1
2224 1 10.627839888109222 7.33017763544497 11.867198290671347 -1 0 0
130 1 15.212741980965287 9.011140467408456 4.8633133497732945 -1 0 0
682 1 11.104077684180242 37.04614659126188 0.6519230765642786 0 -1 1
2811 1 16.02283825091268 8.35155351350114 0.8430504334202376 1 1 0
4296 1 5.5312767323114205 12.573391912156687 11.071026480609328 1 2 1
3990 1 8.97115433313428 14.281119064224175 8.123477402096116 1 1 0
3607 1 5.417135962721913 16.51683564205064 11.189800292396912 2 -1 -1
1169 1 12.27368818807565 13.167298092341193 9.685455554446335 0 1 0
2122 1 12.613933359232114 11.393480676074656 7.337234909932393 1 0 -1
349 1 13.286413909117982 35.481847837209614 0.5350751788645873 -1 0 0
1478 1 0.09612286636987255 19.786814810257095 15.60127910859481 0 -1 0
3527 1 5.964434738114907 15.088507381435504 8.539072519587139 1 1 1
2668 1 8.922540493590713 18.66762977697072 10.026047366708047 1 1 1
2480 1 15.025303110261905 13.2632500688324 9.17286872992951 1 0 0
3016 1 15.87764597546461 15.749578855256438 8.080348515856121 1 0 0
3145 1 1.1054327807304616 13.961550774905534 13.747572731082904 -1 0 1
438 1 10.678301754321035 24.48464666063384 0.9560962952350506 0 -1 0
3737 1 1.5777999633919424 20.87894372655852 8.925910181226099 1 2 0
2477 1 3.5869158078581442 20.674856209457616 13.0960370778586 0 0 1
675 1 5.103408082257699 18.992736749691677 8.536299435565597 0 1 0
2328 1 9.124473852969942 17.040515416090322 7.8446808240012444 1 0 0
4043 1 13.954362991139377 25.716025331162935 7.083011123259293 1 -1 1
3579 1 5.697489080569404 8.400707850558032 23.609995942318175 0 1 1
3504 1 3.2497642079372993 24.05582973990635 10.392379734642633 1 0 0
4086 1 9.368195992596638 20.97896141305019 8.276597938085876 1 1 0
268 1 4.993766543017828 22.126773495348594 9.353510102327206 -1 1 0
1005 1 14.649054924110924 23.52014762203801 2.1334510462447867 0 1 0
3282 1 1.2331805509564628 27.445926090926672 12.81641098113032 0 1 0
3854 1 10.46454954089195 23.710999340298148 7.33931197065291 -1 0 1
39 1 9.862898755826857 26.462616231966816 10.581419826966572 -1 0 0
82 1 10.860242315587437 25.351969801022257 4.342798321714803 0 0 0
2974 1 14.127284939574546 23.297147271103434 5.466749357714149 0 -1 3
190 1 1.0247709108827598 33.04319838742345 9.330921074058903 0 -1 1
515 1 3.5647449002562226 33.01197177888171 12.61083459692223 0 0 0
3319 1 7.377351100162748 27.426082686846485 6.990130342156552 0 -1 1
296 1 6.3414697382120035 28.249135196946664 9.258559533964812 0 0 0
2689 1 11.691156140635425 27.163756839779477 2.671955067216322 1 0 0
277 1 1.2357509249546204 7.096684880354349 1.6998393038866884 0 1 0
1967 1 12.625296058850061 24.35074438668568 9.098901531310421 -1 0 0
543 1 2.6178230688216106 31.28254568292958 10.567848465108396 -1 -1 -2
3245 1 3.9358520992261106 29.1592836959168 9.10442975058023 1 0 0
4313 1 6.861364978210995 30.165729559407858 11.203145457545949 0 0 1
639 1 8.027118884057925 32.20313398163809 9.797597561438337 0 0 0
584 1 16.966367883190067 25.373862710813064 7.09898396619116 0 0 0
2371 1 2.2356415075436273 39.60595200583358 7.012521082061228 0 0 0
4331 1 -0.13012570012151714 37.22646231233638 10.887245504029297 1 0 0
4501 1 7.551749520641856 41.218566131808544 1.6502944274531848 1 0 1
2099 1 2.0042456851023096 37.249353937807875 9.204010055017015 1 0 0
2452 1 6.575018019625464 35.22777223701829 5.364357301655718 1 1 0
3682 1 10.145813369152476 36.55911085295393 9.903000574359556 1 -1 -1
1502 1 15.08076913341813 32.22601717596046 8.524032684083009 -1 0 1
1109 1 4.405516413324992 39.754347933505926 5.78226051669174 1 0 1
3482 1 16.107756103489606 21.426833084081757 7.037227834321829 0 0 1
211 1 7.60808953474301 37.559768672273606 8.170395292699386 -1 -1 0
4241 1 12.922724114480523 38.63408696344604 10.796511628303831 0 1 1
3330 1 10.793124747580295 38.585296055430724 7.404885458347826 0 0 -1
1848 1 15.679005783019665 38.644548337279886 11.320539489616984 1 0 -1
2711 1 0.33961171921531885 40.33837860894172 5.294981159945065 0 0 2
4319 1 6.007572223527204 37.769313515736464 5.850530999708998 1 0 0
2092 1 -0.304446515409069 3.131320581742696 11.319900300061008 1 1 0
2439 1 11.664958033815664 39.6362535491286 12.85860074601716 0 1 0
1833 1 9.120684539796379 42.26187597086401 8.691749462447037 0 -1 0
1939 1 13.470863157834158 39.996346661946205 6.407653950126408 1 0 1
420 1 4.282752473507577 45.65053588453387 8.812853419245316 1 0 0
1438 1 2.052473891260639 44.94312852539033 10.85446584540551 0 0 1
1120 1 5.131564485334959 42.36048452331604 7.1331930748097685 0 1 1
3957 1 8.195883259167381 43.73791463684751 6.29116015007473 1 0 1
2913 1 14.644504620473114 42.40301047455746 8.058819301820538 0 0 1
4335 1 7.122436642077883 1.8754510143842282 0.11545929808246949 2 0 1
1515 1 6.825570684062824 45.7076508826626 7.542207897566218 0 1 0
1773 1 11.661867362416944 43.33622341126153 23.58838507383842 0 -1 0
1372 1 6.549866165949315 49.07002401889569 7.65813746220802 0 0 1
1330 1 14.00528769083867 0.3146993852915693 8.875858778439254 0 0 0
1171 1 13.846842218742545 45.757675491844346 16.39960924862732 0 1 1
4352 1 4.5950431903919915 47.63418581378254 11.043530152409845 1 -1 0
3419 1 4.909254469051621 50.43421706464366 11.436929124203942 1 -1 1
1642 1 0.8895500595658017 1.2869150652382348 9.625203476512295 2 1 0
4044 1 7.702675673125443 50.25170717587129 13.129528982924485 0 0 0
2387 1 9.818685945847974 49.4041344070008 10.803695479183284 0 -1 1
501 1 11.781645717324142 0.17032224905734303 10.641094270352724 1 1 1
2757 1 14.352238583442345 48.72923423971638 10.954723640820434 -1 -2 0
553 1 -0.17816405979386374 4.388883007276053 1.6975671216248152 0 1 -1
4232 1 4.173417042871679 1.7702507842859685 9.64775085780133 1 0 1
2871 1 6.311686332925564 7.973798466211829 7.65576527613216 -1 0 2
2733 1 9.044747720779474 2.8531570511917654 3.4536732036263302 0 1 1
1289 1 12.223537819359992 1.3880706785415724 6.963060017751663 0 1 0
4050 1 15.918906741356857 5.054521948951231 9.003214925859645 1 0 0
2338 1 2.333969024948562 6.051113806385023 8.729347864166845 1 0 0
1316 1 6.853144899523217 10.605994983527658 8.070083440808515 0 1 -1
237 1 12.242567973803126 9.107833012730369 10.356525850026335 -1 2 0
997 1 10.942809208362284 2.7096217335524315 10.346587927781405 0 -1 1
1751 1 15.966010199992756 1.1138089784753848 11.877092527533675 -1 0 0
397 1 3.9390297849179143 8.411222828836788 9.692225740839485 0 0 0
215 1 1.4556356024987824 50.873846254380034 5.119771689445904 0 0 -1
3034 1 7.994724507356317 12.284902930700968 9.92589607778196 0 0 1
1797 1 12.1692933757857 11.522387650349078 11.924225613028144 1 1 0
1942 1 12.027849977970215 9.882877629429522 15.784560259530396 0 0 0
1083 1 14.85884221808688 6.041175502755777 11.29431222796082 0 1 0
590 1 4.699205200522504 47.25512128497092 24.228185666352424 0 -1 -2
2953 1 2.6040647428286294 12.597860908909086 11.974652618354192 0 0 1
2547 1 5.1601584345357265 14.5659039421146 13.605300283307923 0 0 0
1212 1 15.116456337074764 8.862408967923583 11.16786470161636 -1 0 1
829 1 14.014270623201448 11.280748821039882 14.46475398671712 -1 0 1
1708 1 16.965280091989097 9.484757930756832 8.966353523567413 1 0 0
334 1 17.41275177567745 0.5138757158031036 5.781441163816826 0 0 0
2063 1 7.492334927483216 18.197704528057063 14.195582990683299 0 0 1
1125 1 9.514154135081657 15.080017154153875 13.932993129304231 1 1 -1
3492 1 13.364052620199011 16.588311698243587 14.245705074240329 1 1 0
263 1 15.709101622781503 18.40410970138031 14.5269864382984 0 1 1
3920 1 1.8189322222426396 19.587562828525293 11.379693909590452 0 0 0
1055 1 6.8772942519811755 18.520582539197623 11.456706252453143 -1 0 1
552 1 5.699888683733329 21.104617092363974 11.770321696863652 1 0 1
3878 1 11.618064741387071 16.409585934505202 12.349178001324178 2 0 0
358 1 14.387326043836099 19.441739429823016 8.397701632500665 0 0 -1
1930 1 12.98321599128261 21.1186591129595 10.055360871252507 0 0 1
3506 1 17.56043467654673 16.251479173916227 22.403949568010464 1 1 0
1566 1 2.111449847734093 25.219161788320932 14.666973433288392 1 1 0
51 1 1.9777008076826323 23.38235407682873 12.523330710484819 -1 1 1
3603 1 10.037858034302529 21.787629893438538 13.536975914817013 1 0 -1
3080 1 11.7541607353275 24.120806616683577 13.892795678168198 1 0 1
1651 1 14.032990770705982 22.93407799470547 15.1282143887472 0 0 1
2271 1 13.879658464439299 36.811620923455635 16.84718452485009 0 -1 0
565 1 7.09510754757459 22.31306157383548 7.699074917531719 -1 -1 0
490 1 12.219566130143246 25.508953649549298 11.502308570208879 0 1 -1
1041 1 14.906145915196287 26.686849750400718 10.475760818084218 -1 1 1
1370 1 7.069810300865521 26.027757780833735 13.230850921225361 0 1 0
2019 1 9.519077406743087 29.164888723481102 11.484886549351668 0 1 0
3178 1 7.071002993760262 30.243615693089065 13.900843459765161 0 0 0
775 1 10.82702908381631 30.85213724517688 9.441677073748233 -2 0 0
4583 1 14.593643334636864 31.548993322666046 10.779721915629509 0 -1 -1
4359 1 11.772642603571976 29.129026083333308 7.610950206508747 0 1 0
1781 1 0.5713859653645248 30.43141177093415 12.646007128843221 0 1 1
4526 1 0.8659497487575525 20.987519156256255 24.430180498450586 1 1 0
3672 1 2.585082389986286 34.707131248923346 8.230750456327925 1 -1 0
1661 1 5.735342968944422 35.09118345799104 12.098109073452324 0 0 -1
1402 1 13.705808789113211 34.94319417005746 11.54372689008015 -1 -1 0
4286 1 0.44993508992664544 6.3250322482075045 18.523386687552343 1 2 -2
1094 1 4.891632404972938 40.320277963705664 12.657172314734776 1 0 1
3501 1 12.791313083987767 36.08902799829494 9.317397974591072 0 0 0
1845 1 12.7900729890849 33.1346596182575 4.8875187157026705 -1 0 0
66 1 4.031222602566082 37.28887039987032 11.37630461204709 0 0 0
4246 1 10.29372951089341 38.87315015654224 15.567136238907556 1 1 0
159 1 9.08329155429204 38.30686686875473 12.128104473330495 1 -1 0
2495 1 13.216685797985102 39.9467790885713 16.2703019532597 0 0 1
1753 1 6.144988257820472 14.292608272089785 25.026785033716738 1 1 -1
636 1 -0.44013193593908856 34.18223572955644 11.592598578775727 0 0 1
216 1 -0.013543997285181686 30.634444475597082 15.883566374433833 0 1 0
447 1 3.0619476063221223 45.80601926147797 1.4152552170399197 0 -2 -1
2453 1 0.9776707839985539 43.13419948800282 7.031383743204566 1 0 1
4106 1 6.312136556942844 40.125151558906225 8.813390390846152 1 -1 1
172 1 3.471599528484052 40.24653923697153 9.83886018604776 0 -1 0
718 1 13.333612332507567 42.955470439284994 10.7168963847854 -1 -1 -1
2806 1 16.083790005536656 37.1088779556009 14.78559156778964 1 -1 0
4125 1 3.1410945503696013 42.82333140391802 8.588828516204142 0 0 0
1362 1 10.941320027978243 47.067992524733064 11.56858334415803 0 -1 0
721 1 8.006117644725126 45.60543108402647 9.89820934025578 0 0 1
1595 1 11.110409495036828 44.75924653207844 9.40397131011973 0 -1 1
2890 1 0.924340482972926 33.5674584136606 25.03833828027308 -1 0 0
1366 1 1.730170193042575 41.80862363469594 11.871041137237485 1 0 0
1420 1 9.040539261931885 49.81673242196484 15.548927372501307 1 1 -1
14 1 13.797321200023907 46.10165015762191 9.894464226467525 -1 0 0
2659 1 3.5928836598077645 48.76461645723201 15.102029116217974 0 0 0
3002 1 10.450424708762334 3.1848330251824484 7.544649289663322 0 0 0
3708 1 11.800596699588858 50.11220137409168 14.852004655012207 -1 0 -1
3947 1 5.163457874621622 0.8439390856617697 23.69119867821867 0 0 -1
458 1 13.505983712802175 0.40716040342874865 12.858720856600767 -1 1 0
3203 1 15.166533553980116 2.59704403739792 6.3382190009272215 2 2 0
3414 1 3.4144075369181714 4.875429685149266 13.369561071896381 0 2 0
119 1 7.372427848218236 0.16854363789960075 9.625734595163264 0 0 -2
3967 1 7.207249200821526 6.656945115828137 19.011074934734076 2 0 0
1921 1 5.052661819305077 7.043092038772278 13.164517546107396 1 0 0
3195 1 15.228867932536424 0.25381292509758685 15.387053921331526 1 1 1
1506 1 6.345728066921755 6.404623898023073 10.133658510147985 0 1 1
848 1 2.0491251021785177 37.75677321184632 18.969584223174234 0 0 0
1559 1 1.802823592493219 5.69216300711805 16.22695683487542 0 1 0
2153 1 4.5051295464255485 7.552954791682687 15.836748756594893 0 0 0
638 1 7.843294432704212 7.337133165898314 12.457119266531587 -1 2 1
1564 1 12.169446401602531 3.435501679007052 12.94693340681753 -1 0 0
1759 1 10.558047807888487 6.363934203313034 16.112320504557417 0 1 1
1799 1 9.204177890794767 46.422957751246415 22.32954822210361 0 -2 0
3251 1 15.30171950498932 12.062187418058246 17.689266882073372 0 1 0
1141 1 0.12278795524216557 4.684689558126582 13.865620840047542 1 1 0
2537 1 14.662849215837133 36.020047821767385 19.28185250622332 1 0 0
2868 1 3.8213437252820537 9.323856643382962 12.721784886681528 0 1 1
2937 1 11.830844766439451 7.36513569938546 14.151008326640834 0 0 2
3426 1 9.411020257075455 11.97549441686641 12.222238566578104 1 0 0
4240 1 15.776473855653663 12.809232924060025 4.753137355327075 1 0 0
3675 1 16.15107041087591 47.34135424936831 1.142248480500501 1 0 1
81 1 3.228485181291367 14.56340120930222 16.70750157467011 0 0 0
4326 1 7.919469046651782 10.071500567889462 13.570850817111154 1 1 1
2508 1 10.875307992353338 12.952381932088546 15.023524131540173 -1 1 1
3121 1 16.149984874664383 15.33248541364394 13.255692397474874 0 -2 0
1906 1 16.900391146612908 10.318201074960221 13.699648506713233 0 0 0
1371 1 16.736514897789494 18.642835595495978 9.490868420361924 1 0 0
1427 1 2.3126188748840493 17.126990103390373 17.32551082068618 0 0 1
2262 1 2.8492107032855394 16.228953254267026 13.267057895704333 0 0 0
2975 1 5.512899583447647 18.898850439641375 15.88135985132762 0 -1 1
2870 1 12.497954152023436 14.617651856846281 16.88591722778452 1 -1 1
2032 1 13.33026124061654 15.79060325706334 19.17370971975542 1 0 -1
1374 1 15.041903119520112 39.97294326299116 13.743102863647223 0 0 0
2520 1 16.335783526152255 17.520311626507173 17.15179278351497 0 0 0
4231 1 15.62302263102617 39.644484138501994 18.564250750888036 0 0 2
2979 1 2.9002973242647436 18.626550597376323 15.146016369220602 1 0 0
3813 1 4.242054732666187 22.589853783523086 15.069821795325904 1 0 0
3750 1 10.404006740317557 16.764124128671984 15.981485084971634 1 0 -1
726 1 9.518816142207816 19.893275928886894 15.34703280543042 -2 0 -1
1910 1 10.966108820551693 19.90469027389347 11.594574090348132 0 -1 1
2486 1 13.893843473752806 18.648221344282476 18.566778862535493 0 -1 1
1989 1 13.392127204266949 20.038900720577065 13.767361116507432 0 1 0