LAMMPS data file via write_data, version 29 Oct 2020, timestep = 200000

4608 atoms
1 atom types

0.3268404560875382 56.9436695439103 xlo xhi
0.2905248498542079 50.61659515014757 ylo yhi
0.2905248498542079 50.61659515014757 zlo zhi

Masses

1 18.015

Atoms # atomic

5 1 2.0461094432153253 2.032066337404273 1.8185756939404665 0 0 0
50 1 0.5198524446819431 15.65674592668885 3.164233750980832 0 0 0
3 1 3.729253191414284 0.2931244103940358 3.358905051652878 0 0 0
10 1 7.044519703103216 3.5907504802781944 3.364842148685214 0 0 0
242 1 0.5579824743242068 15.971843323138803 9.28831374272246 0 0 0
13 1 8.3952833698652 1.8455332426387272 1.8575110254956615 0 0 0
11 1 9.89688783560043 0.39238516129075435 3.4031548003409857 0 0 0
170 1 0.4279719933468845 47.79054538697991 3.4029363815882707 0 0 0
21 1 14.424937760575428 1.65757368847386 1.9204038589068932 0 0 0
18 1 13.031724294286114 3.624333647647867 3.20698888441468 0 0 0
27 1 3.280245561062726 6.694271243701853 3.7011388063673776 0 0 0
8 1 5.248260119675734 5.042747558758606 2.3032984780400274 0 0 0
35 1 9.955868194315183 6.902444578748294 3.491513252638618 0 0 0
16 1 11.072082442042541 5.063936479808199 1.9799739738018145 0 0 0
24 1 17.27598089541863 5.243745432876364 1.8797518245734866 0 0 0
43 1 15.947059373603233 6.923170549196048 3.6667028744724717 0 0 0
313 1 0.3983722996734329 31.47346807530183 6.497493160523637 0 0 0
29 1 1.8503370303398974 8.100945648788109 2.2699821125611606 0 0 0
34 1 6.6292084656347505 9.77650029599896 3.3596926856865603 0 0 0
37 1 8.241343939419941 8.27255805492315 1.9707186116013966 0 0 0
45 1 14.355170091143338 8.317374380443077 1.9772110049896052 0 0 0
42 1 12.778415028375203 9.940985535711937 3.4968836051675423 0 0 0
698 1 0.3556322796245847 35.16825551125458 22.331853730471284 0 0 0
51 1 3.9580455984468954 12.723420498710006 3.1808988311355906 0 0 0
32 1 5.092038796073603 11.120243310378678 1.6980020950848496 0 0 0
265 1 0.879071550460256 18.66614003708619 6.7421075195229685 0 0 0
59 1 9.92229334456003 12.984562748772417 3.4438832372638144 0 0 0
40 1 11.555768617266668 11.437582907469952 1.614548525146504 0 0 0
836 1 15.77746523739118 16.19789368265363 25.07971403814938 0 0 0
48 1 17.578594195647106 11.187045739422265 1.7816462748161543 0 0 0
67 1 16.20172036991018 13.166973634012953 3.142725718309608 0 0 0
53 1 2.3006397995032986 14.4895288532843 1.8339457169184912 0 0 0
122 1 0.5159081532950993 35.40599818291169 3.789774403109121 0 0 0
58 1 6.872066885081038 15.620769394120302 3.4620827183682352 0 0 0
61 1 8.511029469359883 14.366834911092052 1.760890371143185 0 0 0
69 1 14.67770626631488 14.718799577950225 1.5646560776398817 0 0 0
66 1 13.375943170845787 16.320691606458812 3.223865708179324 0 0 0
337 1 0.401081308182522 38.4508247200798 6.559461613828043 0 0 0
218 1 0.5762543940891501 9.338839935305622 9.776067989452086 0 0 0
75 1 3.708729393642212 19.084443449184015 3.4836090204948853 0 0 0
385 1 0.3778054876343262 50.216258544787344 12.781016832616954 0 -1 0
56 1 5.46581128637503 17.543887161599617 1.5763889208562964 0 0 0
83 1 10.333448435095917 19.21822364789058 3.085292118766246 0 0 0
64 1 11.53167918731002 17.864143483545003 1.4630957227685244 0 0 0
72 1 17.592774156631002 17.742648847015033 1.5894058747099349 0 0 0
91 1 16.295174360356306 19.199488370665517 3.210118595356832 0 0 0
77 1 2.2688623270147623 20.37043009804468 1.8439919526268946 0 0 0
82 1 6.569726736621076 22.35694153317614 3.3345956239613903 0 0 0
85 1 8.453473801077713 20.825884874536335 1.903779471771556 0 0 0
93 1 14.630213258447018 20.961693538081004 1.6424455614032338 0 0 0
90 1 12.945980526863611 22.5085762666774 3.122506835757475 0 0 0
96 1 17.597478935625205 24.049902428765794 1.6564856623191957 0 0 0
99 1 3.491274603251338 25.076363952303637 3.577758021114869 0 0 0
101 1 1.7870853528698045 26.63627930992916 1.8625373002423313 0 0 0
80 1 5.1005645003471525 23.766078741567448 1.6971294159883186 0 0 0
88 1 11.410460105374915 24.007814044554113 1.7116553496468654 0 0 0
107 1 9.876176612355078 25.40860090296034 3.4529484311355665 0 0 0
109 1 8.38099327956782 26.881179295015166 1.9848406223977377 0 0 0
117 1 14.681884230882659 26.751807360523323 1.3947689816430293 0 0 0
115 1 16.190102894497286 25.50905002823495 3.3273585390370366 0 0 0
193 1 0.4291805853725331 0.316760532620754 6.983911460876071 0 0 0
106 1 6.671943325250377 28.44557189846738 3.1264050626766133 0 0 0
104 1 4.97416758215413 29.716174326891718 1.8369500029213877 0 0 0
112 1 11.467063581060563 29.79277099988401 2.1551811909650405 0 0 0
114 1 13.15594571380789 28.011561795650902 3.235874292594662 0 0 0
120 1 17.56322474736603 30.100501470062458 1.5251046280033547 0 0 0
4 1 3.853480084666168 3.51885871337629 0.6825550054954413 0 0 0
123 1 3.4704547257990233 31.612834429644025 3.3794552513551492 0 0 0
133 1 8.196774669354602 32.978177644242415 2.219581652380353 0 0 0
131 1 9.747247994326932 31.192756890574962 3.6764449568510704 0 0 0
141 1 14.511373138263146 33.38172576843484 1.6104873335880032 0 0 0
139 1 15.870526659067245 31.692176759817297 3.0925652838359023 0 0 0
125 1 1.818118794330954 33.35944090155854 2.522554548905718 0 0 0
762 1 12.852692820952058 47.82284304758369 22.332350348087004 0 0 0
128 1 5.137588865770536 36.46584961686684 1.5660149999069417 0 0 0
130 1 6.411861907233405 34.89461800648263 3.351681345178731 0 0 0
136 1 11.492551832429323 36.580962079184616 1.7668201851687309 0 0 0
820 1 3.578486389650636 15.879204118029225 25.42589411961788 0 0 0
138 1 13.069314850965991 34.953200916734666 3.231590734709237 0 0 0
144 1 17.439748904428622 36.53193140448349 1.9180223351082117 0 0 0
149 1 1.5144630122842664 39.58261915073266 2.1331593284921637 0 0 0
147 1 3.4273750867343336 38.075185923923584 3.1191473150615185 0 0 0
157 1 8.429702437126505 39.418344830211126 1.7005133379331254 0 0 0
155 1 9.72859582614959 37.98523013035954 3.3075631736021203 0 0 0
165 1 14.816284876498704 39.78691273461372 2.2586724885471448 0 0 0
852 1 9.383055528044146 22.5521833179292 25.162540486484847 0 0 0
163 1 15.95437108849421 38.060940767484176 3.503264848294356 0 0 0
849 1 6.554652947977135 19.363123102254313 25.272551452265137 0 0 0
410 1 0.3386671007301345 9.766036083865277 15.924074700107774 0 0 0
152 1 5.1926707058196335 42.380213862343524 1.9506014391426734 0 0 0
154 1 6.846295100344912 40.886097251465735 3.402145884675491 0 0 0
160 1 11.638434348808591 42.45065632325412 1.5911009511244358 0 0 0
179 1 9.724776830294072 43.96837769280943 3.0184915791936335 0 0 0
124 1 3.1090755835728903 34.9903557139906 0.7399719228160175 0 0 0
162 1 13.015220348160167 41.14807138718509 3.852045255430058 0 0 0
168 1 17.861470272039128 42.79065809694628 2.601573158687839 0 0 0
625 1 0.4123687909327004 13.18395017671809 18.798584529504105 0 0 0
266 1 0.5895295442965325 21.66243373519903 9.928830305605143 0 0 0
673 1 0.7615279244198528 25.151029388081238 19.01880285366372 0 0 0
173 1 1.8419553174544596 45.987572430500926 1.920895937596149 0 0 0
171 1 3.6684053086715918 44.06490067272746 3.4417595183003664 0 0 0
674 1 0.3332151543468669 28.862511147385955 22.077396250924977 0 0 0
181 1 8.109419338550367 45.621875925800126 1.7154250427686761 0 0 0
164 1 16.320274470261577 41.247411232849814 0.762485905696082 0 0 0
189 1 15.16732162602395 45.79785954286872 2.068698675989974 0 0 0
529 1 0.5603364831519638 38.04093752929258 13.206948882787415 0 0 0
178 1 6.90019531375686 47.49991316021813 3.1772096408771575 0 0 0
176 1 4.910480045646461 48.9917383524525 1.8247593755715714 0 0 0
184 1 11.157822121581662 48.82106620867154 1.9153176327436827 0 0 0
482 1 0.5763341596979802 28.182869825626295 16.129624512700254 0 0 0
241 1 0.34897725433332083 12.796593889602615 6.650313593801226 0 0 0
186 1 13.088416278682015 47.43482815181679 3.3142393790814215 0 0 0
19 1 15.853466265284165 50.541866181841684 3.1613032027439796 0 -1 0
192 1 17.32121582223997 48.96434048164281 1.4453582359846529 0 0 0
362 1 0.5942804438993187 47.14190865749797 9.58649546845418 0 0 0
481 1 0.39258018537225026 24.99049203426797 12.857232150416323 0 0 0
7 1 5.4273344961438985 2.204072546307011 5.045354551313077 0 0 0
201 1 6.5487196391016775 50.186689232848266 6.5983624432672725 0 -1 0
15 1 11.382167000118828 1.9143704561425534 5.269673890704697 0 0 0
204 1 9.507812530427376 3.3085860409226524 6.745602237834488 0 0 0
23 1 17.532169310379754 1.6632111814784871 4.8876309157766284 0 0 0
212 1 16.027050307462524 3.5212380918908885 6.551735981967576 0 0 0
196 1 3.47772932379839 3.924121729538749 6.359779044739147 0 0 0
6 1 1.6748078539458042 5.124246477410723 4.969123287341568 0 0 0
766 1 14.546824462567 48.9856195030704 24.1285030708806 0 0 0
225 1 7.1440199578187045 6.4491319468051245 6.403152475883559 0 0 0
14 1 8.619656511114158 4.964195639443868 4.860063701701897 0 0 0
22 1 14.383505306933694 5.439094089610495 5.082223958805048 0 0 0
233 1 13.543430837757978 6.353928120887964 7.17024471818494 0 0 0
758 1 7.873411644049818 49.07369965693282 23.70497887964301 0 0 0
220 1 3.7519111183473255 9.591933216738182 6.244504308744689 0 0 0
31 1 5.268525366789406 8.119389626670598 4.80854188344558 0 0 0
228 1 10.01860502365788 9.781358350916506 6.400666839326519 0 0 0
39 1 11.72587694172622 7.967870583748957 5.253745174732184 0 0 0
47 1 17.38824764553832 8.390641983335268 5.180335984500265 0 0 0
236 1 15.851517009124855 10.173882325118006 6.426329411026292 0 0 0
30 1 1.7859284503611197 11.381627638687153 4.9909219551648665 0 0 0
249 1 6.833470506942062 12.47233523260574 6.509230455505334 0 0 0
38 1 8.221861750999778 11.190448394466303 5.001989134831755 0 0 0
46 1 14.567040901567077 12.061547263583115 4.853385519046881 0 0 0
257 1 12.825678927249085 13.143466722113061 6.666879293185645 0 0 0
386 1 0.4642656719733377 3.8906545509553543 16.09029609087998 0 0 0
244 1 3.6346002557342776 15.568338207526843 6.1573206795107085 0 0 0
55 1 5.270180580134802 14.018365126761005 4.959180012511523 0 0 0
252 1 9.684649637420435 16.084482762492577 6.165405396946226 0 0 0
63 1 11.592869297686878 14.89688368327911 4.668877155890913 0 0 0
71 1 17.73805791185723 14.338713006407673 4.984918894503377 0 0 0
260 1 15.929534127702697 15.844501506093971 6.294128398490191 0 0 0
54 1 2.046752851125888 17.34932627731344 4.540922708100561 0 0 0
273 1 6.789262792808915 19.131639406049405 6.60854462374538 0 0 0
62 1 8.156425593855069 17.56770176444537 4.781418639367741 0 0 0
79 1 5.236818949002095 20.570267028804526 5.190246745345386 0 0 0
70 1 14.714431472640694 17.957294031189583 4.893130476555005 0 0 0
281 1 12.919943658485156 19.384366203673963 6.190486586108381 0 0 0
268 1 3.645393584997684 22.143392625339715 6.696977721723 0 0 0
87 1 11.2914806376125 21.000214425844586 4.8582216533524925 0 0 0
276 1 9.540920702782145 22.121878694225146 6.511225108356735 0 0 0
86 1 8.039977089893139 23.709116908874826 5.006610133656524 0 0 0
94 1 14.39342857100832 24.076440957990716 4.6716948970254055 0 0 0
95 1 17.825326245796724 20.94716143600554 5.000126772800101 0 0 0
284 1 16.192466420526195 22.56008067337299 6.516116974603309 0 0 0
78 1 1.602702184036732 23.405062285285414 5.219464324878928 0 0 0
297 1 6.64690558546951 25.15235627998663 6.6263523899683126 0 0 0
103 1 5.126842412127009 26.935706931159526 4.722742416503756 0 0 0
111 1 11.582390554945087 26.675274068928882 5.1284004474905895 0 0 0
305 1 13.287116773806753 25.465445910972296 6.860053954499468 0 0 0
754 1 6.5863857766790534 47.199035475899166 22.351472828647054 0 0 0
119 1 17.356136222508624 27.08982021822217 4.9698894185933815 0 0 0
292 1 3.5316296781197836 28.591478196381377 6.414400222345483 0 0 0
102 1 1.7782609803114227 29.923934057186685 4.721525607075293 0 0 0
300 1 9.89913802989665 28.189837906369775 6.657574570650594 0 0 0
110 1 8.040509101982988 29.635520887935492 5.01893064128008 0 0 0
118 1 14.455620942125767 30.18688333579246 4.673194779788284 0 0 0
308 1 16.164121833053454 28.851597181015023 6.696208458742748 0 0 0
321 1 6.406208161183909 31.535877235456606 6.294820227875308 0 0 0
127 1 4.710699600891893 33.09530589583402 5.283100003607063 0 0 0
135 1 11.47676079798056 33.151957738723524 4.81548869499538 0 0 0
329 1 12.937972416315736 31.50983996159329 6.450787302711689 0 0 0
143 1 17.219070149495575 33.39509895323584 4.522216833587008 0 0 0
33 1 6.65969685464643 6.686919336290904 0.5085436316366934 0 0 0
316 1 3.0493605610109564 34.82536028869841 6.292725970952703 0 0 0
126 1 2.079079398696534 36.85436128445386 5.168144700782221 0 0 0
134 1 7.982388577771002 36.50417499423589 4.701887302957336 0 0 0
324 1 9.476355176518707 34.69104074131821 5.531578971322131 0 0 0
142 1 14.596653201884465 36.51818581132253 5.022139848326711 0 0 0
332 1 16.1587407974489 34.87038631756718 6.228120389191117 0 0 0
151 1 4.864214828249628 39.70680250613924 5.020374469370631 0 0 0
345 1 6.510463622148639 38.0035560003699 6.478785938770435 0 0 0
159 1 11.20238037379859 39.35521648623151 4.873477175396574 0 0 0
353 1 12.665464901038726 37.55754774656147 6.416785257422379 0 0 0
167 1 17.123562332919658 39.57954052438978 5.451784782206631 0 0 0
150 1 1.8002055735305964 42.743467834817004 4.708245065118941 0 0 0
340 1 3.295591368493181 41.33125040004831 6.534675646007797 0 0 0
158 1 7.884278409764757 42.5779759674099 4.916660077976003 0 0 0
348 1 9.562310250939435 41.07964465887267 6.618053908201622 0 0 0
166 1 14.412063515271818 42.72424234778676 5.387112547687705 0 0 0
356 1 15.867527520415752 41.24233688652622 7.066404840583963 0 0 0
369 1 6.504977835241045 44.4594956069414 6.654570905689758 0 0 0
175 1 5.114905437350765 46.19709379192868 4.769868804968125 0 0 0
183 1 11.213178353934731 45.900817269438804 4.892894943949196 0 0 0
377 1 12.876319131695283 44.18997417669978 6.602390518081236 0 0 0
187 1 16.379512475066548 44.108298653144146 4.132413069302638 0 0 0
191 1 17.762499607181148 46.00050376508969 5.2898768497651245 0 0 0
121 1 0.8063917034210064 31.763848505744583 0.620304906879135 0 0 0
364 1 3.6316930067825046 47.22402137380388 6.622442873982926 0 0 0
174 1 1.7623170119037728 48.83206428804004 5.192273225295521 0 0 0
372 1 10.048643894671184 47.70742919397085 6.270836406213113 0 0 0
182 1 8.159197864409228 48.98923827150638 4.840337629862557 0 0 0
209 1 13.096341027926632 50.38880754075439 6.6721121414845985 0 -1 0
190 1 14.3601044222911 48.86695496494751 4.901232724001621 0 0 0
380 1 16.064968558910756 47.53397150534199 6.8699531905028515 0 0 0
197 1 1.9568372784327668 2.382810218815673 7.7873983195094905 0 0 0
195 1 3.720212298028358 0.4382339324413713 10.041264259969084 0 0 0
202 1 6.757742512910928 3.3695543649756905 10.044306634753463 0 0 0
205 1 7.918286524713691 1.3989225938386483 8.2194247123359 0 0 0
203 1 9.698013115338687 50.27236090463833 9.653407249529206 0 -1 0
213 1 14.612956330813452 1.637739154989216 8.320714900499963 0 0 0
210 1 12.772642000655878 2.943089855673276 9.912437055923808 0 0 0
750 1 1.8884411923801043 48.796003934468025 24.143386555757324 0 0 0
211 1 15.967888398852484 50.45215940657277 9.98487978990511 0 -1 0
219 1 3.499066453263623 6.624584724219137 9.825123735674524 0 0 0
129 1 6.601745697038744 31.408839207110137 0.49108322476061317 0 0 0
200 1 5.211230727857348 5.171044187240819 8.013963293327112 0 0 0
227 1 10.098853798996762 6.8021574074424995 9.659067779923454 0 0 0
208 1 11.569336010152767 5.023251676512208 8.253490412011569 0 0 0
216 1 17.606463573990688 4.69508717980098 8.325748420675218 0 0 0
235 1 16.175884694765873 6.601719482649169 9.75045623079428 0 0 0
221 1 2.0760762986881582 8.137962102173589 8.200385011216643 0 0 0
226 1 6.64167366331226 9.563400528199336 9.4507683829543 0 0 0
229 1 8.561285072026275 8.17849687288145 8.04836474684426 0 0 0
237 1 14.666722378069913 8.376124910383199 8.317277252778068 0 0 0
234 1 13.073965345259264 9.643232702939406 9.588001496517801 0 0 0
239 1 17.520220000257552 8.376629152947633 11.261675600395975 0 0 0
243 1 3.7975431744312793 13.074895302916465 9.965140092726262 0 0 0
224 1 5.087956665526723 11.112847645737505 8.113952003694859 0 0 0
251 1 9.680762389163338 12.4771387881188 9.508997673106066 0 0 0
232 1 11.531447637010087 11.07936927993802 8.251828416542004 0 0 0
238 1 14.529482597551404 11.436524444555227 10.89582981311415 0 0 0
240 1 17.343896494743024 11.310413071882932 8.210974955122683 0 0 0
259 1 16.014235679851332 13.286212773170877 9.68406835877788 0 0 0
245 1 2.1601182755897756 14.518469375512296 7.869871973921123 0 0 0
250 1 7.189664553450572 15.768393799050843 9.395363710864894 0 0 0
253 1 8.457696344083896 14.056175008022274 7.771607325151977 0 0 0
261 1 14.417609670250025 14.800878154597951 8.22351052309461 0 0 0
258 1 12.749392164314003 16.091331114912414 9.439020158541382 0 0 0
255 1 10.937139663367528 14.356868664243745 10.817985896727135 0 0 0
263 1 17.849748369762146 14.801859310409577 11.156379623087176 0 0 0
267 1 4.139796432115071 18.720021954023814 9.59952426075801 0 0 0
269 1 2.428239239910756 20.571301934947122 8.348959673411631 0 0 0
248 1 5.322249065987933 17.10405873466896 7.698888547593515 0 0 0
275 1 9.912093401768384 18.975796120450866 9.987894580547934 0 0 0
256 1 11.301788392683573 17.821961535561773 7.9271530114405255 0 0 0
264 1 17.664783197041675 17.34758451673613 7.7927423815401715 0 0 0
283 1 16.014311846773605 19.0009600236096 9.388052634145064 0 0 0
270 1 2.175337628289861 23.512897279948582 10.990809747081727 0 0 0
274 1 6.2719986832185635 22.081838685554253 9.641105327494456 0 0 0
271 1 5.453216304986183 20.264159316068408 11.372309940138988 0 0 0
277 1 8.347743931451669 20.60845445530426 8.223410158370754 0 0 0
280 1 11.507130463127343 23.510154909384738 8.044741863298178 0 0 0
285 1 14.319296177844626 20.665362539770122 7.950893059943925 0 0 0
282 1 13.04727535500513 22.064735303166234 10.17337426267095 0 0 0
288 1 17.961100440445836 23.683442791532983 8.015441086973684 0 0 0
287 1 17.631792004467577 20.573623323173752 11.045188307544123 0 0 0
291 1 3.4734318737199366 25.442750884556837 9.457233373363788 0 0 0
272 1 5.035188613095538 23.80337906621763 8.156648781415033 0 0 0
295 1 5.297218445837531 26.656835730533082 11.281505602894088 0 0 0
299 1 9.931184752456582 25.156283833051354 9.881187015239435 0 0 0
278 1 8.33614012260733 23.517956672369557 11.153838401221476 0 0 0
309 1 14.811049018065328 27.268949782641 8.297079298571836 0 0 0
307 1 16.12440272248535 25.501515079009287 9.693602913196273 0 0 0
293 1 1.759813487135794 26.84808275934873 7.982489931509693 0 0 0
298 1 6.621998014408431 28.561880856824114 9.471652934182382 0 0 0
296 1 5.0307444966025185 30.10161031721723 7.881178902279614 0 0 0
301 1 8.314995003871548 26.56203387117341 8.368226431948246 0 0 0
304 1 11.147209859494115 30.274550898590032 8.3057680680178 0 0 0
306 1 13.01091895028747 28.905216737800384 9.84123499812145 0 0 0
312 1 17.771575276656176 30.466237459039775 8.159051280117161 0 0 0
315 1 3.1573584763809746 31.50162666559842 9.365655838081384 0 0 0
317 1 1.7028479301801223 33.142292980290236 8.079220318775782 0 0 0
323 1 9.526341750276165 32.407707867628794 9.668485167654563 0 0 0
325 1 7.906088503786384 33.649600561654445 7.740312628821438 0 0 0
333 1 14.792587612336103 33.46407963736321 7.888646779471206 0 0 0
331 1 16.26439593369014 32.10101929069286 9.718647590617216 0 0 0
320 1 4.765176532425043 36.38005001381482 7.780337667593838 0 0 0
322 1 6.11871974862084 34.87302386727847 9.400711690675585 0 0 0
328 1 10.773597816518196 36.01836295926085 7.4590261391890245 0 0 0
330 1 12.979505865521057 34.81298858100379 9.18376860250853 0 0 0
336 1 17.662360294364973 36.22017339009296 7.912629338865937 0 0 0
341 1 1.9628775925471869 39.698299648078965 8.302100025292765 0 0 0
339 1 3.599838540871855 38.12494195998537 9.614776294952918 0 0 0
349 1 8.01535616717501 39.330818117247595 8.318246761668503 0 0 0
347 1 9.95110548321859 37.701922749063726 9.450430497338536 0 0 0
357 1 14.482358422306111 39.36420670586223 8.246133029702136 0 0 0
355 1 16.266265681261274 38.06877093342127 9.49331303559933 0 0 0
889 1 0.41280502844540873 31.6925377422391 25.08640725335289 0 0 0
346 1 6.435845822814828 40.665338380986945 10.229395028299328 0 0 0
344 1 5.0135552665375185 42.430264532380576 8.109884191671883 0 0 0
352 1 11.399716550770528 42.3866086074493 7.998868036155968 0 0 0
354 1 12.846741711461338 40.81137535150189 9.51893605046902 0 0 0
360 1 17.378025070005044 42.85883007127422 8.52908168307821 0 0 0
578 1 0.6124061008709664 3.300371482318439 22.435039511371397 0 0 0
363 1 3.2246167669622383 44.287949807831275 9.707969345805036 0 0 0
365 1 1.8803435617975188 45.49536333636119 8.04417023545205 0 0 0
373 1 8.395514985991314 46.00150403261125 8.140941733530859 0 0 0
371 1 9.981025400239732 44.19588714349805 9.46158992223918 0 0 0
381 1 14.273278614919091 45.77177106302072 8.15220605131871 0 0 0
379 1 15.557072848462633 44.41970164970612 9.99364796163408 0 0 0
26 1 0.5158466045890521 10.062357638814289 3.143452148523184 0 0 0
370 1 6.6730124320700686 47.257018300739006 9.621721351006133 0 0 0
368 1 5.0244632338593425 48.746965756715596 8.206813469489406 0 0 0
376 1 11.315975886226562 49.18241241761238 7.953994293376988 0 0 0
378 1 12.847651431439042 47.273689107547675 9.723938833348813 0 0 0
384 1 17.33603459722439 48.940103867116015 8.701736683099591 0 0 0
28 1 3.512662894181721 9.431701821045136 0.5585819510772327 0 0 0
697 1 0.5809947472455954 31.63520627029928 18.86307600499876 0 0 0
389 1 1.6742071736482835 1.532691273812019 14.42537511158055 0 0 0
199 1 5.184747253449624 1.769376800108472 11.913515760683584 0 0 0
393 1 6.621918086121483 50.00361580427418 12.835065371254894 0 -1 0
207 1 11.064803132323936 1.7329505497991757 11.372992101656667 0 0 0
405 1 14.322636396457991 1.8414859506436543 14.462539273863799 0 0 0
215 1 17.708300186781848 1.665867569843393 11.498617719015856 0 0 0
404 1 15.774415160083521 3.3411843763582616 12.768967939575711 0 0 0
506 1 0.68148060817633 35.156279827688586 15.847003006867974 0 0 0
388 1 3.4475794020270527 3.167181658528132 13.089889154195694 0 0 0
198 1 2.0258602727831327 5.198572176762414 11.514409831004494 0 0 0
417 1 6.581273905212732 6.680160540120598 13.024792995903706 0 0 0
392 1 4.905813652280458 5.035578952151076 14.423641506762234 0 0 0
396 1 9.45186728579928 3.43753674793135 12.808532336015444 0 0 0
206 1 8.04647150987777 5.441586076812581 11.467412419216268 0 0 0
400 1 10.916471456749052 5.067841586550691 14.48840785810892 0 0 0
214 1 14.037575152192106 4.765216584951125 11.207207593327455 0 0 0
425 1 12.54708224644047 6.3787799579144835 12.98950106980408 0 0 0
408 1 17.40156106416502 5.087297571860808 14.026015042887078 0 0 0
1826 1 19.02509408552452 28.919073463316785 9.834892876880202 0 0 0
412 1 3.4067855653547534 9.863754777434723 12.878765838294886 0 0 0
223 1 5.052180138329478 8.0335624038721 11.269209253012965 0 0 0
231 1 11.63809217159618 8.252990493122256 11.20570311273186 0 0 0
420 1 9.688359284821587 9.630185317020148 12.959294360495807 0 0 0
429 1 14.185214314869999 8.329433893439592 14.288485275297562 0 0 0
428 1 15.736072546523715 9.900078282323133 12.895173426458335 0 0 0
222 1 1.9887403196730626 11.581484266762994 11.422301271749182 0 0 0
441 1 6.84524202004437 12.033191735851862 13.514132302962103 0 0 0
416 1 4.646748045854328 11.07847507722271 14.870117922949445 0 0 0
230 1 8.269021272973028 10.852679141028242 11.23285605221493 0 0 0
424 1 11.133292736421684 11.318108826866029 14.352098217515573 0 0 0
449 1 12.722084687922797 12.777153950271208 12.358812266659605 0 0 0
432 1 17.525541124675076 11.315745648048104 14.320505693623481 0 0 0
1993 1 19.17921105343658 18.927698016623832 12.616889176747632 0 0 0
436 1 3.88319118064055 15.724898651629138 12.755885316979304 0 0 0
437 1 1.8212507766677108 14.645785234507501 14.286832214552815 0 0 0
247 1 5.7576737155259465 14.003135232936106 11.548958158789326 0 0 0
444 1 9.331816757589724 15.847626333889226 12.887592097006246 0 0 0
445 1 8.072293499969803 14.196309896208744 14.672651623745548 0 0 0
453 1 14.422047656418894 14.321673110383374 14.096070353944416 0 0 0
452 1 16.258804172704032 16.144235540802782 12.833609184224612 0 0 0
246 1 2.4497103449060353 16.827469766468976 10.899524636361479 0 0 0
465 1 6.783502007287601 18.65293964559809 12.930929183525834 0 0 0
440 1 5.189849297015604 17.59258096539123 14.460604293408652 0 0 0
254 1 8.3186155259462 17.476048249345823 11.153940698902087 0 0 0
448 1 11.069697763049996 17.534299965818164 14.214197648863074 0 0 0
262 1 14.67230112341474 17.463469902666372 10.908094610591249 0 0 0
473 1 12.921590274867567 18.889145126056523 12.990661261252626 0 0 0
456 1 17.726359190058865 17.425070409610804 14.513094563699076 0 0 0
1897 1 19.009421278037685 44.43604865166579 6.723324108578357 0 0 0
461 1 1.7511499521504323 20.218374310291193 14.38642630659178 0 0 0
460 1 3.485201769371008 21.455804434146007 12.324504391885556 0 0 0
279 1 11.299235779764297 20.627021820996333 11.46444158967719 0 0 0
469 1 8.293712796553718 20.286672124261866 14.219172467508724 0 0 0
468 1 9.817772478165834 22.239615152111593 13.24501783155773 0 0 0
472 1 11.441093934354734 23.89595540859397 14.630162913955209 0 0 0
477 1 14.474870693836838 20.689820443847427 14.628381086546113 0 0 0
286 1 14.943217832634735 23.86463698057511 11.358684306443163 0 0 0
476 1 16.321598140878386 22.106635113282056 12.998674456204972 0 0 0
480 1 17.720428977998395 23.966032651611815 14.488908552181728 0 0 0
485 1 1.8566746096906328 27.028138294808123 14.008359384320318 0 0 0
489 1 6.75261733334771 25.0191762661532 12.81735399241738 0 0 0
464 1 4.732057628092378 23.015536009561583 13.95776359557626 0 0 0
493 1 8.369196667318333 26.501101332768332 14.615725528334792 0 0 0
303 1 11.342539553513145 27.283292425633782 11.370969384922155 0 0 0
497 1 13.11970699321087 25.309896737140114 12.749241339240346 0 0 0
501 1 14.50357024030588 27.064249651929885 14.064085787731157 0 0 0
311 1 17.744293750077937 27.360649762362403 11.37547907066862 0 0 0
294 1 1.9123608131140606 30.058215393101648 11.360619493550555 0 0 0
484 1 3.4776404723514602 28.44865524035503 12.673488093593914 0 0 0
488 1 5.142954004526664 29.92312820893643 13.979849163665277 0 0 0
302 1 8.312934977893542 30.21971767574292 11.00715282416209 0 0 0
492 1 9.555696326840922 28.75088267718194 12.986196908286953 0 0 0
496 1 11.573876818369945 30.122776584145857 14.22835998387261 0 0 0
310 1 14.629042823459187 30.44480824614942 11.407728896701158 0 0 0
500 1 16.04535103016152 28.762690536807213 12.855412653248761 0 0 0
504 1 17.519732203128854 30.741176455173267 14.384945715674798 0 0 0
509 1 2.0759389451407637 33.34576333037466 14.475182928798231 0 0 0
319 1 5.008580642504865 33.273515458154066 11.135291276895215 0 0 0
513 1 6.723533669999405 31.635462625083186 12.68931493393315 0 0 0
517 1 8.07074485377374 33.47327229493889 14.067865635338642 0 0 0
327 1 11.562574285152198 33.482265197146106 11.249553293783668 0 0 0
521 1 13.068702128025892 31.775691697063557 12.929837312071284 0 0 0
525 1 14.546709395873831 33.510469897399894 14.278202179254592 0 0 0
335 1 17.651377878661684 33.54288406386606 11.268179256717787 0 0 0
735 1 11.231265476385646 39.72242824532316 23.88140123926009 0 0 0
318 1 1.8335026542777273 36.3079148702794 11.233559388283043 0 0 0
508 1 3.5410724608608874 34.804908535583834 12.713657642015212 0 0 0
326 1 8.115199224498646 36.27506023785725 10.914327976489087 0 0 0
516 1 9.690827159625337 34.93637742088985 12.560689204827492 0 0 0
520 1 11.072293793412264 36.72190450694645 14.062043173781678 0 0 0
334 1 14.523148927668924 36.5576472016634 11.321462847795674 0 0 0
524 1 16.056456488369527 35.07892397631663 12.703122097332642 0 0 0
528 1 17.540530737846943 36.62789897017876 14.370298410304242 0 0 0
731 1 9.333950265734519 38.15055976072593 22.416409373022326 0 0 0
343 1 4.58819809039658 39.376864699273874 11.737797359524565 0 0 0
537 1 6.4768150688558315 37.903054848601016 12.913580727057282 0 0 0
351 1 11.14516711142002 39.354456003578306 11.226885249729483 0 0 0
545 1 13.112257316925369 38.18320535181515 12.795574846072167 0 0 0
549 1 14.752330384286019 39.665458897205696 14.668543900155548 0 0 0
359 1 17.616161991635977 39.40980845518235 11.271976510540103 0 0 0
532 1 3.2337864827832687 41.19007958936793 13.384370321919576 0 0 0
342 1 1.982802589396357 42.71458012144793 11.278863755891756 0 0 0
536 1 5.165727729422218 42.73870811174971 14.61176272501623 0 0 0
350 1 8.585181932148076 42.895448812897754 11.271705946087707 0 0 0
540 1 9.646506332061826 41.03310352330446 12.787532294044244 0 0 0
544 1 11.086023770083607 42.72941487116959 14.446898102249348 0 0 0
358 1 14.292258221353634 42.411859412894515 11.370657898548135 0 0 0
548 1 16.025246868084103 41.026639589066036 12.943750491907064 0 0 0
552 1 17.455123975532533 43.334173135508244 14.380449469118487 0 0 0
561 1 6.633941091232092 44.16409672175412 12.84196748406649 0 0 0
367 1 4.994574739688115 45.58892612911605 11.335555586462243 0 0 0
375 1 11.19912999374725 45.83156068888121 11.26601018095121 0 0 0
565 1 8.012881641311816 45.76131800157804 14.385419644158853 0 0 0
569 1 12.708861747382175 44.22137689097802 12.893327137457643 0 0 0
573 1 14.005353884585762 46.106520819662585 14.545665003371985 0 0 0
383 1 17.41550995563058 45.916834634065204 11.662297507697915 0 0 0
2258 1 19.16529189347902 40.90297955732589 22.440927817262732 0 0 0
556 1 3.360436446692914 47.33612228981244 12.989087644666128 0 0 0
366 1 2.200883212248331 48.859345471321 11.10139585309069 0 0 0
374 1 8.090041263548178 48.81962536470972 11.229223006034916 0 0 0
564 1 9.767654124556172 47.213298377832636 12.881633505770385 0 0 0
401 1 12.571720810883118 50.439554596706905 13.099265597097157 0 -1 0
382 1 14.207026028068773 48.940359636977725 11.36480052518522 0 0 0
572 1 15.773301465889109 47.5303507554294 13.269838955508826 0 0 0
953 1 12.682730946056912 44.43197076413812 25.211665969023503 0 0 0
576 1 17.351881476226186 49.344096486619506 15.00013732946641 0 0 0
387 1 3.6200086568967853 0.41984326124470117 15.8281847688183 0 0 0