LAMMPS data file via write_data, version 29 Oct 2020, timestep = 100000

8510 atoms
1 atom types

0.2506102371392416 104.57633353448067 xlo xhi
-0.3623056489031491 50.68837594919465 ylo yhi
-0.3623056489031491 50.68837594919465 zlo zhi

Masses

1 18.015

Atoms # atomic

637 1 0.6069770744689698 2.3728145114131016 -0.14190965152154061 0 0 0
317 1 5.168393307012 0.3979359400940953 1.7830771173041051 0 0 0
214 1 6.74369068833721 2.0004554088794904 -0.08886764763844446 0 0 0
218 1 12.767393147061698 1.5733667570306913 -0.22093022122653488 0 0 0
319 1 11.05705480953223 0.36145637896635896 1.241762387022526 0 0 0
321 1 17.71027480481259 0.29427522122407956 1.3675718609311902 0 0 0
775 1 19.24222594399765 2.0805119404545285 -0.2667582527871274 0 0 0
940 1 24.077787279577784 0.599173615161384 1.0617645433092007 0 0 0
2445 1 22.569179166344174 30.672265466976913 24.775521488084102 0 0 0
943 1 31.5808811229618 1.98509450126459 -0.034435587626398756 0 0 0
1036 1 30.20639351387469 0.282567307677266 1.3709196907536971 0 0 0
325 1 2.004883208290942 3.8321500385836087 1.3833870851098267 0 0 0
221 1 3.48024546657136 5.26024959465872 -0.30837132692302516 0 0 0
329 1 8.03430577566714 4.075519596166102 1.3363208913162052 0 0 0
1680 1 12.797969317167821 33.70628818536828 24.738540373786464 0 0 0
331 1 14.0341775630871 3.3981602189339712 1.075735248501624 0 0 0
2460 1 28.88820513411605 36.36213591401777 25.16216601506656 0 0 0
945 1 22.04031041270182 5.506444226640415 -0.2947625914850987 0 0 0
946 1 20.94929054866953 3.6208602674440202 1.4718953637213787 0 0 0
1042 1 26.965165144603542 3.9667697260290167 1.1657534220071073 0 0 0
1044 1 33.30355402504217 3.556712909304541 1.269420462771975 0 0 0
39 1 0.553155791488436 7.978477192964956 -0.3574988675813884 0 0 0
336 1 5.035632176269716 6.671289351932436 1.1378276493225128 0 0 0
2423 1 34.83680971679359 17.858842525605525 24.835277879956507 0 0 0
337 1 11.631182873094849 6.891038580231313 1.0742285660570938 0 0 0
2443 1 31.920975057920845 27.46704197492068 25.008773769346682 0 0 0
233 1 17.52191935775903 7.014858188639201 1.1302829709976958 0 0 0
1686 1 9.613406608847253 36.64822397396087 25.117908200954563 0 0 0
1048 1 23.979589200791025 7.055364571052731 1.142015568412231 0 0 0
6836 1 0.6753143088433851 2.7086158446895157 18.520520481982462 2 -1 1
1615 1 9.85524207825647 5.454277261762403 24.863236892881154 0 0 0
953 1 30.276594157519 6.984125110445419 1.123829036220568 0 0 0
1705 1 9.74709409543174 50.095246443437944 25.081121578294564 0 -1 0
341 1 1.9677089291076737 10.224403696137347 1.29114372244233 0 0 0
234 1 3.779159016636862 11.720000380452879 -0.16815005207906245 0 0 0
2436 1 34.89805728109076 24.361028599774183 24.924586320834624 0 0 0
344 1 8.257181246467013 9.494531944038732 1.101421244614535 0 0 0
238 1 14.526804928533577 10.07923172123964 0.7639017583346088 0 0 0
2478 1 32.12899035461731 46.019143287238606 25.107891351568206 0 0 0
1629 1 9.529239011428473 11.695882023068595 24.648920294368384 0 0 0
1053 1 20.801860603366016 9.786405256649925 1.3880068270704757 0 0 0
1056 1 27.345665062770127 10.057547923166073 0.9365118075525585 0 0 0
2130 1 18.553344904240443 20.44596998360898 24.938865368930557 0 0 0
1058 1 33.36273580843269 10.112628164282901 1.0451824687949494 0 0 0
960 1 34.91946611358675 11.573210600845018 -0.2614679772669053 0 0 0
1700 1 9.75144122766517 43.02764554304973 24.732096275419188 0 0 0
351 1 5.742158262737187 12.649598815162587 1.417985975323996 0 0 0
2433 1 28.8417560156788 24.181913321330732 24.7892014011709 0 0 0
246 1 10.929204501575033 13.003849945085362 0.6859439152330278 0 0 0
2138 1 0.7810284831667316 20.98846012485523 24.873523147473254 0 0 0
247 1 17.851930001104027 13.449491847310442 1.0248328901272432 0 0 0
89 1 0.31522078258669156 8.406298554848116 5.799505620140045 0 0 0
964 1 24.168059918402683 12.91314767119365 0.9484001761626826 0 0 0
2474 1 22.229371760487435 50.03215202338389 24.591556078001748 0 -1 0
2475 1 25.437558195800676 46.1099677032219 25.026719604849333 0 0 0
1062 1 30.173944388525644 13.089995834588727 1.2169309000613395 0 0 0
356 1 2.429353596662338 15.478066840034089 0.7676019890578052 0 0 0
1658 1 15.979060588555708 24.10449227466949 25.073481165472252 0 0 0
359 1 8.306848081994987 16.12759453537517 1.0223903965094459 0 0 0
251 1 9.902658056553795 17.629537328773942 -0.14536226243794795 0 0 0
2438 1 25.292033864807564 27.24733047397405 24.798984232822896 0 0 0
361 1 14.669832473241275 16.11499777993885 0.7761845056810053 0 0 0
969 1 22.371172528490572 17.582193704772195 -0.24374131827214185 0 0 0
1066 1 20.8955254652727 15.968632091850555 0.9682957989867134 0 0 0
1698 1 6.602974201918885 46.391067941543355 24.926023505429704 0 0 0
1069 1 26.71726321002492 16.063664433256534 1.0053681723616796 0 0 0
1071 1 33.34959960264168 15.984917138857025 1.06421587705254 0 0 0
6784 1 0.40424477228190536 5.94395453529356 1.9733125905126765 1 1 0
98 1 0.5664503702435935 20.320106911630205 -0.20451297957319414 0 0 0
1617 1 16.166975265429954 5.540554908959541 24.682085656005704 0 0 0
257 1 5.437255270396198 18.919786079395276 1.2410792271423459 0 0 0
367 1 11.291830555605646 19.283179643587413 1.3333457138859883 0 0 0
261 1 13.042428434885412 20.72299725901634 0.04038887430625321 0 0 0
263 1 17.63365465066713 19.229702995594074 0.913478843032697 0 0 0
1518 1 0.34047732247637563 2.1165767224701426 25.085149515291207 0 0 0
971 1 23.954711955300933 19.251982344034 0.9691857836680009 0 0 0
2471 1 28.630460104196246 43.163212324628816 25.15464341695256 0 0 0
978 1 29.937243033317934 19.20396905869794 1.082745016515176 0 0 0
3209 1 0.28009273355729175 31.24107608206923 21.095781128452092 2 -1 3
255 1 2.1545793280223173 22.173278660718324 0.8590206980509214 0 0 0
1708 1 13.004157277147856 46.20477872895752 24.93075785492685 0 0 0
268 1 8.324398326385582 22.17834545769805 1.0222879491130799 0 0 0
267 1 9.921777347959047 23.81907035527925 -0.252225997205585 0 0 0
372 1 14.941145676522362 22.525533142077986 1.2274336519560727 0 0 0
2399 1 25.453062169181827 8.357355873548547 24.68443105684868 0 0 0
6343 1 0.4338118330481009 4.292944890034838 9.985276810820846 2 1 0
1075 1 21.09700532021823 22.371545924232944 1.3311850524414095 0 0 0
986 1 27.16241195125486 22.49839874810628 1.0165787737359477 0 0 0
2415 1 31.551925582923918 14.336791788448927 24.648008154347693 0 0 0
2425 1 25.208624848726007 21.127297754443227 24.74343699670871 0 0 0
1080 1 33.317629567618845 22.762247594638392 1.036389602555615 0 0 0
2467 1 22.323121578030662 43.05919566680204 25.002757953182073 0 0 0
266 1 5.28102910408653 25.32181835177188 1.1501419952501128 0 0 0
2450 1 25.45864270134155 33.51560423561196 24.8958458650492 0 0 0
379 1 11.335197705619436 25.949191883490144 1.239736709986281 0 0 0
276 1 13.00601882156852 27.573489926535228 -0.292236485200425 0 0 0
334 1 19.02899586767547 27.587366931750907 -0.2985878883106835 0 0 0
382 1 17.746321045679498 26.026662434810817 1.2442529957821191 0 0 0
1085 1 24.093748781932394 25.470343353501026 0.9312327495935615 0 0 0
6604 1 0.6646907776515578 44.86235074310238 13.395504983485452 1 0 -1
1088 1 30.343044018647518 25.866100059828582 0.9638420814664328 0 0 0
102 1 0.30976085712759965 27.530721835314107 11.961832726435437 0 0 0
2386 1 25.27658501209793 1.3334224719910126 24.815054808277672 0 0 0
383 1 1.8912176390382245 28.72817602710817 1.2293716712635474 0 0 0
386 1 8.301159220303953 28.889914672786386 0.8753876936740526 0 0 0
2132 1 19.04269584508702 39.97422550367888 24.738091285011777 0 0 0
389 1 14.626510863572673 29.1153346694394 1.27655002032293 0 0 0
7219 1 0.6480297398992156 4.494439727685626 16.1657057783784 1 1 -2
1089 1 20.652220110418018 28.999507906143837 1.0341860729454255 0 0 0
2448 1 28.330592477051795 30.09316487551328 25.149703248841433 0 0 0
1092 1 26.975145276377113 29.000266164868005 0.8805501393104338 0 0 0
1463 1 0.32561493978525513 33.438755316247025 24.97190239428958 0 0 0
1000 1 34.924332164117324 30.386364480757887 -0.34483996088273833 0 0 0
1096 1 33.327419743049894 28.597028680462138 1.2535345565460732 0 0 0
1693 1 12.972169813309534 40.16230353924789 24.823202386368695 0 0 0
393 1 4.991968871382628 31.948181772320044 1.0037136805603153 0 0 0
396 1 11.555554464145708 32.15723702229819 1.1181429230558118 0 0 0
2226 1 19.3909618285463 27.354588705074292 24.59660831381966 0 0 0
399 1 17.653269189327027 32.217944606397324 1.1367961455994486 0 0 0
1393 1 0.33706260804620863 8.341500331050712 24.70747014363299 0 0 0
1004 1 25.307759629323144 34.03514119263433 -0.3262632027398681 0 0 0
1099 1 23.67192549320567 32.27666469525039 1.3885628880635765 0 0 0
1102 1 29.965372273192642 32.16348800948765 0.8799948897558516 0 0 0
1612 1 3.6629419419175684 5.330219732690199 24.658532351111464 0 0 0
401 1 1.812244069115621 34.98702211151618 1.102125610033742 0 0 0
1654 1 9.757119061737335 24.266384715742024 25.02338493117015 0 0 0
403 1 8.103134075190933 34.954119395430126 0.7824269942806212 0 0 0
2412 1 25.701930633263625 14.6191912540503 24.741491476038195 0 0 0
406 1 14.520461989150151 35.23711993303748 1.1901577186798555 0 0 0
1709 1 15.995258472828182 50.41644602872364 24.957717067946653 0 -1 0
1009 1 22.007822818932773 36.84712854625474 -0.22212328810792414 0 0 0
1001 1 20.802074226672016 34.7337841583406 1.177211478824918 0 0 0
1107 1 26.86071664399843 35.63534946468066 0.9381717219930676 0 0 0
1665 1 12.72146117951557 27.072898450490325 24.929383255855523 0 0 0
1007 1 33.19510791020619 35.01297283957902 1.2099875636866437 0 0 0
451 1 0.4218241971197967 39.727206866728636 -0.25779112757095773 0 0 0
296 1 6.421322893574083 39.350822831478865 0.09649162786677135 0 0 0
410 1 4.570971077837122 38.06046343306309 1.607101547426588 0 0 0
2392 1 22.49225760993195 5.5618552425132695 24.783489170243413 0 0 0
412 1 11.13753640352407 38.03802194162331 1.0954417036951731 0 0 0
415 1 17.61800176288142 38.09345540306681 1.1405989568076405 0 0 0
744 1 18.979463968675887 40.06045901186728 -0.2503561193146784 0 0 0
1014 1 25.074540176434667 39.81069005523494 -0.09540850210110247 0 0 0
1113 1 23.483072138402516 38.2514808268849 1.4596629796363576 0 0 0
1012 1 30.17198901300142 38.448901687686075 0.8937325176002651 0 0 0
2391 1 34.8396033332375 50.23463622387281 25.13165739948551 0 -1 0
1690 1 6.528532616647703 39.882605006911476 24.696751779223995 0 0 0
417 1 1.9617625087992103 41.4030636936387 1.1474962818326762 0 0 0
419 1 8.573804615470808 41.584197091398536 1.1403279963760011 0 0 0
1647 1 6.4388986738462 21.147961121984103 24.779788496396556 0 0 0
307 1 15.555899086064642 43.11068071419153 -0.13960046112004482 0 0 0
422 1 14.28923336793057 41.09989994499722 1.23942476774312 0 0 0
1119 1 20.740424740002936 41.561069051224976 1.2212140483942193 0 0 0
1437 1 0.3147380184725464 20.98621097420728 17.986101442597707 0 0 0
1631 1 15.795554178535191 11.689538412318923 24.716861512866487 0 0 0
1122 1 26.712965946246904 41.447448826749635 1.345632478801313 0 0 0
2466 1 19.293673071081454 2.5930580578137543 25.076106179870013 0 0 0
1124 1 33.22505238050523 41.58021191087006 1.4971147409064143 0 0 0
1688 1 15.705991488266406 36.67610138034614 24.75766893441764 0 0 0
426 1 4.977942470541416 44.281616385816335 1.2042710824569958 0 0 0
1671 1 9.793222646272442 30.154957492859314 25.029359561859533 0 0 0
2457 1 22.527776051482586 36.46017614977637 24.791526392195323 0 0 0
427 1 11.191578262014751 44.524606047937084 1.13462389533051 0 0 0
729 1 19.0939508813385 45.784141664530196 -0.13450652115650133 0 0 0
431 1 17.417056067098503 44.61000479388825 1.5314911994896858 0 0 0
1027 1 25.271472615408562 45.983902028610714 -0.3606689387467298 0 0 0
1127 1 23.95160508147817 44.53078879399776 1.181056660474654 0 0 0
1030 1 31.77661662298126 45.922176868575875 -0.36097543976529783 0 0 0
1129 1 30.32457755172341 44.295719858683 1.017399942026868 0 0 0
434 1 2.180162298645849 47.556822076754514 0.9697686498697704 0 0 0
213 1 3.7017149643675578 50.11552650629379 -0.0919144750219642 0 -1 0
2151 1 18.935567379726987 45.98515027060334 24.650394692897247 0 0 0
435 1 8.07793929487228 47.517043838674795 1.0977828813715986 0 0 0
220 1 15.967315876321278 49.15196713904899 -0.14838146530982607 0 -1 0
438 1 14.203876434984931 47.63795480887619 1.2335588219528324 0 0 0
1025 1 22.280828054429243 49.97091745903779 -0.26313696184367014 0 -1 0
1026 1 20.899271845304053 47.5410297926461 1.33976123971157 0 0 0
1029 1 28.579828530519922 49.19619640296065 -0.30905265220669653 0 -1 0
1134 1 26.90192972379005 47.72003143102387 1.1990516687719197 0 0 0
2454 1 31.92839127010132 33.3654767003777 24.565041800258296 0 0 0
1136 1 33.24987769291419 47.436208822736916 1.3737524766511529 0 0 0
316 1 1.6527154551651178 0.16090401801618737 4.298612643506852 0 0 0
324 1 3.4286830626178095 1.7977865244032256 2.961172165660472 0 0 0
445 1 7.90632486238795 0.4587802846367175 4.062842056790723 0 0 0
328 1 9.441758386994804 2.0685372859215754 2.6794035740320825 0 0 0
320 1 14.319656002330397 0.47015062435946753 4.335831196565035 0 0 0
322 1 15.773559484141408 1.9720439000002168 2.6397812740086763 0 0 0
1032 1 20.846012336290404 0.44176253376973373 4.210900280420346 0 0 0
1033 1 22.555484937191014 2.0820834343127688 2.7768848067390537 0 0 0
1035 1 27.02452886717155 0.651296003901676 4.024448315920004 0 0 0
1037 1 28.718905910848438 2.4327783211466034 2.8595891618010083 0 0 0
1142 1 33.33766763896708 0.6849997228556848 4.3204832952442835 0 0 0
1039 1 34.80340069984154 2.3383061010132016 2.978586158873717 0 0 0
2394 1 28.001109008863875 4.894456537856883 24.465883573356713 0 0 0
327 1 4.889051478838929 3.668918268900982 4.296876501510002 0 0 0
326 1 6.566963813973951 5.315906747296491 2.8959807373485993 0 0 0
332 1 12.541503279937029 5.01408508631155 2.860637160544208 0 0 0
330 1 10.908506046467235 3.7012281205531607 4.361737640195318 0 0 0
333 1 17.403086761046254 3.7207125802343537 3.8986681003589876 0 0 0
731 1 19.024372480485326 5.1800155591102435 2.4402566080057526 0 0 0
1041 1 24.070723612587862 3.9633667590246056 4.42575402387576 0 0 0
1040 1 25.447215448279866 5.583694315346666 2.9810145265320727 0 0 0
1043 1 30.36464939883502 4.074484150450691 4.460608137405576 0 0 0
1045 1 31.952251977424478 5.473430727511359 2.6656267818478185 0 0 0
458 1 1.7119679066873488 6.92015554526577 4.206255798775411 0 0 0
335 1 3.387829523042638 8.504160262415272 2.74973986497485 0 0 0
338 1 9.67859649856803 8.270248966665838 2.8303862428852944 0 0 0
461 1 8.178256736655158 6.641363172860863 4.440013750514311 0 0 0
339 1 14.1820327997439 6.967593857569479 4.161522465180284 0 0 0
340 1 15.735160755111 8.540536927753264 2.766171466095323 0 0 0
1047 1 20.37130785839464 6.845186050320275 4.160966981698822 0 0 0
1046 1 22.216968622493756 8.315891682952389 2.937726760066086 0 0 0
1050 1 27.29654985936641 7.148287320836293 4.334755115679773 0 0 0
1049 1 28.903179008109976 8.516509467414298 2.780255400626765 0 0 0
1051 1 33.44695958152055 6.971339739470886 4.324141611177763 0 0 0
1052 1 34.91796006689757 8.61539585866505 2.8143138049194873 0 0 0
2306 1 31.833146830429033 50.14806303247795 21.93530694949555 0 -1 0
343 1 4.629606722766309 9.720658338801035 4.744006348224038 0 0 0
342 1 6.83131825340818 10.67677225154171 3.3860362059537894 0 0 0
345 1 11.12564465005137 9.960642799033524 4.225228506690351 0 0 0
346 1 12.716761842309651 11.421823275142076 2.2290253269742695 0 0 0
347 1 17.52724826978798 9.958276161639226 4.193589746271045 0 0 0
821 1 19.409217771034992 11.433080601806761 2.8051589603134865 0 0 0
1055 1 24.25945493760472 9.596882629144995 4.053207632348934 0 0 0
1054 1 25.650116106318894 11.245378120845748 2.414538371239079 0 0 0
1057 1 30.567662013360472 9.846433134414372 4.321893445653747 0 0 0
350 1 1.7999742605454012 13.293189352703013 4.159866985136052 0 0 0
349 1 3.864932371061005 14.373882082015733 2.626679504634338 0 0 0
352 1 9.32153216153235 14.496789379617987 2.7585790411592805 0 0 0
353 1 8.060165556952203 12.843056194873242 4.5462510516556724 0 0 0
354 1 14.41921275340776 12.968602881562939 3.9688259392935104 0 0 0
355 1 16.258657413417435 14.793832682270276 2.7045171228983453 0 0 0
1061 1 21.046512083837143 12.88829344103346 4.0346913414118974 0 0 0
1060 1 22.629323388697966 14.48639371405151 2.514686056467195 0 0 0
1063 1 28.273680224466503 14.507976509934098 2.763401909294789 0 0 0
1064 1 27.16766473741468 12.807966421096811 4.377783627742134 0 0 0
1059 1 32.078867781420485 12.037715888864298 2.876234518166109 0 0 0
1065 1 34.81123653287178 14.60047871639262 3.0297439055807 0 0 0
1163 1 33.753084082474174 13.355041242225427 4.790470175834697 0 0 0
515 1 0.36835231574255 17.24422173716451 2.385795149012712 0 0 0
358 1 5.17350281755946 16.244297800257375 4.33389338421314 0 0 0
357 1 6.769487882443209 17.306208344582803 2.801979552698497 0 0 0
360 1 11.061956603684747 16.185931504838223 4.087126116759458 0 0 0
362 1 12.916559411172749 17.54275951826477 2.861799049964723 0 0 0
348 1 19.183338390012025 17.581368832047698 2.4874799397251346 0 0 0
363 1 17.72836023793831 16.076542088167983 4.386460475458533 0 0 0
1068 1 24.22215520550835 15.729280309286576 4.029973356749295 0 0 0
1067 1 25.52777456886363 17.87946018013422 2.6273227676900697 0 0 0
1070 1 29.86614700968035 15.88980157699411 4.188021689728673 0 0 0
1072 1 31.46071886168925 17.792582151490155 2.54404003727166 0 0 0
365 1 1.7297708415416748 18.873934066001812 4.2596068358702714 0 0 0
366 1 3.466360491332153 20.113175202906614 2.194667241681135 0 0 0
368 1 8.281908906772994 18.942331835703328 4.092108216190342 0 0 0
369 1 9.80819909168314 20.898133049435415 3.116527878112534 0 0 0
371 1 14.47211309879459 19.34607017395248 4.501915723306131 0 0 0
373 1 16.321543282291138 20.764958390658226 2.8698239724483003 0 0 0
1074 1 21.07384903341488 18.955056917861832 4.068862382816421 0 0 0
1073 1 22.470821668403584 20.454325039607816 2.536895233449395 0 0 0
1078 1 26.949397554308913 19.30313981315331 4.137402909527713 0 0 0
1077 1 28.81871251648232 21.014653349040394 2.8030007590170456 0 0 0
1175 1 33.48361398086297 19.930706448624743 4.101704926925507 0 0 0
1081 1 34.768033493465964 21.373139377133153 2.723690327619757 0 0 0
116 1 0.36921277051073065 23.65303591563516 2.728174661951297 0 0 0
377 1 4.715041157926178 21.675189488419274 3.8303167651768897 0 0 0
376 1 6.738558007932563 23.68176212768273 2.6882381411707015 0 0 0
370 1 11.433896323510027 22.556897405479276 4.503700158468779 0 0 0
380 1 13.114966078787768 23.972908076081957 2.6200258032512322 0 0 0
374 1 17.72242134684997 22.627077208470613 4.362239067047755 0 0 0
968 1 19.305228845677657 24.13415292392263 2.50512009952832 0 0 0
1084 1 25.51378727069248 23.895570217234113 2.465795386844377 0 0 0
1076 1 24.12242930612912 22.502571577659005 4.147156762239722 0 0 0
1087 1 31.84352556559223 23.998359665743198 2.5196984209948368 0 0 0
1079 1 30.24186891224564 22.51935112468835 4.185696877899904 0 0 0
375 1 1.835449937323124 25.69366432757005 3.8809866022507595 0 0 0
384 1 3.4587881281461827 27.116260238770792 2.5441616906444398 0 0 0
387 1 9.545739384696523 27.418929993771535 2.8573281632954095 0 0 0
378 1 8.35750325025955 25.165856032427723 4.48924164333667 0 0 0
381 1 14.500854647839612 25.72982853465752 3.9367945627869245 0 0 0
390 1 16.044891876323113 27.43075513452492 2.7263525019000454 0 0 0
1083 1 20.772113585085666 26.13822468139213 3.8955780551195485 0 0 0
1090 1 22.642199575701095 27.639364140475887 2.3363905392990376 0 0 0
1086 1 26.826527978748505 25.771333561040297 4.177481996740603 0 0 0
1093 1 28.52226166112938 27.496809846244094 2.7173944587435686 0 0 0
1095 1 33.09712212831636 25.560888637873234 4.337275165427183 0 0 0
1097 1 34.86547640120225 27.317759262306872 3.0528568100541484 0 0 0
665 1 0.4168069251615533 30.41147982085215 2.7134352619589883 0 0 0
385 1 5.126538892518853 28.592891139132245 3.8524346561030587 0 0 0
394 1 6.7094317798424505 30.307731603831872 2.560011693999793 0 0 0
388 1 11.566873538932043 28.79283170523305 4.101309178736624 0 0 0
397 1 13.06388656657809 30.44816590491989 2.800886083259813 0 0 0
537 1 19.00855149720337 30.360864576208566 2.481998839736826 0 0 0
391 1 17.521430846725146 29.412136621495033 4.2581240780676275 0 0 0
1091 1 24.131953029963388 29.09513822208467 4.363140886590358 0 0 0
1100 1 25.552885170243325 30.780622360749724 2.785347543147932 0 0 0
1094 1 30.2512285735189 29.008583870779027 4.2539247232074775 0 0 0
1103 1 31.575893200595612 30.563667496467627 2.7275451152798613 0 0 0
392 1 2.055035172164223 32.02053538128796 4.348493355837313 0 0 0
402 1 3.5223129511170024 33.481816085674254 2.584390028305307 0 0 0
404 1 9.681067985174364 33.613477379311334 2.4311977175994253 0 0 0
395 1 8.058614644270257 32.148230958730096 3.9405799423059884 0 0 0
398 1 14.544056938749826 32.18548300090848 4.151224319543033 0 0 0
407 1 16.056013587675903 33.75623255554517 2.5738390645624727 0 0 0
1098 1 20.627264426844462 32.156977994884514 3.9222247817382483 0 0 0
1105 1 22.390798250188652 34.17966788151615 3.0231460576074087 0 0 0
1108 1 28.360596150721864 33.64354140776237 2.4872967527976053 0 0 0
1101 1 26.93022357082015 32.39849783553514 4.334595337820384 0 0 0
1110 1 34.68311303807033 33.355894367635926 3.1249182461072356 0 0 0
1104 1 33.1539920454269 31.652103972136334 4.527524062033786 0 0 0
106 1 0.5372145842504183 36.722581096894245 3.0784032143873836 0 0 0
411 1 6.462352099234167 36.58449662110311 2.7846057062855807 0 0 0
510 1 5.116717766172567 34.93969376893318 4.444211384117971 0 0 0
405 1 11.06455643340923 35.40161763340845 3.9347489594154634 0 0 0
413 1 13.107505499695163 36.86505713229094 2.6664271204449603 0 0 0
408 1 17.542259820670026 35.307474516952354 4.2434553359631515 0 0 0
816 1 19.406221525581834 36.690224555238515 2.860955242147987 0 0 0
1106 1 23.649210759242596 36.139227470964016 4.366449622413652 0 0 0
1114 1 25.74505478974282 37.291816168215604 2.595659571603867 0 0 0
1116 1 31.509224353788316 36.70169436009415 2.5517644254310214 0 0 0
1109 1 30.22837431883282 34.969017123428614 4.291233649188966 0 0 0
416 1 3.214577251551441 39.87633201306217 3.256084314679609 0 0 0
516 1 1.8903565523497683 38.20723932306156 4.745442218376533 0 0 0
420 1 9.63668229286036 39.71912620820808 2.658372797921144 0 0 0
518 1 8.056470598437127 38.147938231420184 4.511192686674088 0 0 0
423 1 16.024758291252056 39.712652813824945 2.814819625416917 0 0 0
414 1 14.749978859138519 38.34947999655175 4.542137316298426 0 0 0
1112 1 20.602475760174652 38.62023856643374 4.3580229178982846 0 0 0
1120 1 22.391178185419534 39.90846639040235 2.9667771317311336 0 0 0
1123 1 28.601669307612145 39.914442217102476 2.794896139807287 0 0 0
1115 1 27.24639720204699 38.56646506436043 4.510914785799521 0 0 0
1125 1 34.83159202907412 39.921398305232714 2.8530992494676686 0 0 0
1117 1 33.249680784227365 38.004584314869234 4.176328725400925 0 0 0
1640 1 3.5831197260157532 18.23524357673394 24.480464294883113 0 0 0
418 1 5.149345947387824 41.42722699591593 4.485273040346018 0 0 0
425 1 6.619708079869848 42.854701701392585 2.7128876553427705 0 0 0
429 1 12.70351954963194 42.91206570171957 2.7643224750003874 0 0 0
421 1 11.078306504280024 41.41792015442772 4.320167133666067 0 0 0
424 1 17.456728063208914 42.02356349913124 4.253621251131602 0 0 0
850 1 19.344283672418797 43.17661183616329 2.9538673774191246 0 0 0
1128 1 25.43372111689963 43.303970439094954 3.228996681339821 0 0 0
1121 1 24.14184525607302 41.21640747163583 4.608944889467882 0 0 0
1208 1 30.405815222095686 41.48758120268219 4.073223107840097 0 0 0
1130 1 31.83886533698605 43.36857892318753 2.8656467201728004 0 0 0
433 1 3.3414125711697005 46.031369616190034 2.8602231303468675 0 0 0
530 1 1.8443369739837108 44.46103935700049 4.556587027036527 0 0 0
428 1 8.000666747404509 44.454260558529526 4.258598700160187 0 0 0
436 1 9.758007388483481 45.908365948034046 2.7526117293606793 0 0 0
439 1 15.772444160024998 46.225882340512044 3.141385328461785 0 0 0
430 1 14.001909138768337 44.79996859043965 4.419078582867209 0 0 0
1132 1 22.3990374287138 45.870042525976885 2.8589605546584504 0 0 0
1126 1 20.992113336974914 44.302480491561525 4.530766350448062 0 0 0
1215 1 27.51046182280479 44.706792469205084 4.331647696751087 0 0 0
1135 1 29.315030282304026 46.22092631034181 2.4048272327628566 0 0 0
1131 1 33.6984555747296 44.78299409738288 4.408620930039981 0 0 0
41 1 0.3544164495955658 48.91572102985957 2.6518478009364537 0 -1 0
540 1 4.815426226979229 47.59372748659378 4.248222845300952 0 0 0
318 1 6.607667478760123 48.702767080842534 2.705975441098511 0 -1 0
437 1 12.566177903597422 49.139343881697386 2.9705623312447713 0 -1 0
541 1 10.702297454612962 47.82497341797729 4.686287776486716 0 0 0
441 1 17.35333446566247 48.04228253851217 4.874216041721223 0 0 0
917 1 19.28817247362211 49.077617722461014 2.5281911294007116 0 -1 0
1034 1 25.385716354534402 50.252960691086 2.7042662761971292 0 -1 0
1133 1 23.983649886351788 47.81853049823887 4.433232657265142 0 0 0
1220 1 30.315438388784305 48.13377199517629 4.325766199653341 0 0 0
1038 1 31.973450036642575 49.31030596896471 2.7678281992828224 0 -1 0
444 1 6.583184913636505 2.055743514034326 6.194834650847216 0 0 0
443 1 5.045117637789067 0.7005071476278275 7.659440831040579 0 0 0
446 1 9.352967272461472 50.514368980283834 5.9887164663027415 0 -1 0
447 1 11.212811606946406 0.9059078369622642 7.371471384751859 0 0 0
448 1 12.80523774406267 2.130023469257327 5.738600261156618 0 0 0
545 1 15.914049157865188 50.353613524562775 6.268372508656753 0 -1 0
449 1 17.632621483374646 1.0763338240242075 7.226881066937343 0 0 0
732 1 19.155427499108267 2.250512449107971 5.402380143971661 0 0 0
1138 1 23.94627838884497 0.35186542145057353 7.602255223782349 0 0 0
1139 1 25.588470402659123 2.317354169809224 6.186215929698542 0 0 0
1140 1 30.17315350668615 0.7162976020157978 7.484023322375427 0 0 0
1143 1 31.90291947721302 2.347243921564931 6.128062742803356 0 0 0
142 1 0.44100317079499285 2.5223182393266463 5.96597028049197 0 0 0
453 1 3.0175072640458644 5.3861420017484845 6.020183582458758 0 0 0
452 1 1.6915272503575571 3.9266330114850616 7.78227764582034 0 0 0
455 1 9.645296772840215 5.24345416020675 6.291495280782969 0 0 0
454 1 8.016936710121911 3.566005410932803 7.602478396832497 0 0 0
456 1 14.3196793367629 3.736520916774036 7.109839844692856 0 0 0
457 1 16.040158680199887 5.15693054096501 5.6193909701334075 0 0 0
1144 1 20.76964100011424 3.8798067504270035 7.210148163073049 0 0 0
1145 1 22.437099346619338 5.408916591338163 5.738120705131013 0 0 0
1147 1 28.715870604255617 5.2674551506149445 5.866615306253 0 0 0
1146 1 27.273622849312115 3.648450771623172 8.001945305807066 0 0 0
1148 1 33.56095692485667 3.9429872420233227 7.58126215622028 0 0 0
1661 1 6.538688487533438 26.94036029286488 24.738134161690162 0 0 0
459 1 6.450573105360378 8.066561275405164 5.925615331270716 0 0 0
460 1 4.830950642305291 6.853811436028192 7.624561004462616 0 0 0
463 1 12.699201568152889 8.093892269455289 5.890524536183539 0 0 0
462 1 11.218253444734179 6.598798383231502 7.7639166729608355 0 0 0
464 1 17.507185576860774 6.548062458502503 7.139448138542117 0 0 0
727 1 19.104375732647537 8.557700418236792 5.838035481938937 0 0 0
1150 1 23.861789869894945 6.959559319397712 7.3673506633549355 0 0 0
1151 1 25.74201339719682 8.445155113518327 6.004585082725678 0 0 0
1152 1 30.405649915570287 7.06415255056214 7.67078661912158 0 0 0
1149 1 35.001766336163364 5.790081821058392 6.0931476707009224 0 0 0
1153 1 32.05638798066276 8.380404056017216 5.986877264123362 0 0 0
466 1 1.6526065680988142 9.85765329946854 7.416397496821974 0 0 0
467 1 3.158021284989175 11.392246775225184 5.869060532841267 0 0 0
468 1 8.015007811196122 9.71327839011206 7.359676309595789 0 0 0
469 1 9.444466656185575 11.486549719720598 5.886754478851156 0 0 0
470 1 14.583691786961658 9.8734307970252 7.25885958657039 0 0 0
471 1 15.724202586644898 11.447969154454798 5.428167359389322 0 0 0
1154 1 20.627549378008315 10.245131995416058 7.221433917428498 0 0 0
1155 1 22.648026639174027 11.26063849406248 5.767687641549017 0 0 0
1156 1 27.283062164685067 10.111353562022746 7.400767369780715 0 0 0
1157 1 28.865521673124043 11.646857088145575 6.07431364193821 0 0 0
1158 1 33.7427086425965 9.71251976722646 7.666881357797884 0 0 0
473 1 6.328731362773355 14.193428773867309 5.99238870106169 0 0 0
472 1 4.671627864332442 12.921150283336816 7.718719145509558 0 0 0
475 1 12.849997946163725 14.312620120437721 5.729736867733225 0 0 0
474 1 11.343769213809162 12.994920189202531 7.36733834027258 0 0 0
476 1 17.35524283500253 12.989275016922084 6.961562612717034 0 0 0
1342 1 19.63571992505746 14.524632294039813 5.3800071701433065 0 0 0
1160 1 23.912587510583748 13.080398876342858 7.162493393307363 0 0 0
1161 1 25.669798304705488 14.464482292972495 5.9554397358309625 0 0 0
1162 1 30.502377966971704 13.295734616517382 7.678390020261109 0 0 0
1164 1 31.89193157886446 14.822827660056493 6.046682469834697 0 0 0
477 1 3.2884067349518302 17.510558984025398 6.18914048774606 0 0 0
478 1 1.645072848179582 16.05648062730848 7.587160075759585 0 0 0
480 1 9.673558986482803 17.35928582583318 5.810710104345171 0 0 0
479 1 7.8733130966348925 16.038886591856624 7.4836557319909165 0 0 0
482 1 15.855292311609103 17.525648014735154 5.8583363511230395 0 0 0
481 1 14.340949884057755 15.98896078353285 7.509103608337374 0 0 0
1165 1 21.04614589539279 16.043920943686675 7.004950376824418 0 0 0
848 1 19.66478221440713 18.021632917004506 8.488105493895551 0 0 0
1166 1 22.64769538706448 17.483287610165338 5.474058486861978 0 0 0
1169 1 27.130642889758096 16.196811910123536 7.031396425857053 0 0 0
1168 1 28.783559601102844 17.684697431892264 5.350833925576388 0 0 0
1171 1 35.010054399216095 17.94853947123746 5.634556763018083 0 0 0
1170 1 33.59080327349826 16.145688524091153 7.268940906856006 0 0 0
1651 1 12.902001204007911 21.64137286319608 24.526620518016205 0 0 0
486 1 6.313476104394653 20.323088401109313 5.582327629897715 0 0 0
485 1 4.880374915149871 18.74855324219074 7.497719309753212 0 0 0