
# Set production fixes - Nose/Hoover
#
fix                 2 all nph iso ${PRES} ${PRES} ${PCOUPL}
fix                 2 all nph iso -1000 ${PRES} ${PCOUPL}
fix                 2 all nph iso -1000 -1000 ${PCOUPL}
fix                 2 all nph iso -1000 -1000 10000.0
fix                 3 all temp/csvr ${TEMP} ${TEMP} ${TCOUPL} 837492
fix                 3 all temp/csvr 278 ${TEMP} ${TCOUPL} 837492
fix                 3 all temp/csvr 278 278 ${TCOUPL} 837492
fix                 3 all temp/csvr 278 278 5000.0 837492

# Define Order parameter
#
compute             2 all orientorder/atom nnn NULL cutoff 3.5
thermo              200
thermo_style        custom step temp press vol etotal ke pe c_1[4]

# Run 1ns simulation
dump		    1 all custom 400 prod.${NAME}.dump id type x y z vx vy vz c_2[*]
dump		    1 all custom 400 prod.ice_278K_-1000atm_mW.dump id type x y z vx vy vz c_2[*]
run                 200000
Neighbor list info ...
  update every 1 steps, delay 0 steps, check yes
  max neighbors/atom: 2000, page size: 100000
  master list distance cutoff = 6.3065
  ghost atom cutoff = 6.3065
  binsize = 3.15325, bins = 18 16 16
  2 neighbor lists, perpetual/occasional/extra = 1 1 0
  (1) pair sw, perpetual
      attributes: full, newton on
      pair build: full/bin/atomonly
      stencil: full/bin/3d
      bin: standard
  (2) compute orientorder/atom, occasional, copy from (1)
      attributes: full, newton on
      pair build: copy
      stencil: none
      bin: none
Per MPI rank memory allocation (min/avg/max) = 5.839 | 5.840 | 5.841 Mbytes
Step Temp Press Volume TotEng KinEng PotEng c_1[4] 
       0    276.47327   -991.46265    142815.53   -48889.854    3796.6946   -52686.549   0.29199612 
     200    280.81706   -1008.3805    142834.59   -48881.136     3856.346   -52737.482   0.26581771 
     400    278.26903   -991.31849    142862.03   -48875.184     3821.355   -52696.539    0.2872143 
     600    276.87196   -1014.0095    142883.82   -48911.706    3802.1696   -52713.876   0.26422123 
     800    276.68127   -991.26842    142847.85   -48925.907     3799.551   -52725.458   0.27375999 
    1000    279.33096   -992.04509    142767.04   -48940.164    3835.9381   -52776.102   0.28962573 
    1200    275.39653   -968.06326    142726.94   -48964.772    3781.9082    -52746.68   0.27387416 
    1400    275.57101   -1033.5744    142753.61   -48955.519    3784.3042   -52739.823   0.29517609 
    1600    275.92188   -994.89783    142752.24   -48958.438    3789.1226   -52747.561   0.28177395 
    1800    276.44987    -1039.815    142722.29   -48964.256    3796.3732   -52760.629   0.28298886 
    2000    279.44996   -928.66404    142745.41   -48920.813    3837.5723   -52758.385   0.27532583 
    2200    275.95618   -1018.4375    142821.16   -48888.826    3789.5936   -52678.419   0.28071301 
    2400    277.36712   -1039.8359     142865.5   -48906.028    3808.9694   -52714.998   0.28725064 
    2600    273.46345   -998.61558    142825.25   -48949.122     3755.362   -52704.484   0.27041537 
    2800    276.30001   -952.59221    142744.51   -48966.902    3794.3153   -52761.217   0.29596543 
    3000    277.14955   -969.35899    142740.68   -48977.845    3805.9817   -52783.827   0.28330371 
    3200    279.32303   -1016.0506    142842.59   -48923.801    3835.8292   -52759.631   0.26617729 
    3400    274.03752   -1052.8763    142932.84   -48959.134    3763.2454    -52722.38     0.286274 
    3600    277.46948   -1024.6246    142807.55   -48988.975    3810.3752    -52799.35   0.26566483 
    3800    280.53456   -883.86268    142596.65   -48921.714    3852.4667   -52774.181    0.2910824 
    4000    283.71385   -908.68419    142683.61   -48915.861    3896.1265   -52811.988   0.28520395 
    4200    277.62986   -1097.4608    142992.52    -48926.58    3812.5776   -52739.158   0.27287733 
    4400    278.42106   -1082.4529    143018.58   -48914.421    3823.4427   -52737.864   0.26957529 
    4600    274.99039   -962.14495    142713.64   -48898.818    3776.3308   -52675.149   0.27556242 
    4800    279.88181   -857.22211    142578.71   -48892.912    3843.5027   -52736.415   0.29498505 
    5000    277.48109    -1006.331    142850.77   -48870.302    3810.5345   -52680.837    0.2740707 
    5200    277.92245   -1184.8525     143149.9   -48867.706    3816.5956   -52684.301   0.27105746 
    5400    279.98408    -1074.124    142964.95   -48832.547    3844.9071   -52677.454   0.28332265 
    5600    273.39282   -838.33479    142598.92   -48822.013    3754.3921   -52576.405   0.28157119 
    5800    281.86866   -860.60586     142671.1    -48812.55    3870.7873   -52683.337   0.28981625 
    6000    282.77663     -1072.44    143124.97   -48793.006    3883.2561   -52676.262   0.25756171 
    6200    281.46353   -1172.2435    143235.99   -48783.527    3865.2238   -52648.751   0.26879811 
    6400    277.85124   -949.49196    142779.16   -48760.006    3815.6177   -52575.624   0.29205543 
    6600    282.23154   -774.51096    142535.62   -48802.159    3875.7706   -52677.929   0.27638765 
    6800    280.10017   -995.47395    142888.38   -48836.133    3846.5014   -52682.634   0.28438381 
    7000    278.02617   -1174.9754    143244.71   -48833.624    3818.0199   -52651.644   0.25270533 
    7200    280.62801   -1076.7133    143065.38   -48785.842    3853.7499   -52639.592   0.26926462 
    7400    282.18677   -851.52613     142660.7   -48777.709    3875.1557   -52652.865   0.28897212 
    7600    279.19843   -872.22415    142674.51   -48811.112    3834.1181    -52645.23   0.27804475 
    7800    280.52956   -1116.1679    143074.17   -48832.997    3852.3979   -52685.395   0.27528777 
    8000    280.50875   -1142.0135    143205.25   -48797.216    3852.1122   -52649.328   0.25571408 
    8200    275.75715   -960.76685    142836.13   -48837.131    3786.8604   -52623.992   0.29035373 
    8400    278.61213   -839.54912    142553.28   -48866.675    3826.0666   -52692.742   0.29121124 
    8600    276.62128   -955.43819    142786.48   -48825.135    3798.7272   -52623.862    0.2768912 
    8800    283.59325    -1162.187    143201.08   -48751.995    3894.4704   -52646.465   0.27626703 
    9000    280.06052   -1158.1458    143175.18   -48730.714    3845.9569   -52576.671   0.26013912 
    9200    282.95881   -887.10879    142693.11   -48723.928    3885.7579   -52609.686   0.29797017 
    9400    282.18752   -817.49803    142504.59   -48774.042    3875.1661   -52649.208   0.29192342 
    9600    284.08359   -1036.3134     142936.5   -48758.352    3901.2041   -52659.556   0.27269106 
    9800    280.94735   -1243.3476    143340.53   -48765.706    3858.1353   -52623.841   0.26373136 
   10000    285.28574   -1057.2053    143033.41   -48765.895    3917.7127   -52683.607   0.25973059 
   10200    282.18348   -765.63936    142460.12   -48767.121    3875.1105   -52642.232   0.31453327 
   10400    279.90441   -827.46522    142549.28   -48753.971     3843.813   -52597.784   0.29047689 
   10600     283.3682   -1146.0861    143232.01   -48727.369    3891.3799   -52618.749   0.26192011 
   10800    278.29216   -1286.6969    143445.87   -48753.126    3821.6726   -52574.799   0.26148317 
   11000    282.71245   -879.94582    142774.36   -48803.901    3882.3747   -52686.276   0.26663321 
   11200    272.81668   -667.50261    142262.43   -48825.386    3746.4802   -52571.866   0.31854282 
   11400    278.29573   -936.15467    142727.94   -48847.399    3821.7217   -52669.121   0.28455241 
   11600    278.09082   -1335.9985    143468.44   -48807.656    3818.9077   -52626.564   0.25745343 
   11800    277.23978   -1166.9182     143292.6   -48879.033    3807.2208   -52686.253   0.26322914 
   12000    281.98544   -779.32003    142452.38   -48892.437     3872.391   -52764.828   0.28442455 
   12200     275.4416   -675.27496    142270.49   -48874.819    3782.5271   -52657.346   0.30528612 
   12400    279.59084   -1120.4545    143073.86   -48835.388    3839.5069   -52674.895   0.26288473 
   12600    279.24429   -1361.2549    143603.18   -48834.624    3834.7479   -52669.372     0.253585 
   12800    276.77255   -1091.0739    143057.59   -48853.038    3800.8044   -52653.843   0.27120642 
   13000    282.31767   -664.25921    142330.68   -48844.959    3876.9534   -52721.912   0.29051948 
   13200    284.93349   -791.78467    142515.68   -48816.397    3912.8754   -52729.272   0.29545649 
   13400    281.48349   -1138.6576    143163.57   -48826.011    3865.4979   -52691.509   0.25291766 
   13600    279.45858   -1211.8816    143275.25   -48814.651    3837.6906   -52652.342   0.26895851 
   13800    281.55083   -963.87869    142835.73   -48816.339    3866.4227   -52682.762   0.27790502 
   14000    282.60646   -840.96753    142594.06   -48839.677    3880.9191   -52720.596   0.27944999 
   14200     278.4163   -995.51936    142805.69   -48862.825    3823.3774   -52686.202   0.28902348 
   14400    275.62576   -1121.3872    143062.14   -48881.679    3785.0561   -52666.735   0.26168754 
   14600    281.74543   -1039.1986    142954.51   -48878.468     3869.095   -52747.563   0.27379967 
   14800    276.03881   -880.84122    142681.29   -48866.198    3790.7283   -52656.926     0.283999 
   15000    273.74668   -950.42707    142697.24   -48916.863    3759.2514   -52676.114   0.28488098 
   15200    272.04965    -1056.503    142931.23   -48964.757    3735.9468   -52700.704   0.27573294 
   15400    272.69622   -1104.2227    142972.52   -48979.575    3744.8259   -52724.401   0.26721459 
   15600    275.81777   -981.73384    142694.71    -49018.62    3787.6929   -52806.313   0.29327198 
   15800    274.77324   -884.18465    142544.29   -48975.124    3773.3487   -52748.473   0.27674712 
   16000    273.72936      -969.67    142805.14   -48958.278    3759.0136   -52717.291   0.27933023 
   16200      276.431    -1160.244     143066.2   -48905.324    3796.1141   -52701.438   0.27070938 
   16400    278.11604   -1040.0257    142943.64    -48902.47    3819.2541   -52721.724   0.26619074 
   16600    276.43632   -918.44332    142648.13   -48924.351    3796.1872   -52720.538   0.30063489 
   16800    276.32244   -862.30763       142612   -48880.827    3794.6232    -52675.45   0.28225717 
   17000    277.89051   -1030.9356    142905.13   -48899.776     3816.157   -52715.933   0.27729485 
   17200    278.90769   -1111.7873    143090.85   -48879.157    3830.1254   -52709.282   0.26528468 
   17400    277.17616    -1011.675    142890.18   -48925.865     3806.347   -52732.212   0.26935476 
   17600    275.87161    -861.3274    142591.35   -48967.028    3788.4323    -52755.46   0.29013067 
   17800    274.20467   -910.42221    142640.39   -48984.454    3765.5408   -52749.995   0.28469264 
   18000    274.25607   -1067.5715    142938.17   -49011.708    3766.2467   -52777.954   0.26917937 
   18200    268.95693   -1134.7013    143010.43    -49035.16    3693.4758   -52728.636   0.27337929 
   18400     276.9446   -984.80798    142730.84   -49060.766    3803.1672   -52863.933   0.27564372 
   18600    272.89967   -833.22789    142526.62   -49021.715    3747.6198   -52769.334   0.29727458 
   18800    272.29372   -943.35749    142770.65   -48956.598    3739.2985   -52695.896   0.27385626 
   19000     275.9153   -1168.2183    143158.72   -48978.092    3789.0322   -52767.124     0.267655 
   19200     273.6286   -1132.0581    143021.11   -48954.154    3757.6299   -52711.784   0.26760022 
   19400    276.91089   -790.98827    142504.85   -48951.462    3802.7043   -52754.167   0.27825989 
   19600    276.63982   -802.98685    142432.25   -48981.159    3798.9817    -52780.14    0.3013512 
   19800    274.51995   -1059.5947     142949.1   -48971.687    3769.8704   -52741.557   0.25796021 
   20000    273.27513   -1257.6398    143281.11   -48955.546    3752.7758   -52708.322   0.26477546 
   20200      273.846   -1039.1989    142856.06   -48986.869    3760.6154   -52747.484   0.27970564 
   20400    278.70543   -670.92254    142248.19   -48975.503     3827.348   -52802.851   0.29457532 
   20600    276.48396    -811.1613    142483.04   -48969.899    3796.8413   -52766.741   0.30011053 
   20800    274.00781    -1252.191    143262.03   -48960.312    3762.8374    -52723.15   0.25425637 
   21000    275.63164   -1303.1312    143353.02    -48951.96    3785.1368   -52737.097   0.25863726 
   21200    277.53829   -841.95643    142553.58   -48954.135      3811.32   -52765.455    0.2842213 
   21400    281.89692    -616.5246    142125.29   -48956.371    3871.1754   -52827.547   0.30035336 
   21600    274.74742   -991.25782    142793.62   -48907.843    3772.9942   -52680.837   0.29650233 
   21800    281.53891   -1334.1678    143590.15   -48846.199     3866.259   -52712.458   0.23726455 
   22000    279.71498   -1219.3935    143290.13    -48856.49    3841.2116   -52697.701   0.27651386 
   22200    283.95356    -736.5696    142345.26   -48830.855    3899.4183   -52730.273   0.29999077 
   22400    282.82281   -661.58964    142271.72   -48810.251    3883.8903   -52694.141   0.30081228 
   22600    281.98735   -1160.6803    143177.65   -48804.945    3872.4172   -52677.362    0.2653901 
   22800    279.82804   -1372.8343    143567.67   -48830.519    3842.7643   -52673.284   0.24981823 
   23000    275.31146    -1003.941    142899.17   -48858.399    3780.7399   -52639.139   0.28895173 
   23200    283.05476   -689.97407    142318.62   -48861.458    3887.0755   -52748.533   0.29221419 
   23400    276.57013   -882.82242    142646.98    -48866.66    3798.0247   -52664.685   0.29227087 
   23600    276.90635   -1187.6426    143203.78   -48874.554    3802.6419   -52677.196   0.26672662 
   23800    274.16802   -1181.8657    143164.09   -48815.286    3765.0375   -52580.324   0.26401518 
   24000    281.78424   -924.07647    142721.69   -48857.769     3869.628   -52727.397   0.30281532 
   24200     279.8826   -848.35195    142557.54   -48844.151    3843.5136   -52687.665   0.28617341 
   24400    281.28575    -1009.495    142869.56   -48846.072    3862.7825   -52708.854   0.27154967 
   24600    278.30998   -1145.1951     143144.4   -48840.473    3821.9174    -52662.39   0.26829077 
   24800    282.99371   -1046.5886     142994.7   -48769.803    3886.2371    -52656.04   0.27353076 
   25000      276.513   -908.39591    142687.07   -48772.808    3797.2402   -52570.048    0.3023756 
   25200    279.04801   -929.06133    142693.25   -48795.634    3832.0525   -52627.686   0.29115664 
   25400    275.36265   -1080.4438    142930.79   -48851.244    3781.4429   -52632.687    0.2939529 
   25600    278.77687   -1113.7223    143010.93   -48870.479     3828.329   -52698.808   0.27751719 
   25800    276.45987    -1023.357     142795.5   -48851.522    3796.5105   -52648.032   0.27888837 
   26000    280.43459   -896.67951     142620.6   -48832.858    3851.0938   -52683.951    0.3052253 
   26200    277.72562   -982.83919    142750.53   -48875.643    3813.8926   -52689.536   0.27468857 
   26400    279.51278   -1092.1172    142952.39   -48893.341     3838.435   -52731.776   0.27897303 
   26600     279.1271   -1054.2366    142910.88   -48903.331    3833.1385   -52736.469   0.28295906 
   26800    270.33238    -935.6769    142702.47   -48910.568    3712.3643   -52622.932   0.29391931 
   27000    278.08928   -972.21869    142674.46   -48912.829    3818.8866   -52731.716    0.2953531 
   27200    276.49991   -1019.5377    142854.08   -48903.629    3797.0604    -52700.69    0.2674374 
   27400    280.50797   -1107.9799    142949.69   -48868.855    3852.1015   -52720.957    0.2925956 
   27600    279.18286   -1021.9632    142808.98   -48874.538    3833.9043   -52708.442   0.28473063 
   27800    281.70787   -906.45206     142637.3   -48873.799    3868.5792   -52742.378   0.29565504 
   28000    280.32592   -951.28921    142728.45   -48860.661    3849.6014   -52710.263   0.29939833 
   28200    278.41624   -1097.4462    142958.28   -48875.592    3823.3766   -52698.968   0.26776067 
   28400    275.41334    -1075.476    142921.46   -48870.737     3782.139   -52652.876   0.28539264 
   28600    278.44676   -954.11644    142676.37    -48893.97    3823.7957   -52717.766   0.29114374 
   28800    279.95089   -912.26038    142604.21   -48907.097    3844.4513   -52751.548   0.30155341 
   29000    270.94729   -1052.5962    142824.44   -48938.276    3720.8086   -52659.084   0.28429749 
   29200    277.06207   -1128.1823    143012.72   -48969.603    3804.7803   -52774.383   0.26581112 
   29400    276.82648   -1044.3894    142860.67   -48973.036    3801.5451   -52774.581   0.29018187 
   29600    278.75505   -873.75289    142604.65   -48940.435    3828.0293   -52768.464   0.28293822 
   29800    281.61913   -906.33448    142650.46   -48866.976    3867.3606   -52734.336   0.29097602 
   30000    281.40913   -1093.3049    143016.13   -48852.534    3864.4768   -52717.011   0.26449206 
   30200    281.54433   -1161.7439    143171.63   -48858.307    3866.3334    -52724.64   0.26406324 
   30400    273.25173   -967.44001    142812.19   -48913.476    3752.4545    -52665.93   0.29062211 
   30600    276.72899     -766.587    142421.39    -48868.93    3800.2063   -52669.136   0.29456223 
   30800    279.39556   -893.26434    142665.79   -48836.045    3836.8253    -52672.87   0.29417029 
   31000    280.96514    -1177.809    143269.86   -48813.792    3858.3796   -52672.172   0.25508226 
   31200    278.81808   -1218.1784    143271.97    -48814.45    3828.8949   -52643.345   0.26046616 
   31400    280.48001   -831.71821    142600.51   -48822.754    3851.7175   -52674.472   0.30008602 
   31600    282.02884   -717.44314    142321.43   -48887.131     3872.987   -52760.118   0.28903802 
   31800    277.34728   -994.27304    142881.04   -48852.711     3808.697   -52661.408   0.27266732 
   32000    282.76052   -1276.6173    143433.69   -48814.542    3883.0349   -52697.577   0.24989469 
   32200    278.45857   -1118.7067    143098.69   -48852.113    3823.9578   -52676.071   0.27534439 
   32400    280.73621   -765.99618    142395.66   -48857.128    3855.2358   -52712.364   0.30249786 
   32600    279.61843   -770.44676    142443.76   -48844.552    3839.8857   -52684.437   0.29039656 
   32800    280.06391   -1148.0281    143164.29   -48831.144    3846.0033   -52677.148   0.27148957 
   33000    278.62491   -1322.1163     143403.7   -48815.369    3826.2422   -52641.611   0.25601587 
   33200    283.46883   -965.57695     142804.5   -48819.064    3892.7618   -52711.826   0.28496629 
   33400    282.56939   -721.11989    142328.52   -48789.052    3880.4101   -52669.462    0.3163691 
   33600    284.40065   -919.14286     142718.1   -48720.049     3905.558   -52625.607   0.28633046 
   33800    284.24121   -1255.3465    143347.62   -48743.438    3903.3686   -52646.806   0.26190456 
   34000    281.18405   -1168.3623     143182.7   -48765.181    3861.3859   -52626.566   0.27125183 
   34200    279.39382   -802.91301    142498.88   -48804.912    3836.8013   -52641.713   0.30410223 
   34400    282.39023   -758.79597    142366.07   -48871.712    3877.9498   -52749.662   0.29929222 
   34600    279.98192   -1008.1791    142941.44   -48838.571    3844.8775   -52683.449   0.26886561 
   34800    279.77823   -1245.2837    143309.78   -48869.816    3842.0803   -52711.897   0.26217106 
   35000    279.11853   -1032.1663    142932.48   -48899.405    3833.0208   -52732.426   0.26292321 
   35200    276.56238   -753.80746     142445.5   -48894.739    3797.9182   -52692.657   0.29869675 
   35400    280.69744   -891.15581    142626.95   -48857.627    3854.7033    -52712.33   0.28366059 
   35600    275.43626   -1122.3601    143145.02   -48843.503    3782.4538   -52625.957   0.26327531 
   35800    280.38982   -1160.7304    143169.08   -48843.323     3850.479   -52693.802   0.27304948 
   36000    278.36436   -901.34701    142717.78   -48850.723    3822.6642   -52673.387   0.28363324 
   36200    278.04997   -815.84323    142490.87   -48869.202    3818.3468   -52687.549   0.29705213 
   36400    276.68319   -963.63168    142793.23   -48891.263    3799.5773   -52690.841   0.27915012 
   36600    284.02055   -1108.6428    143112.87   -48861.475    3900.3384   -52761.814   0.26360659 
   36800    276.09519   -1122.0669    142980.75   -48904.658    3791.5026   -52696.161    0.2841904 
   37000    275.82586   -918.03756    142603.05   -48900.216     3787.804    -52688.02   0.28856327 
   37200    281.70852   -867.62992    142549.53   -48863.372    3868.5882    -52731.96    0.2957382 
   37400    276.31724   -1047.5719    142896.83   -48850.834    3794.5518   -52645.386    0.2700792 
   37600    276.67394    -1180.161    143124.76   -48873.012    3799.4503   -52672.462   0.27013171 
   37800    281.89042   -1003.3737    142897.16    -48843.67    3871.0861   -52714.756   0.28092596 
   38000    275.90139   -897.60984    142596.59   -48899.366    3788.8413   -52688.207   0.28694941 
   38200    283.18372   -907.65575    142641.58   -48893.974    3888.8464    -52782.82   0.28581647 
   38400    275.60388   -1066.5094    142957.69   -48855.867    3784.7556   -52640.622   0.26344846 
   38600    276.50723   -1152.7297    143079.59   -48850.659    3797.1609    -52647.82   0.27498426 
   38800    277.43353   -979.51771    142804.56   -48903.734    3809.8815   -52713.616   0.27710536 
   39000    274.01056   -875.33151    142576.33   -48932.303    3762.8753   -52695.178   0.28337348 
   39200    279.45845   -936.51821    142718.66   -48950.461    3837.6888    -52788.15   0.28643363 
   39400    278.39542   -1080.4058    143031.31   -48936.229    3823.0907    -52759.32   0.25442578 
   39600    277.81955    -1123.427    142999.58   -49004.454    3815.1825   -52819.637   0.27159348 
   39800    275.97545   -959.20452    142651.52   -48999.737    3789.8582   -52789.595   0.28692091 
   40000    272.28311   -886.07521    142485.79   -49013.894    3739.1529   -52753.047   0.28387593 
   40200    277.13231   -979.84459    142741.38   -48987.777     3805.745   -52793.522   0.28542821 
   40400    272.50884   -1143.4737    143067.59   -48976.994    3742.2527   -52719.247   0.26590065 
   40600    273.10413   -1107.4729    142942.03    -49005.24    3750.4275   -52755.668   0.27610893 
   40800    270.37639   -877.44972    142497.14   -49030.527    3712.9686   -52743.496   0.29321984 
   41000    277.92675   -798.99518    142450.13   -48989.879    3816.6546   -52806.533   0.28523967 
   41200    278.05651   -1124.5555    143004.16   -49013.916    3818.4366   -52832.352   0.26323209 
   41400    268.94245   -1320.1253    143370.91   -48972.328     3693.277   -52665.605   0.25382702 
   41600    274.54501   -1027.6677    142812.04   -48976.263    3770.2146   -52746.478   0.28804829 
   41800    274.13719   -618.27059     142069.8   -48984.732    3764.6142   -52749.347   0.30126044 
   42000    277.18463   -799.19441    142430.43   -48956.855    3806.4634   -52763.319   0.28808725 
   42200    280.87228   -1346.1258     143495.7     -48965.3    3857.1043   -52822.405    0.2472362 
   42400    272.83167   -1378.3474    143513.89   -49010.544     3746.686    -52757.23   0.23676233 
   42600     274.3078   -784.21069    142346.65   -49054.058    3766.9571   -52821.015   0.30424014 
   42800    276.02139   -507.95906    141877.01   -49062.365    3790.4891   -52852.854   0.30410283 
   43000    269.63648   -1023.8328    142847.84   -49008.296    3702.8078   -52711.104   0.27029331 
   43200    272.19209   -1451.5707    143688.33   -48995.438    3737.9029   -52733.341   0.24718079 
   43400    272.51715   -1193.3192     143139.9   -48996.858    3742.3668   -52739.225    0.2660462 
   43600    274.05667   -657.63065    142245.45   -49006.333    3763.5084   -52769.841   0.30815696 
   43800    276.29392   -741.40321    142390.43   -48980.502    3794.2316   -52774.734   0.28641167 
   44000    276.32504   -1116.5913    143175.09   -48987.666     3794.659   -52782.325   0.24864241 
   44200    274.38638   -1272.4974    143334.93   -49024.825    3768.0362   -52792.861   0.24912527 
   44400    277.03198   -952.46687     142701.4   -49010.773    3804.3671    -52815.14   0.27751333 
   44600    273.99312   -746.41023    142329.72   -48955.548    3762.6357   -52718.184   0.30482534 
   44800    279.02268   -950.79473    142720.53   -48918.093    3831.7046   -52749.797   0.27187337 
   45000    275.02883   -1222.1106     143216.6   -48944.157    3776.8587   -52721.016   0.26623089 
   45200    276.65916      -1130.2    143076.34   -48965.801    3799.2474   -52765.048   0.26564978 
   45400    272.19514    -932.1021    142568.48   -49019.524    3737.9447   -52757.469   0.28714304 
   45600    271.23602   -808.69901    142466.46   -49009.604    3724.7736   -52734.378   0.29426074 
   45800    277.13837   -985.77356    142889.67   -48979.604    3805.8281   -52785.432   0.25664791 
   46000     275.8537   -1179.2018    143183.88   -48971.478    3788.1863   -52759.664   0.25974617 
   46200    273.13382   -1044.9803    142915.31   -49006.852    3750.8352   -52757.687   0.27642007 
   46400    278.54525   -837.19603     142510.5   -48996.876    3825.1483   -52822.025   0.27465447 
   46600    276.38442   -913.05898    142570.41   -48994.126    3795.4744     -52789.6   0.29969813 
   46800    275.53984   -1064.7618    142925.57   -48954.445    3783.8762   -52738.321    0.2741104 
   47000    278.65894   -1147.9625    143027.14   -48932.414    3826.7095   -52759.124    0.2680004 
   47200    276.32535   -993.13489    142738.72   -48907.336    3794.6633   -52701.999   0.28996159 
   47400    282.46124   -814.58387    142534.66   -48844.031     3878.925   -52722.956    0.2907095 
   47600    279.65631   -989.65078    142776.36    -48816.07     3840.406   -52656.476   0.27535136 
   47800    281.44105   -1121.1534    143077.29   -48779.535    3864.9151    -52644.45   0.26796769 
   48000    278.48628   -1060.5254    142976.19    -48783.83    3824.3384   -52608.169   0.28049017 
   48200    280.34183   -898.65432    142705.25   -48787.848      3849.82   -52637.668   0.28204795 
   48400      276.479   -939.92397    142713.22   -48769.431    3796.7733   -52566.205    0.2999205 
   48600    278.91759   -1071.3147    142934.19   -48826.519    3830.2614    -52656.78   0.28408572 
   48800    280.40493   -1060.5793    142953.87   -48769.927    3850.6865   -52620.613   0.26755081 
   49000    282.60526   -966.15613    142785.29   -48750.642    3880.9026   -52631.544    0.2880688 
   49200    284.64365    -935.7652    142747.32       -48785     3908.895   -52693.895   0.28037238 
   49400    281.78255   -1069.4353    142920.96   -48792.217    3869.6048   -52661.822   0.27220125 
   49600     278.1106   -1100.1474    143016.12   -48806.764    3819.1794   -52625.943   0.27900254 
   49800    279.91597   -1036.7291    142829.04   -48788.538    3843.9718    -52632.51   0.28660503 
   50000    280.31989   -890.83003    142651.63   -48792.877    3849.5187   -52642.396   0.29514118 
   50200    280.22997   -977.57908    142804.16   -48826.495    3848.2839   -52674.779    0.2802005 
   50400    278.25572    -1125.909    143037.26   -48827.403    3821.1723   -52648.575   0.26982623 
   50600    280.48572   -1075.1358    142983.83   -48847.458     3851.796   -52699.254   0.25547102 
   50800     280.6264   -961.78507    142700.55    -48863.02    3853.7279   -52716.748   0.28564411 
   51000    282.78228   -889.35073    142629.65   -48803.735    3883.3336   -52687.068   0.28901442 
   51200    274.51914   -1070.2423    142925.09   -48828.457    3769.8593   -52598.316    0.2687828 
   51400    284.30231   -1125.9136    143151.94     -48789.2    3904.2077   -52693.408   0.26683145 
   51600    278.00734   -1010.8557    142931.13   -48792.871    3817.7614   -52610.632   0.27011711 
   51800    280.68649   -860.48725    142565.54   -48795.216    3854.5531   -52649.769   0.28840777 
   52000     283.4222   -910.42543    142670.35   -48758.196    3892.1215   -52650.317   0.29156863 
   52200    280.77947   -1095.9941    143181.71   -48723.455    3855.8298   -52579.285   0.26416144 
   52400    282.58688   -1191.6844       143351   -48701.469    3880.6503   -52582.119     0.257996 
   52600     284.9723   -977.41822    142870.67   -48746.404    3913.4083   -52659.812   0.27336542 
   52800     284.9407   -725.89844    142471.15    -48770.79    3912.9743   -52683.764   0.29560292 
   53000    281.00476   -905.48664    142847.41   -48772.654    3858.9237   -52631.578   0.26022967 
   53200    279.03973   -1234.6981    143451.28     -48770.8    3831.9388   -52602.738   0.25195658 
   53400    279.92372   -1158.1301    143265.81   -48801.919    3844.0782   -52645.997   0.26135282 
   53600     280.8482   -799.37774    142512.44   -48838.378    3856.7737   -52695.152   0.27850526 
   53800    280.03357   -733.59743    142423.89   -48818.126    3845.5867   -52663.712   0.30126209 
   54000    277.99891    -1133.718    143168.41    -48798.92    3817.6455   -52616.566   0.27078024 
   54200     279.2012   -1294.6789    143540.26   -48798.529    3834.1561   -52632.685   0.23868826 
   54400    279.19754   -1008.3947    142921.34   -48834.037    3834.1059   -52668.143    0.2744229 
   54600    281.26303   -686.67306    142286.27    -48837.25    3862.4704    -52699.72   0.30429254 
   54800    285.50306   -826.16346    142608.82   -48782.263     3920.697    -52702.96    0.2897081 
   55000     279.9596   -1168.1736    143376.78   -48773.095    3844.5709   -52617.666   0.24599416 
   55200    282.93333   -1261.3182    143420.86   -48800.423     3885.408   -52685.831   0.25429641 
   55400    279.13959   -865.89202    142711.85   -48833.691    3833.3101   -52667.001   0.28412698 
   55600    278.76487   -770.55151    142362.32     -48873.3    3828.1642   -52701.465   0.30508925 
   55800    281.78252   -976.85753     142810.1    -48842.47    3869.6044   -52712.075   0.28150315 
   56000     280.0972   -1248.6479    143338.59   -48818.223    3846.4606   -52664.683    0.2523827 
   56200    276.15721   -1129.0494    143115.43   -48853.767    3792.3543   -52646.121   0.26529865 
   56400    280.46852   -823.02862    142549.03   -48864.837    3851.5597   -52716.397   0.29049236 
   56600    274.40286   -804.36355    142567.67   -48869.137    3768.2624   -52637.399   0.28562312 
   56800     279.1348   -1074.4167     143089.7   -48814.868    3833.2443   -52648.113   0.26507978 
   57000     277.1023   -1185.9588    143326.59   -48817.719    3805.3328   -52623.052   0.25023644 
   57200    278.60294   -1018.7918    142965.43   -48851.879    3825.9405   -52677.819   0.26027564 
   57400    281.95011   -804.18522    142549.14   -48876.822    3871.9059   -52748.727    0.2823576 
   57600    278.30652   -930.26069     142683.5    -48866.14    3821.8699   -52688.009   0.29001303 
   57800    282.09366   -1101.5129    143094.05   -48872.073    3873.8771    -52745.95   0.26079772 
   58000    276.23021   -1119.1085       143110   -48882.208    3793.3568   -52675.565   0.26804253 
   58200      278.815   -926.18882    142705.05    -48927.11    3828.8527   -52755.962   0.27579045 
   58400    277.42959   -865.84506       142548   -48922.184    3809.8273   -52732.011   0.28145559 
   58600    278.07074   -1017.5361    142852.61   -48898.702    3818.6319   -52717.334   0.28225538 
   58800    274.18223   -1174.9183    143111.55    -48924.86    3765.2326   -52690.093   0.27198896 
   59000    274.39013   -1024.2898     142879.1   -48950.054    3768.0876   -52718.142   0.26811713 
   59200    273.14297   -856.91949    142527.26   -48955.125    3750.9609   -52706.086   0.28885526 
   59400    281.34408   -865.75153    142598.28   -48899.644    3863.5834   -52763.228   0.27921336 
   59600    278.64297   -1095.4183    143003.86   -48889.272    3826.4902   -52715.762   0.26975875 
   59800    278.09182   -1138.1373    143120.87   -48872.424    3818.9214   -52691.345   0.25707816 
   60000    278.04655   -971.25799    142779.28   -48864.395    3818.2997   -52682.695   0.28129904 
   60200    278.77649   -837.61934    142540.72   -48843.191    3828.3237   -52671.514     0.284132 
   60400    281.87078   -999.08551    142818.58   -48808.624    3870.8164    -52679.44   0.27154663 
   60600    278.79954   -1183.7832    143177.36   -48841.216    3828.6403   -52669.856   0.26308535 
   60800    281.42677    -1087.088    143055.35   -48784.813     3864.719   -52649.532   0.26143848 
   61000    282.61164   -875.20151     142654.6   -48828.879    3880.9903   -52709.869   0.28622097 
   61200    278.64539   -846.31803     142606.9   -48834.164    3826.5234   -52660.688   0.28676153 
   61400    275.69591   -1090.1156    143002.25   -48826.104    3786.0194   -52612.123    0.2749057 
   61600    281.88223   -1169.3517    143226.99   -48814.112    3870.9736   -52685.086   0.26458851 
   61800    283.92546   -951.44238    142945.79   -48819.126    3899.0325   -52718.158   0.26281241 
   62000    278.15026   -853.56894    142603.02    -48847.96     3819.724   -52667.684    0.2863965 
   62200    278.52125   -919.57583    142726.97   -48858.394    3824.8186   -52683.213   0.29192842 
   62400    281.77088   -1103.6902    143141.38    -48814.66    3869.4445   -52684.105   0.26657725 
   62600    282.07324   -1153.7766    143202.39    -48832.89    3873.5967   -52706.487   0.26604428 
   62800    277.41956    -953.7087     142757.1   -48816.943    3809.6897   -52626.633   0.27630882 
   63000    282.46558   -833.69665    142517.58    -48789.54    3878.9846   -52668.524   0.29692109 
   63200    283.18987   -956.42438    142837.19   -48789.677     3888.931   -52678.608   0.27173806 
   63400    279.81749      -1175.6    143198.42   -48741.208    3842.6194   -52583.828   0.27125502 
   63600    280.94793   -1062.7933     143073.6    -48723.41    3858.1433   -52581.554   0.28054245 
   63800    280.41146   -880.98752     142667.8    -48756.44    3850.7762   -52607.216   0.27389337 
   64000    284.37224   -854.29361    142622.44   -48751.985     3905.168   -52657.153   0.28691465 
   64200    280.23351   -1085.4735    143007.97   -48747.076    3848.3325   -52595.409   0.27475356 
   64400    281.03764   -1169.9073    143194.24   -48730.758    3859.3753   -52590.133   0.26550815 
   64600    282.17982   -990.56523    142830.72   -48789.453    3875.0603   -52664.513   0.28184608 
   64800    279.81474   -765.68289    142485.76   -48804.937    3842.5817   -52647.519    0.2909608 
   65000    283.54755   -910.04532    142749.52   -48791.594    3893.8428   -52685.437   0.28077922 
   65200     280.8596   -1206.0524    143203.19   -48809.956    3856.9303   -52666.886   0.26510123 
   65400    276.10546   -1144.6165    143092.46   -48835.137    3791.6436   -52626.781   0.27389444 
   65600    279.00293   -874.40849    142548.07   -48866.554    3831.4334   -52697.987    0.2856176 
   65800    278.18065   -785.60631    142423.23   -48844.106    3820.1414   -52664.248   0.29364693 
   66000    279.33032   -1089.0496    142940.57   -48835.514    3835.9293   -52671.444   0.28339959 
   66200    280.33296   -1228.9527    143292.81   -48852.999    3849.6982   -52702.697    0.2559309 
   66400    274.36214   -1029.0431    142895.28   -48852.884    3767.7032   -52620.588   0.28266227 
   66600    282.63651    -724.5405     142289.1    -48874.42    3881.3319   -52755.752   0.30381357 
   66800    283.82171   -787.35847    142446.23   -48856.804    3897.6077   -52754.411   0.28496504 
   67000    275.59714   -1262.5042    143277.38   -48871.323    3784.6631   -52655.986   0.27008378 
   67200    276.70491   -1360.7103    143458.14   -48886.683    3799.8756   -52686.559   0.24884584 
   67400    279.58699   -842.69861    142479.39   -48933.322    3839.4541   -52772.776   0.28757235 
   67600    275.44124   -463.20782    141826.27   -48898.531    3782.5222   -52681.053   0.33525591 
   67800    274.08815   -995.79936    142756.65   -48840.315    3763.9407   -52604.255   0.28333503 
   68000    276.76043   -1558.0367    143843.06   -48813.391    3800.6381   -52614.029      0.24533 
   68200    278.23771   -1255.7289    143262.78   -48892.215    3820.9249    -52713.14   0.26273379 
   68400    283.84097   -548.69362    141982.18   -48855.973    3897.8721   -52753.845   0.31148231 
   68600    280.34147   -586.79517     142084.3   -48843.389     3849.815   -52693.204   0.31031076 
   68800     280.3602   -1249.1219    143253.09   -48796.835    3850.0722   -52646.907   0.26740752 
   69000     275.1481   -1413.9178    143585.32    -48831.62    3778.4965   -52610.117   0.26355174 
   69200    278.34063   -992.06301    142790.63   -48849.156    3822.3383   -52671.495   0.26360914 
   69400    281.20505   -686.30561    142248.19   -48894.645    3861.6742   -52756.319   0.30032571 
   69600     274.8783   -896.69178    142618.98   -48902.982    3774.7915   -52677.774   0.28617148 
   69800    278.22405   -1198.3302    143175.13   -48862.558    3820.7373   -52683.295   0.25928332 
   70000    278.66809   -1180.9828    143130.15   -48824.727    3826.8351   -52651.563   0.27636742 
   70200    278.30003   -891.52658    142682.37   -48815.342    3821.7808   -52637.123   0.27952672 
   70400    282.05421    -816.3321    142545.09    -48832.04    3873.3353   -52705.375   0.28905938 
   70600     279.6013   -1005.5924    142866.22    -48801.47    3839.6506   -52641.121   0.27538106 
   70800     283.4286   -1185.8204    143117.26   -48821.073    3892.2094   -52713.282   0.26712317 
   71000    278.78093   -1052.9864    142920.18   -48867.571    3828.3847   -52695.955   0.27976646 
   71200    273.05103   -905.59572    142621.58    -48880.26    3749.6984   -52629.959   0.28208796 
   71400    282.10039   -892.57038    142700.38   -48849.291    3873.9696   -52723.261   0.28940002 
   71600     275.1666   -1120.0656     143013.6   -48823.801    3778.7506   -52602.551    0.2700222 
   71800    278.35006   -1139.6694    143054.21   -48842.301    3822.4678   -52664.769   0.26796628 
   72000    278.17158    -1029.095    142753.56   -48870.354    3820.0168    -52690.37    0.2876087 
   72200    275.95368   -885.09774    142537.43   -48906.808    3789.5592   -52696.367   0.27737342 
   72400    275.11912   -937.39901    142713.95    -48886.63    3778.0986   -52664.728   0.28728772 
   72600    280.45049   -1135.5061    143027.45   -48850.307    3851.3121    -52701.62   0.27284627 
   72800    275.88458   -1091.3128    142958.46   -48923.962    3788.6103   -52712.572   0.27600023 
   73000    275.99276   -932.48738    142639.47   -48926.332    3790.0959   -52716.428   0.28639312 
   73200    278.19151   -893.41731    142604.21   -48940.479    3820.2904    -52760.77   0.27232321 
   73400    277.43833   -1065.3617    142899.95   -48931.514    3809.9473   -52741.461   0.28451831 
   73600    276.70416   -1133.5222    143057.35   -48913.108    3799.8653   -52712.973   0.26407958 
   73800    280.03576   -977.29575    142860.09    -48910.81    3845.6168   -52756.427   0.27137473 
   74000    272.36616   -918.03093    142625.11    -48960.51    3740.2933   -52700.803   0.28681984 
   74200    273.46368   -941.18246    142698.59   -48956.946    3755.3651   -52712.311   0.27355349 
   74400    281.80008    -1069.584     142970.2   -48916.851    3869.8455   -52786.697   0.26875114 
   74600    275.74424   -1127.5501    142994.05    -48938.18    3786.6831   -52724.863   0.26344803 
   74800     273.5487   -945.16113    142719.66   -48951.667    3756.5326   -52708.199   0.28485958 
   75000    273.18538   -882.83223    142568.52    -48919.37    3751.5434   -52670.913   0.28595324 
   75200      281.495   -967.27941    142792.59   -48904.138    3865.6559   -52769.794   0.27527031 
   75400      273.876   -1153.5219    143074.51   -48887.696    3761.0273   -52648.724   0.27899703 
   75600    278.68583   -1045.8087    142963.41   -48869.656    3827.0788   -52696.735    0.2617807 
   75800     278.4182   -858.79395     142650.4   -48852.188    3823.4035   -52675.591   0.29301707 
   76000    278.76208   -850.06244    142695.39   -48838.964    3828.1259    -52667.09   0.27536905 
   76200    278.84266   -1103.0403    143081.22   -48858.557    3829.2325   -52687.789   0.26257649 
   76400     282.8177   -1166.6753     143216.4   -48827.279    3883.8201   -52711.099   0.27133323 
   76600    281.79723   -954.90997    142821.74   -48820.664    3869.8063   -52690.471   0.28115657 
   76800    280.86407   -820.90261    142485.03   -48825.796    3856.9917   -52682.788   0.29847857 
   77000    281.14662    -924.3142    142772.97    -48824.88    3860.8718   -52685.752   0.27072285 
   77200    278.28739   -1209.7956    143295.06   -48859.963    3821.6071    -52681.57    0.2598123 
   77400    276.93708   -1151.4408    143146.62    -48851.67    3803.0639   -52654.734   0.26817362 
   77600    280.73385   -802.16476    142515.18   -48877.169    3855.2034   -52732.372    0.2910893 
   77800    276.79963   -765.50482    142390.99   -48890.854    3801.1764    -52692.03   0.30388661 
   78000    274.47959   -1100.3976    143022.66   -48883.242    3769.3162   -52652.558   0.26637122 
   78200    278.50121   -1308.7275    143445.74   -48869.261    3824.5434   -52693.805   0.25327707 
   78400    273.85344   -1020.9952    142913.94   -48895.596    3760.7176   -52656.313   0.28018141 
   78600    277.24387    -682.2093    142185.25   -48924.419    3807.2769   -52731.696    0.2993028 
   78800    277.55813   -830.34111    142450.49   -48909.183    3811.5925   -52720.776   0.30911942 
   79000    281.37282   -1235.9363    143338.68   -48878.716     3863.978   -52742.694   0.25042473 
   79200    279.16355   -1309.2529    143411.68   -48885.308    3833.6391   -52718.947   0.25766794 
   79400    276.22596   -845.00636    142507.47   -48853.474    3793.2984   -52646.773   0.29662607 
   79600    282.77554   -587.71473     142080.8   -48849.791    3883.2411   -52733.032   0.30666194 
   79800    277.77587   -994.19515    142816.04   -48866.441    3814.5827   -52681.023   0.27974805 
   80000    277.81581   -1368.7218     143492.7   -48826.598    3815.1311   -52641.729   0.25255929 
   80200    279.05537   -1147.5121    143115.36   -48798.242    3832.1536   -52630.396    0.2762411 
   80400    276.78197    -757.2688    142443.03    -48778.45    3800.9338   -52579.384   0.29776991 
   80600    281.65364   -796.14427    142538.96   -48799.097    3867.8344   -52666.931   0.29113773 
   80800    281.90967   -1108.0625    143140.88   -48737.144    3871.3504   -52608.494   0.26678537 
   81000      275.708   -1233.0371    143295.07   -48783.805    3786.1855    -52569.99   0.25290627 
   81200    281.55506   -996.03803    142842.05   -48770.463    3866.4807   -52636.943    0.2874713 
   81400    286.56633   -806.60822    142538.29   -48753.824    3935.2984   -52689.123   0.29568863 
   81600    282.02248   -952.53181    142807.77    -48770.67    3872.8996   -52643.569   0.27513456 
   81800    283.17689   -1188.5646    143173.88    -48769.14    3888.7526   -52657.893   0.27787387 
   82000    283.74941   -1125.0463    143059.96   -48737.214    3896.6149   -52633.829   0.26569898 
   82200    283.11065   -902.42026    142680.36   -48785.308     3887.843   -52673.151   0.28185287 
   82400    275.12132   -885.64276    142662.04   -48788.622    3778.1289   -52566.751   0.28909105 
   82600    282.31694   -1034.2174    143035.27   -48826.716    3876.9433    -52703.66   0.26136071 
   82800    278.39166   -1141.0896    143221.48    -48861.45     3823.039   -52684.489   0.25623183 
   83000    280.14404   -1013.2879    142934.36   -48850.283    3847.1037   -52697.387    0.2703424 
   83200    281.47209   -855.84779    142642.53    -48875.55    3865.3414   -52740.892   0.28695974 
   83400    280.85954   -939.45556    142763.98   -48894.192    3856.9295   -52751.121   0.27075964 
   83600    281.43455   -1080.1715    143082.94   -48905.622    3864.8258   -52770.447   0.26761196 
   83800    282.20605   -1093.3084    143099.27   -48856.965    3875.4206   -52732.386   0.26138548 
   84000    275.15064   -934.54461    142818.54    -48890.78    3778.5314   -52669.311   0.26862156 
   84200     282.6177   -906.29414    142717.96   -48882.709    3881.0735   -52763.783   0.28883496 
   84400    281.16626   -984.71022     142942.3   -48883.376    3861.1415   -52744.517   0.25823513 
   84600    279.88836   -1084.9309    143130.71   -48876.962    3843.5927   -52720.555   0.25575363 
   84800    281.97833   -1023.0667    142927.72   -48888.314    3872.2933   -52760.607   0.27232946 
   85000    281.32069   -874.19448    142642.56   -48856.452    3863.2623   -52719.715    0.2820935 
   85200     280.6451   -941.87237    142774.37   -48826.374    3853.9846   -52680.359   0.27701566 
   85400    281.90121   -1098.4371    143130.76   -48808.022    3871.2343   -52679.256   0.26126638 
   85600    280.21131   -1125.0874    143109.41     -48805.1    3848.0276   -52653.128   0.27489472 
   85800    279.76751   -860.55069    142695.24   -48824.378    3841.9331   -52666.311   0.27068994 
   86000    281.86987   -813.05164    142557.74   -48781.623    3870.8039   -52652.427   0.29485446 
   86200    276.06806   -1059.8462    142970.54   -48785.997    3791.1301   -52577.127   0.27714888 
   86400     283.5638   -1221.9712    143293.42   -48773.137    3894.0659   -52667.202   0.24256565 
   86600    280.99837   -1023.3901    142942.37   -48777.093     3858.836   -52635.929   0.28475381 
   86800    282.74039   -771.17227    142473.84   -48812.941    3882.7583     -52695.7   0.28681696 
   87000    280.35446   -889.57789    142652.12   -48832.393    3849.9934   -52682.386   0.27689525 
   87200     283.2307   -1141.9993    143202.91   -48795.597    3889.4915   -52685.089   0.26481892 
   87400    280.01373   -1186.4813    143303.81   -48756.883    3845.3143   -52602.197   0.24989296 
   87600    278.39113   -931.78788    142745.32    -48829.29    3823.0317   -52652.321   0.27788106 
   87800    281.33444   -742.64424    142368.86   -48841.315    3863.4511   -52704.766   0.29742066 
   88000    280.19071   -923.00995    142793.54   -48789.788    3847.7447   -52637.532   0.27893805 
   88200    283.54832   -1311.8502     143445.9   -48790.347    3893.8533   -52684.201   0.25039107 
   88400    279.75881   -1171.5455    143247.79   -48777.961    3841.8136   -52619.775   0.25864196 
   88600    277.36321   -749.25762    142440.27   -48803.202    3808.9157   -52612.118   0.29430862 
   88800    285.32138    -707.5867    142285.65   -48798.137    3918.2021   -52716.339   0.28573073 
   89000     281.5878   -1119.8727    143057.04   -48807.798    3866.9303   -52674.728   0.27576045 
   89200    280.59559   -1349.0283    143521.08   -48773.391    3853.3048   -52626.696   0.25373899 
   89400    284.77481   -1012.9285    142935.79   -48754.689    3910.6963   -52665.385   0.26206812 
   89600    276.29131    -658.7821    142236.12    -48784.24    3794.1958   -52578.436   0.30956591 
   89800    280.84888   -839.97753    142537.76   -48816.074     3856.783   -52672.857   0.28362002 
   90000    281.52609    -1229.926    143272.52   -48820.491    3866.0829   -52686.574   0.25133144 
   90200    274.30039   -1212.2317    143294.81   -48861.992    3766.8553   -52628.848   0.26275569 
   90400    276.94525   -886.54649    142647.42   -48891.827    3803.1761   -52695.003   0.27505463 
   90600    278.30325   -758.44263       142392   -48889.449     3821.825   -52711.274   0.29183306 
   90800    274.96139    -982.8886    142862.65   -48907.474    3775.9325   -52683.407   0.27586079 
   91000    277.87367   -1226.7306    143218.62   -48902.377    3815.9257   -52718.303    0.2518548 
   91200    276.48882   -1054.1059    142952.71    -48919.18    3796.9081   -52716.088   0.25524642 
   91400    282.18805   -859.43826    142590.87   -48916.539    3875.1734   -52791.713    0.2928282 
   91600    281.21306   -862.50999    142667.82   -48920.108    3861.7841   -52781.892   0.28079529 
   91800    275.62814   -1062.7458    142985.08   -48892.393    3785.0887   -52677.482   0.25673322 
   92000    281.53857   -1053.3847    143053.01   -48906.328    3866.2543   -52772.582   0.27338616 
   92200    279.72062   -997.15014    142809.28   -48931.927    3841.2891   -52773.216   0.26843211 
   92400    280.01803   -846.28471    142644.73   -48914.716    3845.3733   -52760.089   0.27829039 
   92600    276.78874   -987.38335    142796.05    -48967.66    3801.0268   -52768.687   0.29206739 
   92800    278.34572   -1039.8116    142983.48   -48935.288    3822.4082   -52757.696   0.26042262 
   93000    280.02156   -1047.9187     142963.5   -48866.245    3845.4219   -52711.667   0.26064662 
   93200    276.34246   -984.56357     142837.8    -48867.77    3794.8982   -52662.668   0.28303605 
   93400    273.77287   -965.61608    142779.81   -48871.549    3759.6111    -52631.16   0.27614948 
   93600    278.43617   -985.12707    142831.44   -48854.984    3823.6502   -52678.634   0.26556646 
   93800     282.3776   -1037.1379     142915.4   -48844.069    3877.7764   -52721.845   0.27812729 
   94000    276.18603   -1033.6773     142891.2   -48844.954    3792.7501   -52637.704   0.27957974 
   94200    276.06959    -998.6081    142782.85    -48924.96     3791.151   -52716.111   0.26112642 
   94400     273.1092   -953.31747    142743.81   -48910.247    3750.4972   -52660.744    0.2893084 
   94600    280.49883   -1018.9395    142850.71   -48906.619     3851.976   -52758.595   0.26448484 
   94800    275.68038   -1056.1286    142932.57   -48954.535    3785.8061   -52740.341   0.25545928 
   95000    276.94721   -1039.6581    142814.48   -48962.438    3803.2031   -52765.641   0.28891451 
   95200    275.71981   -931.71501    142662.01   -48969.483    3786.3476   -52755.831   0.26762251 
   95400     277.3828   -952.19442     142749.6   -48980.496    3809.1847   -52789.681   0.26781116 
   95600    280.00617   -1074.6108     142967.4   -48941.593    3845.2104   -52786.803   0.27610129 
   95800    277.16624   -1055.4454    142952.32   -48905.244    3806.2109   -52711.454   0.25596437 
   96000    276.89063   -958.61488    142690.42   -48901.602    3802.4261   -52704.028   0.27282659 
   96200    273.92986   -890.48429    142594.96   -48943.075     3761.767   -52704.842   0.29495624 
   96400    276.27127   -1017.5931     142848.9   -48933.519    3793.9206   -52727.439   0.27329394 
   96600    273.16146    -1160.563    143094.36   -48941.011    3751.2148   -52692.226   0.25093532 
   96800    277.91768   -1033.2052    142883.68   -48993.933    3816.5301   -52810.463   0.28131688 
   97000    273.91519   -823.97736    142465.67   -48983.522    3761.5655   -52745.088   0.28272967 
   97200    273.95615   -859.06385    142538.73   -48971.328    3762.1279   -52733.456    0.2744109 
   97400    278.59257   -1176.3083    143116.58   -48920.026    3825.7981   -52745.824   0.27916093 
   97600    275.20021   -1254.9056    143345.31    -48887.99    3779.2122   -52667.203   0.24142485 
   97800    278.41273   -911.74157    142765.13   -48891.463    3823.3284   -52714.791   0.26739739 
   98000    276.57472   -691.77207    142230.84   -48871.772    3798.0877    -52669.86   0.32522896 
   98200    280.78526   -895.80285    142641.22   -48878.495    3855.9094   -52734.404   0.26885973 
   98400    280.90464    -1317.672    143430.47    -48797.54    3857.5488   -52655.089   0.25041158 
   98600    277.24999   -1237.4807    143351.15   -48843.086     3807.361   -52650.447   0.26122619 
   98800    278.28957   -781.09194    142481.85   -48819.854    3821.6372   -52641.491   0.28091014 
   99000    277.61885   -659.33172    142217.24   -48826.671    3812.4263   -52639.098   0.29902699 
   99200    276.59946   -1078.4592    142961.31   -48879.905    3798.4275   -52678.332    0.2874035 
   99400    273.62317   -1388.4157    143526.82   -48957.233    3757.5553   -52714.788   0.24308064 
   99600    273.35432   -1102.6408    142967.72   -48988.729    3753.8633   -52742.593   0.25488457 
   99800    273.08909   -642.98686    142161.05   -48972.272     3750.221   -52722.493   0.31265842 
  100000    273.97499   -796.38372    142375.06   -48971.682    3762.3868   -52734.069   0.28682657 
  100200    278.17712   -1201.2155    143214.63   -48918.968    3820.0929   -52739.061   0.24928499 
  100400    271.62454   -1274.2994    143341.71   -48910.773     3730.109   -52640.882   0.27683278 
  100600    278.35531   -875.51784    142617.45   -48873.095    3822.5399   -52695.635   0.26995848 
  100800    277.95432   -687.24802    142244.82   -48906.717    3817.0332   -52723.751    0.2960153 
  101000    276.61313   -1032.9081    142798.19   -48883.683    3798.6152   -52682.298    0.2915241 
  101200    278.95332   -1306.6172    143394.41   -48853.285    3830.7521   -52684.037   0.24814921 
  101400    278.00613   -1132.5348    143109.93   -48863.584    3817.7447   -52681.328   0.25291831 
  101600    278.29196   -798.40184    142458.11   -48888.944    3821.6699   -52710.614   0.29683751 
  101800    280.65248   -799.28971     142465.7   -48858.688    3854.0859   -52712.774   0.29746229 
  102000    279.40429   -1124.0299    143108.34   -48851.942    3836.9451   -52688.887   0.25398245 
  102200    274.79324   -1332.0604    143364.84   -48838.773    3773.6235   -52612.397   0.26948746 
  102400     281.1346   -989.06564    142805.01   -48792.838    3860.7067   -52653.545   0.27620947 
  102600    281.53258   -745.20108     142353.5   -48809.442     3866.172   -52675.615   0.28182958 
  102800    278.33892   -936.51439    142700.31   -48816.597    3822.3149   -52638.912   0.31197198 
  103000    277.90413   -1207.0839    143255.85   -48801.662     3816.344   -52618.006   0.25385519 
  103200    281.65163   -1159.0579    143173.27     -48782.6    3867.8069   -52650.406   0.25138944 
  103400     279.8114   -880.76377    142619.73   -48818.846    3842.5358   -52661.382   0.30798763 
  103600    281.62393   -830.31823    142475.05   -48824.823    3867.4266   -52692.249   0.27525739 
  103800    278.63081   -1061.3824    142925.15   -48824.278    3826.3231   -52650.601   0.27074293 
  104000    279.13121   -1195.4715    143231.19   -48826.725     3833.195    -52659.92   0.27076206 
  104200    279.24635   -1060.0789    142910.12   -48844.941    3834.7761   -52679.717    0.2759411 
  104400     279.5367   -842.33566    142498.74   -48867.039    3838.7634   -52705.802   0.28497021 
  104600    275.95726   -925.15481    142636.48   -48861.276    3789.6085   -52650.885    0.3097771 
  104800    278.87188   -1091.0826    143053.35   -48846.232    3829.6337   -52675.866   0.27187428 
  105000    278.75408   -1177.5271    143096.42   -48872.663     3828.016   -52700.679   0.24941882 
  105200    271.99495   -973.24447    142719.46    -48877.99    3735.1957   -52613.185   0.30099107 
  105400    275.97494   -834.53909    142529.81   -48873.522    3789.8513   -52663.373   0.28854866 
  105600    282.41621   -972.63328    142811.72   -48869.543    3878.3066   -52747.849   0.26040755 
  105800    277.98466   -1153.9878    143108.51   -48879.359    3817.4499   -52696.809     0.283332 
  106000    280.98943   -1024.8306    142925.18   -48863.171    3858.7132   -52721.884   0.26540909 
  106200    279.16718   -863.44651     142570.7    -48844.32     3833.689   -52678.009   0.27668923 
  106400    280.42861   -873.01116    142560.43   -48856.534    3851.0116   -52707.545   0.29766505 
  106600    280.08788   -1011.5352    142903.08   -48853.295    3846.3326   -52699.627   0.27175126 
  106800    278.88956   -1138.4105    143094.34   -48844.046    3829.8765   -52673.922   0.26082254 
  107000     282.5642   -998.18983    142824.18   -48806.143    3880.3389   -52686.482   0.27791818 
  107200     279.4043   -841.99766    142499.27   -48798.931    3836.9453   -52635.877   0.30491204 
  107400    281.02421   -917.03293    142620.83    -48804.15    3859.1908   -52663.341   0.28020088 
  107600    282.94695   -1070.7078    142975.59   -48776.482    3885.5949   -52662.077   0.28173428 
  107800    281.65097   -1102.2763    143041.29   -48794.253    3867.7979   -52662.051   0.28449016 
  108000    288.53589   -945.60403     142769.4   -48775.078    3962.3456   -52737.423   0.26210067 
  108200    283.56691   -883.86859    142585.63   -48811.105    3894.1087   -52705.214   0.31505066 
  108400     284.8019   -953.04772    142767.27    -48806.02    3911.0683   -52717.088   0.28136135 
  108600    281.70272   -1124.1181    143049.48   -48774.522    3868.5086   -52643.031   0.26407003 
  108800    280.59825   -1081.9044     142998.2   -48796.548    3853.3412   -52649.889   0.28224968 
  109000    281.56091   -922.61218    142704.46   -48837.651     3866.561   -52704.212   0.27404107 
  109200    278.45832   -882.72636    142580.33   -48841.234    3823.9544   -52665.188   0.29762932 
  109400    275.34486    -974.4633    142770.55   -48823.483    3781.1986   -52604.682   0.28666304 
  109600    277.01938   -1105.5367    142983.17   -48782.631    3804.1941   -52586.825   0.27885499 
  109800    278.18252   -1048.0007    142919.48   -48831.568     3820.167   -52651.735   0.27564751 
  110000     282.3086   -904.52031    142704.02    -48774.75    3876.8288   -52651.579   0.28337388 
  110200    277.82021    -936.9835     142648.6   -48762.188    3815.1915    -52577.38   0.29670445 
  110400    283.29681   -975.01955    142834.25   -48811.019    3890.3995   -52701.419   0.26498044 
  110600    279.19106   -1082.7509    142964.34   -48877.385    3834.0169   -52711.402   0.27449393 
  110800    275.53744   -1034.3168    142852.64   -48876.191    3783.8432   -52660.034   0.27442543 
  111000     281.7329   -921.52864    142719.28   -48880.724     3868.923   -52749.647   0.27178966 
  111200    279.29559   -970.40695    142775.48   -48870.389    3835.4524   -52705.841    0.2935971 
  111400    276.60853   -1068.2797    142920.65    -48919.62    3798.5521   -52718.172   0.26189608 
  111600    272.05518   -1000.7269    142919.91   -48970.474    3736.0227   -52706.497   0.27406499 
  111800    272.06221   -1020.6904    142806.83   -49005.504    3736.1193   -52741.623   0.28091066 
  112000    272.06479   -950.87747    142767.28   -48998.841    3736.1547   -52734.995   0.26746894 
  112200    275.29224    -1037.762    142882.21    -48958.73     3780.476   -52739.206   0.26637924 
  112400    277.87218   -1035.7971    142965.45    -48928.34    3815.9053   -52744.246    0.2675743 
  112600    276.77338   -1003.5075    142899.21   -48905.856    3800.8158   -52706.672   0.27508816 
  112800    276.44722    -946.2807    142787.72   -48922.778    3796.3368   -52719.115   0.26686296 
  113000    274.13158   -973.11805    142762.02   -48902.996    3764.5371   -52667.533   0.29727057 
  113200    270.12303   -1054.2205    142867.78   -48935.476    3709.4893   -52644.966   0.27305867 
  113400    283.21755   -1016.7494    142932.63   -48916.399     3889.311    -52805.71   0.24535441 
  113600    276.16341   -1053.0633    142888.96    -48920.61    3792.4394    -52713.05   0.28757861 
  113800      277.322   -975.17924    142779.06   -48906.611    3808.3498    -52714.96   0.26820878 
  114000    280.41298   -979.58459    142781.31   -48893.188    3850.7971   -52743.985   0.27251241 
  114200    275.27788   -1068.6644    142908.23   -48902.618    3780.2788   -52682.897   0.28797936 
  114400    282.07337   -997.38641    142922.69   -48845.826    3873.5985   -52719.424   0.25502287 
  114600    277.78125   -948.94295    142847.38   -48821.417    3814.6565   -52636.074   0.27520034 
  114800    284.35631   -989.25975    142835.32   -48809.169    3904.9492   -52714.118   0.27949898 
  115000    276.11202    -1019.159    142897.91   -48835.644    3791.7337   -52627.378   0.27082113 
  115200    279.45313   -1024.4431    142913.51   -48849.887    3837.6158   -52687.503   0.26504976 
  115400    276.58485   -1010.9155    142834.63   -48862.823    3798.2268   -52661.049   0.28460048 
  115600    275.37195   -942.16118    142763.17   -48846.338    3781.5705   -52627.909   0.27610284 
  115800    278.49473   -1043.3528    142819.18   -48861.125    3824.4545   -52685.579   0.26688539 
  116000    276.87317    -1026.345    142906.62   -48844.483    3802.1862   -52646.669   0.28838242 
  116200    282.34699   -999.76636    142889.11   -48861.754     3877.356    -52739.11   0.25228375 
  116400    276.43468   -957.09369    142751.65    -48903.44    3796.1647   -52699.605   0.26684152 
  116600    275.24905   -942.92341    142698.08   -48915.082    3779.8829   -52694.965   0.30074475 
  116800    280.15724   -988.05246    142848.44    -48871.44    3847.2851   -52718.726   0.26038864 
  117000    279.67332   -1073.5642    143031.79   -48876.146    3840.6395   -52716.785    0.2638885 
  117200    282.13548   -1049.8783    142974.27   -48867.563    3874.4514   -52742.015   0.27885783 
  117400     280.6629    -929.7349    142733.64    -48896.64    3854.2291   -52750.869   0.26958891 
  117600    274.93388   -928.38224    142654.12   -48878.311    3775.5548   -52653.866   0.27816067 
  117800    274.73898   -1032.2999    142880.42   -48837.748    3772.8782   -52610.627   0.28770824 
  118000    279.12848    -1157.855    143121.35   -48826.282    3833.1575    -52659.44   0.26085698 
  118200    273.84301   -1029.4554     142983.6   -48859.297    3760.5743   -52619.871   0.26126624 
  118400    278.63676   -886.94404    142642.08   -48913.721    3826.4049   -52740.126    0.3041442 
  118600    273.74366   -876.14429    142604.83   -48940.832    3759.2099   -52700.041   0.27594328 
  118800    272.04408   -1010.4677    142906.14   -48983.535    3735.8703   -52719.406   0.25097854 
  119000    270.45961   -1127.6921    143047.65   -48979.555    3714.1115   -52693.667   0.28339306 
  119200    275.63119   -1016.0967    142792.05   -48985.208    3785.1306   -52770.338   0.26719521 
  119400     277.4754   -834.18803    142532.83   -49013.764    3810.4565    -52824.22   0.27356258 
  119600    277.44688   -932.84205    142674.51   -48955.556    3810.0648   -52765.621   0.29908559 
  119800    274.03379   -1160.3977    143054.75   -48946.579    3763.1942   -52709.774   0.25689267 
  120000    275.38094   -1134.4802    143040.11   -48962.513     3781.694   -52744.207   0.25968361 
  120200    273.43686   -932.61334    142587.19   -48942.779    3754.9968   -52697.776   0.30296359 
  120400    275.70356   -814.05775    142371.28   -48989.815    3786.1245   -52775.939   0.29949267 
  120600    274.99198   -1000.0475    142752.08   -48978.623    3776.3527   -52754.976   0.26921214 
  120800    279.28522     -1212.92    143150.37    -48963.53      3835.31    -52798.84    0.2697464 
  121000    278.36516   -1081.7338    142896.38   -48951.641    3822.6751   -52774.316   0.26581935 
  121200    272.45746   -776.41402    142395.29   -48956.487    3741.5472   -52698.034   0.28249079 
  121400    276.01952   -897.89319    142500.05   -48956.219    3790.4635   -52746.682   0.31494959 
  121600     277.8866   -1118.6634    143032.39   -48939.279    3816.1033   -52755.383    0.2628003 
  121800    277.01806   -1204.9575    143140.93   -48934.305    3804.1759   -52738.481    0.2597368 
  122000    275.52435   -942.92832    142640.65   -48920.072    3783.6634   -52703.735   0.30079545 
  122200    278.08545   -762.90698    142350.66   -48893.333    3818.8339   -52712.167   0.29328315 
  122400     277.9419   -945.78749    142806.39   -48844.808    3816.8627    -52661.67   0.27740007 
  122600    280.45552   -1250.0622    143355.44   -48759.549    3851.3811    -52610.93    0.2653993 
  122800    283.47028   -1145.8058    143152.99   -48761.556    3892.7817   -52654.338   0.25993403 
  123000    281.54242   -815.99245    142505.77   -48816.366    3866.3072   -52682.673   0.27958757 
  123200    279.97349   -778.39287    142401.56   -48840.453    3844.7617   -52685.215    0.3074542 
  123400    279.07506   -1079.8622    142963.04   -48912.535    3832.4239   -52744.959   0.26594751 
  123600    279.94245   -1250.8313    143268.53   -48856.964    3844.3354   -52701.299    0.2496656 
  123800    281.44487   -1021.4745    142836.67   -48883.669    3864.9676   -52748.637   0.28879212 
  124000    276.72298   -720.68748    142364.07   -48874.849    3800.1237   -52674.973   0.29111725 
  124200    275.28735   -956.99952    142633.51   -48856.102    3780.4088    -52636.51   0.28380878 
  124400    277.49798   -1204.7337     143221.4   -48859.893    3810.7666   -52670.659   0.26871411 
  124600    280.76644   -1170.9694     143201.2   -48876.439    3855.6509    -52732.09   0.25580057 
  124800    275.69769   -919.10112    142585.81    -48890.07    3786.0438   -52676.114   0.28317189 
  125000    276.03632   -717.63931    142315.53   -48902.446    3790.6941   -52693.141   0.31054876 
  125200    277.40441   -1016.2745    142837.43   -48888.894    3809.4815   -52698.375   0.27507826 
  125400    275.94764   -1317.5311     143326.1   -48944.858    3789.4763   -52734.334   0.24340383 
  125600    274.70937   -1066.2577    142980.44   -48943.615    3772.4717   -52716.087   0.26679046 
  125800    277.18376   -780.31104    142411.21   -48944.477    3806.4515   -52750.928   0.29585884 
  126000    277.15814   -838.40321     142550.2   -48913.581    3806.0996   -52719.681    0.2796069 
  126200    280.29305      -1116.1    143145.95   -48886.827    3849.1501   -52735.977   0.27173633 
  126400    272.10809   -1243.6905    143220.16   -48911.146    3736.7493   -52647.895   0.25955396 
  126600    277.40212   -917.83989    142665.27   -48944.232    3809.4501   -52753.682   0.26740467 
  126800    279.80835   -775.92879    142379.27   -48921.821    3842.4939   -52764.315   0.31073571 
  127000    273.42207   -969.16184     142732.2   -48933.017    3754.7937    -52687.81   0.28488239 
  127200    277.67527   -1140.1082    143064.93   -48959.991    3813.2012   -52773.192   0.26086728 
  127400    276.66356   -1070.8826    142885.26   -48960.744    3799.3077   -52760.052   0.27726927 
  127600    275.03847   -881.05093     142553.3   -48959.979     3776.991    -52736.97   0.28492415 
  127800    277.64603   -881.70838    142605.08    -48948.93    3812.7996   -52761.729   0.28625804 
  128000    275.80795   -1071.8217    142913.81   -48941.419    3787.5581   -52728.977   0.27066551 
  128200    275.64049   -1083.5936    143010.56   -48906.119    3785.2583   -52691.377   0.27421853 
  128400    273.06172   -975.39118    142802.38   -48934.834    3749.8452    -52684.68   0.26540752 
  128600    273.32877   -897.86086    142624.98   -48967.861    3753.5125   -52721.374   0.28633319 
  128800     275.2689   -987.31149     142734.7   -49002.422    3780.1554   -52782.578   0.27941499 
  129000    278.11913   -1059.3365       142879   -49032.665    3819.2965   -52851.962   0.25748374 
  129200     275.1519   -1011.4328    142816.51   -48992.709    3778.5488   -52771.257   0.28051937 
  129400    275.86564   -945.46024    142681.45   -48993.723    3788.3503   -52782.073   0.27156782 
  129600    276.81651   -940.23879    142695.76   -48994.464    3801.4081   -52795.872   0.27885444 
  129800     276.5626   -1040.8098    142832.29   -49003.738    3797.9213   -52801.659   0.28378578 
  130000      274.691   -1058.4623    142864.27   -49012.631    3772.2195    -52784.85   0.26477476 
  130200    273.73036   -1005.3956    142746.29   -49031.471    3759.0274   -52790.499   0.27525552 
  130400    269.45303   -946.16409    142662.34   -49017.696    3700.2885   -52717.985   0.28512612 
  130600    279.99537   -994.37675    142752.63   -48975.083    3845.0621   -52820.146   0.28228184 
  130800    274.11685    -1056.029    142857.61   -48992.919    3764.3348   -52757.254   0.27216489 
  131000    272.52718   -1041.9105    142813.99   -49012.833    3742.5045   -52755.337   0.27260429 
  131200    274.28953   -949.83964     142690.6   -48988.464    3766.7062    -52755.17   0.28816422 
  131400      272.144   -940.51507    142699.63   -48989.802    3737.2425   -52727.044   0.27178199 
  131600    275.97218   -1004.9413    142850.19   -48981.667    3789.8133   -52771.481   0.28843997 
  131800    270.15897   -1110.4003    142897.39   -48953.507    3709.9829    -52663.49   0.27950521 
  132000    276.02207   -975.50499    142751.35   -48901.796    3790.4984   -52692.294   0.27212364 
  132200    276.18418   -909.52988    142666.41   -48909.911    3792.7247   -52702.635   0.29075174 
  132400    278.48241   -1051.6379    142829.97   -48911.256    3824.2853   -52735.541   0.26998169 
  132600    275.76451   -1093.9565    142994.11   -48885.286    3786.9615   -52672.248   0.26961084 
  132800    277.61326   -1031.0293    142914.87   -48858.517    3812.3497   -52670.867   0.28010831 
  133000    275.93555   -988.72941    142746.79   -48855.552    3789.3103   -52644.862   0.28177543 
  133200    288.00125   -923.60256    142801.84   -48806.927    3955.0036   -52761.931   0.27562399 
  133400    280.26302   -1081.0445    143074.28   -48788.657    3848.7376   -52637.395   0.26461396 
  133600    280.85648   -1105.5881     143121.3   -48799.547    3856.8874   -52656.435   0.26455536 
  133800    282.98536   -954.15025    142786.81   -48824.502    3886.1224   -52710.624   0.26980741 
  134000    280.38014   -809.00549    142525.68   -48779.262    3850.3461   -52629.608   0.29521003 
  134200    280.45933   -955.11895    142825.61   -48789.168    3851.4335   -52640.601    0.2760219 
  134400    281.92519   -1199.0043    143307.99   -48780.348    3871.5636   -52651.912   0.25228412 
  134600    280.56796   -1144.6224    143180.17   -48797.352    3852.9253   -52650.277   0.27535106 
  134800    280.21375   -845.88543    142567.82   -48846.742    3848.0611   -52694.803   0.27162255 
  135000    277.10864    -765.2749    142456.03     -48902.8    3805.4199    -52708.22   0.28319778 
  135200    280.49152   -1129.6971    143052.77   -48905.077    3851.8755   -52756.952   0.27658524 
  135400    270.23709   -1272.8725    143374.44   -48918.646    3711.0557   -52629.701   0.24632412 
  135600    280.45185   -975.31611    142909.08    -48891.34    3851.3308   -52742.671   0.26088775 
  135800    271.93019   -783.58274    142410.39   -48967.499    3734.3064   -52701.806   0.29872151 
  136000    276.45597   -875.66266    142647.17   -48996.855    3796.4571   -52793.312    0.2687507 
  136200     279.0777   -1227.8634    143218.78   -48999.243    3832.4602   -52831.704   0.24394687 
  136400    277.31611   -1126.4535     143177.5   -48954.527     3808.269   -52762.796   0.26689063 
  136600    277.98478   -868.46214    142631.45   -48908.964    3817.4516   -52726.416   0.27996949 
  136800    276.45922   -818.67001    142483.01   -48921.898    3796.5017     -52718.4    0.2762887 
  137000    282.01808   -1046.9441    142936.78   -48921.152    3872.8393   -52793.991   0.27597701 
  137200    272.27888   -1192.6899    143226.32    -48945.52    3739.0948   -52684.615   0.25059096 
  137400    277.99248   -1040.5459    142888.96   -48910.077    3817.5573   -52727.635   0.26012388 
  137600    283.81959   -800.69247    142471.43   -48908.718    3897.5786   -52806.297   0.29684114 
  137800    279.06644   -890.65681    142655.99   -48881.444    3832.3055    -52713.75   0.27348585 
  138000    280.17997   -1165.7081    143152.74   -48871.337    3847.5972   -52718.935   0.25644434 
  138200    279.37423   -1160.7635    143157.31   -48917.112    3836.5323   -52753.644   0.26731916 
  138400    277.67796   -902.93139     142648.6   -48911.182    3813.2381    -52724.42    0.2743332 
  138600    276.64602   -804.60043    142433.29   -48926.374    3799.0669   -52725.441   0.28317094 
  138800     274.7539   -1003.8346    142866.69   -48873.929    3773.0831   -52647.012   0.28062018 
  139000    279.50613   -1234.0334    143317.94   -48854.907    3838.3437   -52693.251   0.25075909 
  139200    279.78726   -1114.9027    143075.86   -48859.256    3842.2043   -52701.461   0.26289166 
  139400    279.58625   -837.49439    142528.88   -48892.944    3839.4439   -52732.388   0.29151017 
  139600    275.12194    -825.2274    142522.32   -48875.757    3778.1373   -52653.894   0.29229222 
  139800    280.26241   -1070.7914    143057.46   -48831.471    3848.7292     -52680.2   0.26261583 
  140000    281.36494   -1210.5269    143315.12   -48794.984    3863.8699   -52658.853    0.2712017 
  140200    281.72765   -1012.6979    142946.35   -48840.769    3868.8508    -52709.62   0.26761099 
  140400    279.95757   -842.77375    142545.04   -48869.647     3844.543    -52714.19   0.27683748 
  140600    279.02299   -854.69148    142652.28   -48869.413    3831.7089   -52701.122   0.29088329 
  140800    279.21212   -1069.7483    143036.81   -48856.695    3834.3061   -52691.001   0.26213757 
  141000    271.92761   -1153.9826    143088.68   -48889.507    3734.2709   -52623.778   0.27533525 
  141200    279.34603   -944.75611    142771.33   -48847.224     3836.145   -52683.369   0.28749315 
  141400     283.2333    -886.8432    142666.21   -48853.484    3889.5273   -52743.011   0.26759958 
  141600     282.3427   -1014.1275    142903.56   -48834.795    3877.2971   -52712.092   0.27238532 
  141800    273.37674   -1122.6164    143080.68   -48882.861    3754.1712   -52637.032   0.26716178 
  142000    280.82145   -1046.4857    142888.05   -48901.181    3856.4064   -52757.588   0.27513271 
  142200    279.77178   -907.13404    142635.18   -48902.436    3841.9917   -52744.428   0.28274251 
  142400    276.79133   -959.21697    142721.49    -48905.35    3801.0624   -52706.413   0.27373854 
  142600    269.80579   -1127.8393    142976.16    -48891.39    3705.1328   -52596.523   0.27769538 
  142800    274.21129   -1085.3661    142966.37   -48895.541    3765.6317   -52661.172   0.26496934 
  143000    276.71938   -959.56708    142710.44   -48958.209    3800.0743   -52758.283    0.2858283 
  143200     279.2714   -935.57692    142624.33   -48929.468    3835.1201   -52764.588   0.28431089 
  143400    277.42814   -1018.7087    142859.71   -48892.547    3809.8074   -52702.354   0.26998488 
  143600    279.33869   -1082.4766    143029.12   -48879.307    3836.0442   -52715.351   0.27452377 
  143800    275.20125   -1048.0067    142877.09    -48892.44    3779.2264   -52671.666   0.27047777 
  144000    277.83264   -922.59078    142677.49   -48885.239    3815.3623   -52700.601   0.28960538 
  144200    283.49874   -937.90405    142735.53   -48858.466    3893.1725   -52751.638   0.27381246 
  144400    279.40961   -1052.8737    142913.01   -48857.858    3837.0181   -52694.876   0.27775442 
  144600    279.44283   -1054.1734     142916.9   -48831.589    3837.4744   -52669.064   0.28134984 
  144800    283.58408   -963.21607    142782.07   -48804.925    3894.3445   -52699.269   0.27184861 
  145000    277.77173   -956.86974    142760.83   -48846.789    3814.5257   -52661.315    0.2844179 
  145200    279.03585   -1025.2139    142876.01   -48874.857    3831.8854   -52706.742   0.27037427 
  145400    273.57362   -1059.3227    142933.08     -48877.5    3756.8749   -52634.375   0.28419425 
  145600    278.76733   -1020.4754    142838.52   -48896.302    3828.1979     -52724.5   0.28404439 
  145800    278.15692   -970.71901    142713.22   -48913.688    3819.8155   -52733.503    0.2749502 
  146000    272.25787   -992.02011    142747.75   -48900.512    3738.8062   -52639.318   0.29255135 
  146200    279.03954   -1047.2047    142892.35   -48928.531    3831.9361   -52760.467   0.26072149 
  146400    277.19126   -1032.4029    142901.24    -48882.35    3806.5544   -52688.904   0.28606007 
  146600    280.69207   -973.95547    142781.08   -48849.754    3854.6297   -52704.384   0.28966669 
  146800    280.27909   -924.07671    142763.82   -48808.053    3848.9583   -52657.011    0.2677875 
  147000    276.18472   -1022.0926    142911.02   -48819.005     3792.732   -52611.737   0.28320399 
  147200    279.13454   -1070.9314    142969.73   -48786.378    3833.2408   -52619.619   0.27156307 
  147400    279.60402   -1016.5463    142800.99   -48851.995    3839.6879   -52691.683   0.28357508 
  147600    275.43808   -924.43599     142627.4   -48865.258    3782.4787   -52647.737    0.2980702 
  147800    278.10492    -982.6156    142762.79   -48904.197    3819.1014   -52723.298   0.28052202 
  148000     278.2517   -1110.2976    143088.84   -48864.554    3821.1171   -52685.671   0.26716146 
  148200    277.32277   -1119.4537     143081.2   -48904.886    3808.3604   -52713.247     0.255596 
  148400    274.19994   -901.76507    142601.02   -48958.226    3765.4759   -52723.702   0.30044745 
  148600    274.43201   -774.42013    142366.53   -48932.576    3768.6628   -52701.239    0.2977899 
  148800    278.30989   -1044.6909    142912.43   -48929.308    3821.9162   -52751.224   0.26724159 
  149000    276.44649   -1302.6994    143402.12   -48925.604    3796.3269   -52721.931   0.25843058 
  149200    273.45527   -1058.3447    142920.39   -48938.643    3755.2497   -52693.893     0.269075 
  149400     272.5793   -689.64998    142188.72   -48970.483    3743.2203   -52713.703    0.3166015 
  149600    277.64566   -785.93718    142417.09   -48969.693    3812.7945   -52782.488   0.29106131 
  149800    276.09313   -1271.3006    143245.13   -48943.828    3791.4743   -52735.302   0.26163373 
  150000    272.81679   -1298.5728    143349.95   -48900.893    3746.4816   -52647.375   0.26750215 
  150200    285.66733   -841.70467    142617.91   -48861.218    3922.9528   -52784.171    0.2767383 
  150400    281.93984   -694.93151    142291.57   -48838.627    3871.7648   -52710.392   0.31067425 
  150600    276.72551   -999.58524    142862.75   -48881.875    3800.1584   -52682.033   0.26163043 
  150800    281.67158   -1260.7775     143396.5   -48837.589    3868.0808    -52705.67   0.25813448 
  151000    278.49455   -1121.7368    143089.08   -48878.694    3824.4521   -52703.146   0.27985262 
  151200    282.86257   -767.74508    142484.21   -48875.988    3884.4362   -52760.424   0.28469752 
  151400    284.49843   -794.72168    142557.77   -48794.448    3906.9008   -52701.349   0.29873778 
  151600    281.08355   -1142.9449    143142.68   -48772.921    3860.0057   -52632.926   0.26048748 
  151800    280.34227   -1226.6305     143343.6   -48780.499     3849.826   -52630.325   0.25883415 
  152000    280.14631   -1011.3895    142902.03    -48788.42    3847.1349   -52635.555   0.28149126 
  152200    279.42723    -818.4921    142511.55   -48812.662    3837.2602   -52649.922   0.29411138 
  152400    279.92703   -938.34325    142702.08   -48856.356    3844.1237    -52700.48   0.29146349 
  152600    279.99664   -1094.2518    143083.24   -48821.092    3845.0797   -52666.172   0.26699311 
  152800    281.64734   -1092.8615    143095.14   -48754.487     3867.748   -52622.235   0.27468851 
  153000    281.14848    -969.0004    142758.04   -48825.763    3860.8973    -52686.66   0.28751921 
  153200    287.28486   -847.45029    142596.63   -48773.342    3945.1658   -52718.508    0.2906728 
  153400    281.82125   -1024.9679     142851.5   -48820.401    3870.1362   -52690.537   0.27869917 
  153600    282.74698    -1080.352    143022.26   -48842.653    3882.8488   -52725.501   0.25836406 
  153800    283.87194   -1044.5267    142822.41   -48873.074    3898.2975   -52771.372   0.29111741 
  154000    273.74104   -891.12701    142592.68   -48889.902     3759.174   -52649.076   0.29422523 
  154200    277.08676   -937.33107    142688.09   -48837.275    3805.1194   -52642.394    0.2837698 
  154400    279.67693   -1110.4465    142974.93   -48827.867    3840.6892   -52668.556   0.28751266 
  154600    278.15767   -1120.4369    143028.21   -48847.253    3819.8258   -52667.078   0.26661924 
  154800    279.19272   -937.61979    142790.58   -48866.028    3834.0397   -52700.068    0.2824213 
  155000     282.4199   -908.91257    142661.72   -48858.095    3878.3572   -52736.452   0.29352022 
[...]
  163200    275.47499   -919.88764    142711.45   -48923.389    3782.9857   -52706.375   0.28701998 
  163400    272.96562   -819.00885    142465.71   -48961.106    3748.5255   -52709.632   0.30470035 
  163600    279.09091   -982.05665    142834.68   -48909.482    3832.6416   -52742.123   0.26558221 
  163800    273.63012   -1196.5545    143200.91   -48958.953    3757.6508   -52716.604    0.2606657 
  164000    279.74843   -1097.4475    142917.78   -48979.206     3841.671   -52820.877   0.27558074 
  164200    274.33834   -794.91958    142419.44   -48983.567    3767.3765   -52750.944   0.28921106 
  164400    279.85935   -806.20049     142525.5   -48928.635    3843.1942    -52771.83   0.28144135 
  164600    278.16698   -1140.5429    143108.19   -48900.167    3819.9536    -52720.12   0.27214375 
  164800    277.49706   -1211.0473    143241.57   -48931.969    3810.7538   -52742.723   0.25358991 
  165000     277.6589   -941.14816    142690.04   -48916.772    3812.9763   -52729.749    0.2808481 
  165200    281.53637   -760.76478    142352.61   -48918.525     3866.224   -52784.749   0.30337976 
  165400    273.55468   -984.14275    142748.13   -48941.326    3756.6148   -52697.941   0.27768544 
  165600    277.54102   -1199.2981    143233.71   -48874.784    3811.3576   -52686.142   0.26118449 
  165800    274.89209   -1148.9168    143064.33   -48899.223    3774.9809   -52674.204   0.27208194 
  166000    277.06291   -869.66346    142552.05   -48867.146    3804.7918   -52671.938   0.28390359 
  166200    280.23323   -839.32021    142503.71   -48897.235    3848.3286   -52745.564   0.29722404 
  166400    273.93106   -1039.1042    142921.76   -48886.585    3761.7834   -52648.369    0.2736127 
  166600    276.97269   -1146.3586    143133.46   -48877.394    3803.5529   -52680.947   0.25834146 
  166800    273.53526   -1030.3924    142862.97   -48938.858    3756.3482   -52695.206   0.27570766 
  167000    281.56169   -875.42528    142582.27   -48945.072    3866.5718   -52811.644    0.2876068 
  167200    277.94059   -900.52803     142694.4    -48894.58    3816.8447   -52711.425   0.28235461 
  167400    278.61638    -1093.087    143004.78   -48934.581    3826.1251   -52760.706   0.25600666 
  167600    274.60372   -1096.8803    143050.21   -48915.913    3771.0209   -52686.934   0.27278678 
  167800     275.2353   -967.78051     142815.9   -48986.093    3779.6941   -52765.787   0.26999498 
  168000    277.23266   -909.99441     142666.2   -48977.842     3807.123   -52784.965    0.2724723 
  168200    274.80371   -1028.5648    142786.68   -48974.574    3773.7672   -52748.341   0.28713334 
  168400    277.87858   -1069.5932    142957.54   -48930.755    3815.9931   -52746.748    0.2702598 
  168600     274.9699   -1061.0181    142943.66   -48941.389    3776.0494   -52717.438   0.26125669 
  168800     274.4625   -984.90504    142775.74   -48982.615    3769.0815   -52751.696   0.28685236 
  169000     276.4248     -932.963    142693.88   -48969.233     3796.029   -52765.262   0.28524289 
  169200    279.10354   -1002.6954    142815.72   -48938.982     3832.815   -52771.797   0.27119486 
  169400    274.88624   -1105.8796    142950.12   -48961.937    3774.9006   -52736.838   0.28611317 
  169600    278.14421   -1025.9631    142876.17    -48973.29    3819.6409   -52792.931   0.27722129 
  169800    281.22832   -950.91649    142708.03   -48981.394    3861.9938   -52843.388   0.26764447 
  170000    272.27475    -915.0213    142696.56   -49018.681    3739.0381   -52757.719   0.28345675 
  170200    276.27565    -1063.495    142876.54   -49025.732    3793.9808   -52819.713   0.27641818 
  170400    280.72492   -1028.0281     142933.6   -48996.011    3855.0808   -52851.092   0.25553476 
  170600    274.35553   -1009.2169    142781.87   -48979.319    3767.6125   -52746.931   0.27740727 
  170800    275.21746   -926.87863    142650.66    -49005.24     3779.449   -52784.689   0.28860753 
  171000    270.79804   -972.47483    142738.21   -49002.843     3718.759   -52721.602   0.27578403 
  171200     269.3623   -1089.1171    142872.46    -49026.58    3699.0425   -52725.622   0.28035643 
  171400    273.37556   -1030.8098    142821.52   -49022.565     3754.155    -52776.72    0.2838989 
  171600    277.95103   -953.31256    142668.74   -48990.974    3816.9881   -52807.962   0.28040322 
  171800    274.30545   -917.29158    142663.38   -48969.796    3766.9248    -52736.72   0.27501887 
  172000     275.5821   -1025.8675    142842.69    -48973.15    3784.4565   -52757.606   0.26820426 
  172200    270.85246   -1103.8818    142919.86   -48977.352    3719.5063   -52696.858   0.27317438 
  172400    274.71542   -955.59306    142730.96   -48949.536    3772.5548   -52722.091   0.28082747 
  172600    274.97297   -886.86505    142627.52    -48935.61    3776.0916   -52711.701   0.29229632 
  172800    272.72868   -1051.6709    142820.09   -48940.245    3745.2717   -52685.516   0.28485692 
  173000    271.10426    -1124.097    143006.27   -48954.719    3722.9642   -52677.684   0.26982381 
  173200    273.54544   -1058.0792     142838.1   -48992.406    3756.4879   -52748.894   0.28191863 
  173400    274.76295   -821.64941    142467.75   -48984.437    3773.2075   -52757.645   0.28627975 
  173600    276.59504   -859.99587    142514.09   -48937.699    3798.3668   -52736.066   0.29353097 
  173800    274.14045   -1168.0077    143035.53   -48929.751    3764.6589    -52694.41   0.27179034 
  174000    274.77704   -1249.4515    143215.36   -48890.277    3773.4009   -52663.678    0.2580158 
  174200    277.55218   -930.94155    142676.66   -48892.119    3811.5108    -52703.63   0.30036587 
  174400    277.81323   -698.13555    142238.79   -48881.367    3815.0957   -52696.462   0.30279915 
  174600    272.71428   -923.90322    142710.97   -48886.798    3745.0739   -52631.871   0.28487252 
  174800    284.17076   -1283.7522    143433.98   -48840.194    3902.4011   -52742.595   0.26271878 
  175000     277.9132   -1239.2805    143253.15   -48888.403    3816.4686   -52704.872   0.25398158 
  175200    279.42309   -769.33209    142399.93   -48897.476    3837.2033   -52734.679   0.30074385 
  175400    277.51205   -674.61427    142220.37   -48910.789    3810.9597   -52721.749   0.30233992 
  175600    278.28072   -1069.0294    143002.42   -48911.674    3821.5156   -52733.189   0.26180432 
  175800    276.71113   -1342.5821    143506.11    -48886.43     3799.961   -52686.391   0.25273436 
  176000    278.39792   -1151.0527    142977.92   -48883.693     3823.125   -52706.818   0.27589879 
  176200    282.37301   -696.34085    142289.38   -48844.976    3877.7132   -52722.689   0.30349279 
  176400    279.68803   -821.56985    142520.99   -48881.682    3840.8416   -52722.523   0.28665517 
  176600    281.15081   -1187.0326    143236.03   -48851.435    3860.9294   -52712.365   0.26585976 
  176800    277.59021   -1252.6489    143293.64   -48854.959    3812.0331   -52666.992   0.25671138 
  177000    276.65322   -906.40716     142638.9   -48879.359    3799.1658   -52678.524    0.2827556 
  177200     277.2284   -728.13419    142319.82   -48897.808    3807.0644   -52704.872   0.30377415 
  177400    284.18131   -982.21042    142750.79   -48978.635    3902.5459   -52881.181   0.26366812 
  177600    277.92113    -1176.876    143164.55   -48937.972    3816.5774   -52754.549   0.26107882 
  177800    278.76054   -1096.6353    142955.78   -48919.336    3828.1048   -52747.441   0.27144553 
  178000    276.38204   -869.44119    142515.97   -48885.819    3795.4418   -52681.261    0.2907728 
  178200    277.62746   -834.64072    142534.75   -48920.297    3812.5446   -52732.842   0.29731297 
  178400    277.63546   -1075.6737    142930.97   -48890.994    3812.6545   -52703.648    0.2680732 
  178600    282.39202   -1120.1224    143065.25   -48902.841    3877.9744   -52780.816   0.26743138 
  178800    276.61456   -990.51914    142740.79   -48877.591    3798.6348   -52676.225   0.28330548 
  179000    278.67814   -849.66189    142503.25   -48857.133    3826.9731   -52684.106   0.28991518 
  179200    274.37762   -953.52633    142707.85    -48877.09    3767.9159   -52645.006   0.28910412 
  179400     279.0334   -1080.1125    143032.81    -48846.59    3831.8518   -52678.442   0.26786433 
  179600    273.02258   -1106.9139     142999.9   -48851.585    3749.3076   -52600.892   0.28017062 
  179800    276.32049   -965.16654    142679.05   -48883.766    3794.5965   -52678.362   0.28108572 
  180000    278.70774   -882.09177    142564.36   -48853.815    3827.3797   -52681.195   0.29820049 
  180200    280.15343   -1022.0203    142823.84    -48814.14    3847.2327   -52661.373   0.28620334 
  180400    286.45047   -1072.5263    143058.44   -48767.626    3933.7074   -52701.333   0.25515093 
  180600    277.57493   -1100.2507    142929.95   -48853.174    3811.8233   -52664.997   0.28686521 
  180800    279.10111   -922.74182     142653.7   -48823.298    3832.7817    -52656.08   0.27461368 
  181000    281.77211   -937.24336    142664.61    -48863.35    3869.4615   -52732.812    0.2847837 
  181200    279.57426   -1043.6592    142930.32   -48844.514    3839.2793   -52683.794   0.28176526 
  181400    278.56362    -1117.519    143051.35   -48879.589    3825.4005    -52704.99   0.25927506 
  181600    278.49874   -1004.0436    142830.49   -48902.802    3824.5096   -52727.312   0.27851859 
  181800    283.65879   -863.71964     142619.5    -48880.54    3895.3703    -52775.91   0.28053987 
  182000    278.31256    -980.6033    142801.83   -48887.653    3821.9527   -52709.605   0.28446159 
  182200    277.82686   -1119.0946    143116.86   -48898.269    3815.2829   -52713.552   0.26133042 
  182400    272.23018   -1120.2384    143030.05   -48900.657     3738.426   -52639.083    0.2679362 
  182600     275.8454   -865.49774    142639.44   -48871.276    3788.0724   -52659.349    0.2992082 
  182800    283.78227   -838.36731    142607.79   -48840.228    3897.0661   -52737.294   0.26796248 
  183000    281.50124   -1091.4544    143013.48    -48835.54    3865.7416   -52701.281   0.28611789 
  183200    281.08574   -1180.2135    143223.29   -48813.933    3860.0357   -52673.968   0.26341518 
  183400    277.39041   -989.88992    142888.15   -48827.392    3809.2893   -52636.681   0.26336915 
  183600    284.12919   -837.44819    142507.26   -48860.949    3901.8302   -52762.779    0.3030087 
  183800    281.41071   -866.68582    142655.38   -48890.769    3864.4984   -52755.267   0.27180043 
  184000    278.25523   -1174.1043    143120.48   -48895.743    3821.1655   -52716.908     0.277728 
  184200     283.2926   -1151.1814    143122.38    -48934.76    3890.3417   -52825.102   0.26485893 
  184400    278.94779   -814.42332    142580.43   -48952.958    3830.6762   -52783.634   0.27140943 
  184600    276.28337   -777.03767    142348.61   -48963.869    3794.0868   -52757.956   0.30043214 
  184800     272.2882   -1010.9071    142800.54   -48946.163    3739.2227   -52685.385   0.27832241 
  185000    276.47475   -1251.2532    143277.32    -48928.61    3796.7149   -52725.325   0.27346281 
  185200    269.97168   -1149.2446    142978.46   -48986.234    3707.4109   -52693.645   0.26935809 
  185400    275.91248   -744.26347     142249.9   -48975.271    3788.9935   -52764.264   0.32053563 
  185600    280.01084   -688.92571    142298.55   -48979.192    3845.2746   -52824.467   0.30236101 
  185800    278.39112   -1217.4876    143155.89   -48914.875    3823.0316   -52737.906   0.24826915 
  186000    274.36348   -1358.4742    143489.68   -48894.073    3767.7216   -52661.795   0.27160836 
  186200    275.81332   -993.93741    142781.99   -48896.628    3787.6317    -52684.26   0.27205935 
  186400    276.73456   -606.46437    142137.22   -48856.149    3800.2827   -52656.431    0.3056033 
  186600    275.54516   -846.15189       142617    -48885.26    3783.9492   -52669.209   0.30194163 
  186800    273.82219   -1331.0644    143483.77   -48896.123    3760.2884   -52656.411    0.2481952 
  187000    279.34771   -1206.6962    143359.11    -48870.81     3836.168   -52706.978    0.2552569 
  187200    276.22692    -821.5894    142529.32   -48902.451    3793.3116   -52695.762    0.2829882 
  187400    279.31278   -745.03847    142320.96   -48892.919    3835.6884   -52728.607   0.29658207 
  187600    274.56512   -1031.1585    142948.59   -48923.946    3770.4908   -52694.437   0.26933297 
  187800    277.38685   -1302.5051    143362.29   -48905.746    3809.2404   -52714.986   0.25886315 
  188000    277.67761   -1028.6653    142977.98   -48886.457    3813.2333    -52699.69   0.28373913 
  188200    277.86095   -796.28864    142491.78   -48885.887     3815.751   -52701.638   0.27411305 
  188400    278.10153   -856.76611    142629.53   -48873.382    3819.0548   -52692.436   0.28990829 
  188600    277.85754   -1146.4079    143111.72   -48871.508    3815.7042   -52687.213   0.26811889 
  188800    272.70734   -1173.9049    143164.26   -48882.545    3744.9786   -52627.524    0.2631837 
  189000     282.6305   -962.69356    142735.76   -48882.308    3881.2494   -52763.558   0.29705017 
  189200    276.22031   -847.23041    142507.38   -48888.962    3793.2208   -52682.183   0.28181335 
  189400     276.3339   -978.06837     142745.6   -48849.164    3794.7806   -52643.945   0.29245347 
  189600    281.05174   -1077.9822    143051.25    -48857.25    3859.5689   -52716.818   0.26830373 
  189800    280.99605   -1088.5577    142975.99   -48894.797    3858.8041   -52753.601   0.26140105 
  190000    277.35301   -921.38452    142667.35   -48928.843    3808.7757   -52737.618   0.29928735 
  190200    275.02841    -889.5696    142622.98   -48905.029     3776.853   -52681.882   0.28068397 
  190400    277.84725   -1053.4845    142891.38   -48899.764    3815.5629   -52715.327   0.28542202 
  190600    279.16692   -1103.8871    143049.53   -48843.321    3833.6854   -52677.007   0.27111727 
  190800    278.22365   -1013.6703    142848.18   -48876.495    3820.7318   -52697.227   0.28273508 
  191000    281.64509   -865.36512     142599.7   -48893.545    3867.7171   -52761.262   0.29010117 
  191200     276.3182   -952.11207    142688.45   -48886.098     3794.565   -52680.663   0.27264937 
  191400     276.7616   -1078.1281    142955.97   -48906.579    3800.6541   -52707.233    0.2956654 
  191600    277.15812   -1078.3351    143003.68   -48862.393    3806.0994   -52668.493   0.25681218 
  191800    275.59601   -970.23613    142769.02   -48898.309    3784.6475   -52682.956   0.28436429 
  192000    274.91365   -879.26582    142570.77   -48900.938    3775.2769   -52676.215   0.30858401 
  192200    277.16183   -908.68992    142721.52   -48870.083    3806.1503   -52676.233   0.26626559 
  192400    277.50942   -1101.8429    143011.71   -48872.393    3810.9236   -52683.317   0.28377614 
  192600    277.76176   -1072.1004    142989.72   -48901.818    3814.3889   -52716.207   0.26478353 
  192800     279.5403   -920.72085    142696.05   -48882.961    3838.8128   -52721.773   0.28397121 
  193000    275.85354   -883.48236    142609.68   -48876.423    3788.1841   -52664.607   0.28863178 
  193200    280.13075    -1046.536    142899.25    -48828.22    3846.9213   -52675.141   0.27432756 
  193400    282.95438   -1122.7723    143122.65   -48826.574     3885.697   -52712.271   0.28619202 
  193600    281.34163   -997.50821    142901.71   -48840.981    3863.5498   -52704.531   0.25885731 
  193800    277.92259   -864.39406    142561.92   -48892.885    3816.5974   -52709.482   0.29858645 
  194000    280.51248   -864.32626     142675.1   -48917.696    3852.1635   -52769.859   0.28312053 
  194200    275.67091    -1148.998    143129.31   -48897.028    3785.6761   -52682.704   0.25863956 
  194400    273.26217   -1196.9529    143182.37   -48877.017    3752.5978   -52629.615   0.28242618 
  194600    276.72136   -915.25164    142702.87   -48908.405    3800.1015   -52708.506   0.27560543 
  194800    276.11585   -776.00182    142437.83   -48898.715    3791.7863   -52690.501   0.30088335 
  195000    278.71825   -990.64937    142807.03   -48878.346     3827.524    -52705.87   0.27472025 
  195200    276.80783   -1206.5429    143231.86   -48855.884     3801.289   -52657.173   0.25987379 
  195400    278.82756    -1101.699    143051.22   -48860.948    3829.0251   -52689.973   0.27721185 
  195600    278.05807   -844.25944    142557.72   -48873.987     3818.458   -52692.445   0.28256102 
  195800    274.40157   -837.83595    142514.72   -48918.392    3768.2447   -52686.637   0.30695551 
  196000    280.28579   -1096.4316    142975.85    -48884.54    3849.0504    -52733.59   0.27300733 
  196200    282.21028   -1153.4873     143196.1    -48867.24    3875.4786   -52742.718   0.26305732 
  196400    278.93107   -1017.7288    142834.92    -48872.44    3830.4466   -52702.887   0.27946423 
  196600    276.93084   -814.57669    142438.88   -48940.635    3802.9782   -52743.613   0.28949878 
  196800    274.68013   -933.58043    142588.78   -48930.725    3772.0701   -52702.795   0.30643083 
  197000    274.40798    -1168.172    143081.85   -48932.637    3768.3329    -52700.97   0.26355664 
  197200     271.2193   -1197.7333    143154.64   -48984.141     3724.544   -52708.685   0.27055929 
  197400    276.86396   -885.05129    142647.78   -48951.603    3802.0598   -52753.663   0.28915581 
  197600    277.09836   -739.31693    142379.18   -48872.522    3805.2786     -52677.8   0.29348237 
  197800     280.7123   -1033.6707    142827.37   -48855.312    3854.9075    -52710.22   0.29119863 
  198000    276.19305    -1260.827    143304.91   -48873.627    3792.8465   -52666.473   0.26049532 
  198200    281.06762   -1147.7943    143015.02   -48901.669    3859.7869   -52761.456   0.27244534 
  198400    275.29106   -760.90033    142334.64   -48840.958    3780.4598   -52621.418    0.2970082 
  198600    277.84682   -783.25322    142383.34   -48831.566     3815.557   -52647.123   0.29397805 
  198800    283.28658   -1160.3096    143157.07   -48851.479     3890.259   -52741.738   0.27076518 
  199000    282.18475   -1327.4266    143470.47   -48850.846     3875.128   -52725.974   0.24167329 
  199200    282.34497   -910.28019    142751.77    -48856.29    3877.3282   -52733.618   0.28932187 
  199400    279.32474   -613.29101    142086.41    -48876.19    3835.8526   -52712.042   0.30432802 
  199600    279.90073   -860.80386    142622.27   -48894.411    3843.7626   -52738.174   0.27545799 
  199800    280.58256   -1409.8076    143593.48   -48857.322    3853.1257   -52710.448    0.2544339 
  200000    275.40305   -1292.7729     143394.2   -48878.269    3781.9977   -52660.267   0.24576526 
Loop time of 229.293 on 6 procs for 200000 steps with 4608 atoms

Performance: 376.811 ns/day, 0.064 hours/ns, 872.247 timesteps/s
98.9% CPU use with 6 MPI tasks x no OpenMP threads

MPI task timing breakdown:
Section |  min time  |  avg time  |  max time  |%varavg| %total
---------------------------------------------------------------
Pair    | 188.23     | 189.89     | 192.74     |  12.1 | 82.82
Neigh   | 12.986     | 13.285     | 13.782     |   9.4 |  5.79
Comm    | 13.338     | 15.954     | 17.607     |  39.2 |  6.96
Output  | 3.0398     | 3.0408     | 3.0447     |   0.1 |  1.33
Modify  | 5.6884     | 5.8097     | 5.9199     |   3.0 |  2.53
Other   |            | 1.31       |            |       |  0.57

Nlocal:        768.000 ave         782 max         757 min
Histogram: 2 0 0 2 0 0 0 0 0 2
Nghost:        1639.33 ave        1655 max        1630 min
Histogram: 1 1 1 0 2 0 0 0 0 1
Neighs:        0.00000 ave           0 max           0 min
Histogram: 6 0 0 0 0 0 0 0 0 0
FullNghs:      24027.3 ave       24569 max       23609 min
Histogram: 1 1 0 2 0 0 0 0 1 1

Total # of neighbors = 144164
Ave neighs/atom = 31.285590
Neighbor list builds = 13413
Dangerous builds = 0
write_data		data.${NAME}
write_data		data.ice_278K_-1000atm_mW
System init for write_data ...
Total wall time: 0:05:40
