

read_data data.ice_${TEMP}K_${PRES}atm_mW group ice
read_data data.ice_278K_${PRES}atm_mW group ice
read_data data.ice_278K_-1000atm_mW group ice
Reading data file ...
  orthogonal box = (0.32684046 0.29052485 0.29052485) to (56.943670 50.616595 50.616595)
  3 by 1 by 2 MPI processor grid
  reading atoms ...
  4608 atoms
  reading velocities ...
  4608 velocities
  read_data CPU = 0.022 seconds
read_data data.liq_${TEMP}K_${PRES}atm_mW add append shift ${X_HI} ${YZ_LO} ${YZ_LO} group water
read_data data.liq_278K_${PRES}atm_mW add append shift ${X_HI} ${YZ_LO} ${YZ_LO} group water
read_data data.liq_278K_-1000atm_mW add append shift ${X_HI} ${YZ_LO} ${YZ_LO} group water
read_data data.liq_278K_-1000atm_mW add append shift 50.6165951501476 ${YZ_LO} ${YZ_LO} group water
read_data data.liq_278K_-1000atm_mW add append shift 50.6165951501476 -0.290524849854208 ${YZ_LO} group water
read_data data.liq_278K_-1000atm_mW add append shift 50.6165951501476 -0.290524849854208 -0.290524849854208 group water
Reading data file ...
  orthogonal box = (0.32684046 -0.3250032 -0.3250032) to (104.50010 50.651074 50.651074)
  3 by 1 by 2 MPI processor grid
  reading atoms ...
  4608 atoms
  reading velocities ...
  4608 velocities
  read_data CPU = 0.010 seconds

write_data data.icewater_test
System init for write_data ...
WARNING: Communication cutoff is 0.0. No ghost atoms will be generated. Atoms may get lost. (../comm_brick.cpp:167)

# Define potential
#
pair_style sw
pair_coeff * * /data/emrosky-sim/Freezing_Simulations/Melting/mW_fancy/mW.sw mW
Reading sw potential file /data/emrosky-sim/Freezing_Simulations/Melting/mW_fancy/mW.sw with DATE: 2019-02-27

# Delete water and ice atoms that are overlapping
#
delete_atoms overlap 2.5 water ice
System init for delete_atoms ...
Neighbor list info ...
  update every 1 steps, delay 10 steps, check yes
  max neighbors/atom: 2000, page size: 100000
  master list distance cutoff = 6.3065
  ghost atom cutoff = 6.3065
  binsize = 3.15325, bins = 34 17 17
  2 neighbor lists, perpetual/occasional/extra = 1 1 0
  (1) command delete_atoms, occasional, copy from (2)
      attributes: full, newton on
      pair build: copy
      stencil: none
      bin: none
  (2) pair sw, perpetual
      attributes: full, newton on
      pair build: full/bin/atomonly
      stencil: full/bin/3d
      bin: standard
Deleted 706 atoms, new total = 8510

# set timestep
#
timestep 10.0

# Define output
#
compute 1 all msd
thermo 50
thermo_style custom step temp press vol etotal ke pe c_1[4]

# Neighbor lists
#
neigh_modify delay 0 every 1 check yes

# Set fixes
#
fix 1 all momentum 10 linear 1 1 1 rescale
fix 2 all nph iso ${PRES} ${PRES} ${PCOUPL}
fix 2 all nph iso -1000 ${PRES} ${PCOUPL}
fix 2 all nph iso -1000 -1000 ${PCOUPL}
fix 2 all nph iso -1000 -1000 10000.0
fix 3 all temp/csvr ${TEMP} ${TEMP} ${TCOUPL} 837492
fix 3 all temp/csvr 278 ${TEMP} ${TCOUPL} 837492
fix 3 all temp/csvr 278 278 ${TCOUPL} 837492
fix 3 all temp/csvr 278 278 5000.0 837492


# Fix ice atoms in place
#
velocity ice set 0.0 0.0 0.0
fix 4 ice setforce 0.0 0.0 0.0

# Run 1.0 ns equilibration of water
#
dump 1 all atom 1000 eq.all.${NAME}.dump
dump 1 all atom 1000 eq.all.coexist_278K_-1000atm_mW.dump
run 100000
Neighbor list info ...
  update every 1 steps, delay 0 steps, check yes
  max neighbors/atom: 2000, page size: 100000
  master list distance cutoff = 6.3065
  ghost atom cutoff = 6.3065
  binsize = 3.15325, bins = 34 17 17
  1 neighbor lists, perpetual/occasional/extra = 1 0 0
  (1) pair sw, perpetual
      attributes: full, newton on
      pair build: full/bin/atomonly
      stencil: full/bin/3d
      bin: standard
Per MPI rank memory allocation (min/avg/max) = 4.597 | 4.604 | 4.610 Mbytes
Step Temp Press Volume TotEng KinEng PotEng c_1[4] 
       0    126.09153   -2000.0443    270700.52   -85728.091    3198.1493    -88926.24            0 
      50    156.39455   -1683.7594    268598.51   -85445.058    3966.7464   -89411.804     1.023802 
     100    160.44848   -1007.7369    264891.93    -85235.09    4069.5692   -89304.659    2.2927967 
     150    170.54906   -653.84363    263147.48   -84955.853    4325.7574    -89281.61    3.6040989 
     200    176.31065   -800.56631     263102.3   -84686.817    4471.8926   -89158.709    4.8831223 
     250    177.88567   -835.93357    263929.57   -84423.933     4511.841   -88935.774    6.1022181 
     300    182.95194   -858.17695    265018.78   -84146.387    4640.3405   -88786.728    7.5511651 
     350    192.76285   -1292.2789    266158.26   -83845.553    4889.1815   -88734.734     9.050005 
     400    191.46502   -1288.2463     266490.3   -83669.636    4856.2638     -88525.9    10.741569 
     450     198.1006   -1110.8542    266226.31   -83476.002    5024.5666   -88500.568    12.388896 
     500    198.75638   -881.75313    265856.98   -83294.245    5041.1997   -88335.445    14.222338 
     550    201.18697   -949.13766    265821.85   -83125.711    5102.8485   -88228.559    16.265807 
     600    208.29456   -888.09964    266001.94   -82941.386    5283.1235    -88224.51    18.476443 
     650    212.34154   -934.75006    266461.92   -82788.971    5385.7699   -88174.741    20.579085 
     700      212.381   -1018.0373    267129.23   -82571.818    5386.7706   -87958.589    22.644879 
     750    216.30134     -1077.28    267744.81   -82430.186     5486.205   -87916.391    24.796078 
     800    215.82808   -1125.4561    268138.83   -82272.215    5474.2014   -87746.417    27.070187 
     850    219.44472   -1118.4827    267946.89   -82155.639    5565.9328   -87721.572    29.361159 
     900    223.16558   -887.31352    267557.56   -82033.837    5660.3077   -87694.145    31.870039 
     950    227.29145   -949.50254    267530.97   -81911.712     5764.955   -87676.667    34.555523 
    1000    229.80888   -875.95191    267840.08    -81748.59    5828.8064   -87577.396    37.299453 
    1050    230.02144   -1137.2564    268637.33   -81632.863    5834.1978   -87467.061    40.037212 
    1100    235.10841   -1162.8748    269255.43   -81475.814    5963.2221   -87439.036    42.532252 
    1150    238.41451   -1136.7402       269274   -81332.793    6047.0772    -87379.87    45.411988 
    1200    232.95442   -973.72157    269035.21   -81263.693     5908.589   -87172.282    48.122101 
    1250    239.83161   -798.99276    268644.75   -81181.385      6083.02   -87264.405    51.039711 
    1300    240.18725   -806.81509    268874.43   -81126.346    6092.0404   -87218.386    54.065972 
    1350    243.36113   -1133.1593    269627.18    -80974.88    6172.5418   -87147.421    57.267866 
    1400    238.20521   -1077.0955    270025.77   -80868.633    6041.7685   -86910.402    60.016461 
    1450    246.98996   -1132.6302    270049.23   -80760.735    6264.5825   -87025.318    62.754157 
    1500    245.54422   -925.75077    269835.44   -80741.272    6227.9131   -86969.185     65.55986 
    1550    249.00019   -894.73735    269624.64    -80639.17    6315.5694    -86954.74    68.207587 
    1600    250.52631   -1091.4717    269809.92    -80566.97    6354.2774   -86921.248    71.021865 
    1650    245.71169   -971.16029    270244.29   -80503.588    6232.1606   -86735.748    74.122991 
    1700     251.7561   -1000.8859    270684.63   -80442.747    6385.4693   -86828.216    76.793932 
    1750     254.5783   -911.10269    270698.33    -80351.29     6457.051   -86808.341    79.506085 
    1800    254.47584   -927.47274    270370.58   -80330.037    6454.4521   -86784.489    82.342378 
    1850    260.40721    -979.5729    270320.74   -80239.226    6604.8936   -86844.119    85.452805 
    1900    257.57959   -909.27697    270564.91   -80181.182    6533.1746   -86714.357    88.530054 
    1950    257.95799   -943.38645    270914.96   -80122.619    6542.7723   -86665.392    91.589044 
    2000    265.10559   -1022.1244    270913.95   -80034.041     6724.062   -86758.103     94.68626 
    2050    262.17813   -938.55782    270616.02   -80009.069    6649.8108   -86658.879     97.93345 
    2100    260.83344    -856.5337    270495.39   -79974.544    6615.7044   -86590.248    100.78254 
    2150    264.66654   -744.08994    270650.33   -79883.892    6712.9262   -86596.818    104.15766 
    2200    266.98583   -1012.6107    271376.17   -79821.294    6771.7518   -86593.046    107.09163 
    2250    263.86559    -1174.829    271960.85   -79788.475    6692.6111   -86481.086    110.01572 
    2300    265.73658   -1202.8868    271812.06   -79773.232    6740.0663   -86513.298    113.08553 
    2350    267.75558   -1038.0677    271118.62   -79718.831    6791.2756   -86510.107    115.91222 
    2400    267.32039   -1067.4191     270753.1   -79738.743    6780.2376   -86518.981     119.6672 
    2450    267.16862   -923.12947    270837.92   -79761.241    6776.3882   -86537.629    122.89053 
    2500    264.70239   -1013.9676    271292.65   -79765.821    6713.8354   -86479.656    126.16968 
    2550     266.9155   -1234.1075    271529.11   -79680.783    6769.9679   -86450.751    130.00747 
    2600    267.03533    -1154.059     271412.6   -79695.678    6773.0074   -86468.685    133.46256 
    2650    265.74782   -985.86093    271218.59   -79704.155    6740.3514   -86444.507    136.52552 
    2700    269.39766   -987.77382    271178.05   -79661.963    6832.9248   -86494.888    139.90558 
    2750    269.78401   -1159.9991    271346.21   -79625.149    6842.7241   -86467.873    143.14695 
    2800    266.31484   -1026.6941    271665.84   -79646.923    6754.7331   -86401.656    146.31048 
    2850    267.62334   -966.21712    271804.17   -79604.932    6787.9215   -86392.854    150.13988 
    2900    268.75183   -1049.5574    271797.01   -79569.971    6816.5443   -86386.515    153.41369 
    2950    269.82557   -986.84595    271374.71   -79568.117    6843.7782   -86411.895    156.32295 
    3000    266.82054   -699.60625    270939.97   -79578.954    6767.5594   -86346.513    159.61887 
    3050    271.80622   -963.96123    270900.29   -79560.038    6894.0149   -86454.053    162.88132 
    3100    271.50642   -1193.7828       271368   -79489.359    6886.4109    -86375.77    165.76718 
    3150    270.27253   -1275.4399    271722.03   -79439.744    6855.1147   -86294.859    168.77017 
    3200    274.40363    -1235.432    271821.13   -79405.406    6959.8948   -86365.301    171.76552 
    3250    269.50087   -994.50814    271743.68   -79378.291    6835.5425   -86213.833    175.51494 
    3300     274.9246   -783.95244     271679.1   -79396.133    6973.1086   -86369.241    179.08872 
    3350    272.79412   -1074.9985    271888.55   -79416.908    6919.0716    -86335.98    182.18409 
    3400    272.43212   -1099.5283    271935.63   -79423.434    6909.8901   -86333.324    185.33282 
    3450    271.74546   -1032.2466    271868.49   -79474.634    6892.4739   -86367.108    187.78379 
    3500     272.3516    -929.6005    271761.37   -79477.398    6907.8478   -86385.246    190.66801 
    3550      275.684   -1160.7718    271760.59   -79462.853    6992.3697   -86455.222    193.89906 
    3600    269.77448   -1125.8639    271730.74   -79441.069    6842.4824   -86283.551    197.12402 
    3650    274.36224   -1105.4103    271511.44   -79418.181     6958.845   -86377.026      200.736 
    3700    274.53623   -807.88838    271362.05   -79386.565     6963.258   -86349.823    204.27112 
    3750    279.40918   -983.40114     271627.3   -79296.533    7086.8542   -86383.387    207.49226 
    3800    276.47023   -925.74784    271892.58   -79293.513    7012.3115   -86305.824    210.21623 
    3850    275.85698   -995.13036    272191.26   -79244.935    6996.7573   -86241.692    214.08883 
    3900    274.35934   -936.78543    272313.28   -79211.749    6958.7714   -86170.521    217.49432 
    3950    276.85674    -853.3693    272223.57   -79207.707    7022.1147   -86229.822     220.8148 
    4000    278.03781   -939.02984    272174.86   -79269.892    7052.0712   -86321.963    224.74557 
    4050    280.12067   -1197.5037    272062.94   -79276.794    7104.9001   -86381.694    228.74121 
    4100    282.47473   -857.43366    271589.61   -79276.796    7164.6079   -86441.404    231.63091 
    4150    274.33659   -866.48146    271383.34   -79320.343    6958.1945   -86278.538    234.88578 
    4200    278.71028   -922.08973    271398.99    -79296.84    7069.1275   -86365.967    238.43438 
    4250     280.1991   -1196.4289    271474.27   -79282.709    7106.8895   -86389.599    242.12007 
    4300    282.60537   -915.36947    271570.14   -79271.788    7167.9214    -86439.71    245.27217 
    4350    280.38879   -943.27438    271779.86   -79273.577    7111.7006   -86385.277    248.91057 
    4400    273.67635   -1057.9571    271814.52   -79294.474    6941.4484   -86235.922    252.60809 
    4450     276.7468   -975.03131    271575.53   -79279.615    7019.3262   -86298.942    255.64402 
    4500    278.47881   -873.83523    271437.02   -79267.408    7063.2564   -86330.664    258.33815 
    4550    279.56983   -1062.1776    271680.47   -79257.624    7090.9288   -86348.552    261.02609 
    4600    278.97172    -915.9442    271893.22   -79238.136    7075.7584   -86313.895    263.94081 
    4650     272.7462   -1337.0925    272165.43    -79238.22    6917.8562   -86156.077    267.07847 
    4700    275.20404   -975.80204    271809.79    -79237.66    6980.1963   -86217.857     269.2309 
    4750    274.66781   -886.66565    271348.31   -79275.627    6966.5954   -86242.222    271.78081 
    4800    277.95459   -821.45921    271209.33   -79253.474    7049.9603   -86303.434    274.23749 
    4850    281.82202   -704.57492    271503.44   -79210.768    7148.0527    -86358.82    276.72431 
    4900    275.08411   -1154.6426    272032.44   -79204.955    6977.1543   -86182.109    280.60153 
    4950    277.64492   -1160.3607    271993.98   -79208.516     7042.106   -86250.622    283.61953 
    5000    278.85145   -1162.7201    271465.48   -79214.306    7072.7079   -86287.013     287.2166 
    5050    280.29002   -964.66411    271173.52   -79231.741    7109.1956   -86340.937    289.69758 
    5100    284.31648   -791.13516    271595.36   -79217.824    7211.3216   -86429.145    293.12412 
    5150    277.58505   -892.74925     272264.4   -79230.722    7040.5875   -86271.309    297.22876 
    5200    276.95254   -1183.6448    272497.48   -79178.279    7024.5447   -86202.824    300.40454 
    5250     276.7784   -788.62371    271966.93   -79168.713    7020.1279   -86188.841    303.71587 
    5300    277.80318   -883.46942     271575.2    -79132.59    7046.1201    -86178.71    306.83061 
    5350    279.17086   -798.37758     271594.7   -79126.058    7080.8094   -86206.867    310.35801 
    5400     279.6066    -933.7494     271783.6    -79132.09    7091.8614   -86223.951    313.60776 
    5450    282.38263    -1081.086    271778.78   -79120.648     7162.272    -86282.92    316.64418 
    5500    281.35086   -1087.9077    271523.06   -79130.187    7136.1023   -86266.289    319.24314 
    5550    281.04981   -904.41118    271375.69   -79172.298    7128.4666   -86300.765    322.07987 
    5600    279.98285   -991.09681     271823.6   -79137.719    7101.4047   -86239.123    326.12231 
    5650    279.61745   -1213.9897    272327.86    -79119.32    7092.1367   -86211.456    330.03081 
    5700    284.52564   -844.42416    272216.63   -79071.722    7216.6266   -86288.349    332.99237 
    5750    280.27784   -979.13836     272038.2   -79103.415    7108.8866   -86212.302      335.338 
    5800    278.26904   -1099.5778    271692.05    -79126.88     7057.936   -86184.816    339.19125 
    5850    281.42822   -798.64974    271332.06   -79128.279    7138.0644   -86266.344    342.00931 
    5900    277.53957     -663.357    271534.29   -79088.638    7039.4338   -86128.072    344.70699 
    5950    285.37768   -1172.8098    272312.01   -79059.567    7238.2374   -86297.804    348.96023 
    6000     278.6389   -1155.6297     272695.3   -79091.317     7067.317   -86158.634    352.07471 
    6050    280.69751   -1079.9385    272602.18   -79139.742     7119.531   -86259.273     354.3617 
    6100    277.40364   -1099.9089     272307.5     -79133.1    7035.9862   -86169.087    357.27915 
    6150    281.68203   -972.51823    271724.49   -79115.364    7144.5021   -86259.866    359.28264 
    6200    286.42061   -857.07537    271141.29   -79118.443      7264.69   -86383.133    362.35004 
    6250    281.74983   -755.93091    270996.92   -79082.472    7146.2218   -86228.694    366.17649 
    6300    279.01047   -978.80773    271510.81    -79082.61    7076.7415   -86159.352    369.95272 
    6350     280.0513   -1070.3895    272172.04   -79108.018    7103.1406   -86211.159    375.28883 
    6400    281.04535   -1140.0079    272342.27   -79042.831    7128.3534   -86171.184    379.57653 
    6450    283.42203    -896.0982    272094.08   -79046.557    7188.6348   -86235.192    382.67242 
    6500    288.81793   -1055.4525    271786.13   -79058.176     7325.495   -86383.671    385.41601 
    6550    281.27388   -778.14694    271619.08     -79063.9    7134.1499    -86198.05    389.29889 
    6600    280.64067   -1190.3202    271609.39   -79149.422    7118.0894   -86267.511    392.04985 
    6650    279.47245   -918.50997     271574.2   -79186.941     7088.459     -86275.4    393.96169 
    6700    278.55768   -857.25785    271801.35   -79198.661    7065.2569   -86263.917    395.86897 
    6750    277.29457   -1090.6099    271961.82   -79221.562    7033.2198   -86254.782    398.94694 
    6800     275.0712   -1192.1287    271829.37   -79225.399    6976.8268   -86202.226    401.79432 
    6850    284.03288   -979.67409    271599.84   -79240.818    7204.1284   -86444.946    405.59331 
    6900    276.56946   -1092.2395    271728.79   -79258.891    7014.8284   -86273.719    410.14765 
    6950    277.71019   -1173.4577    271894.91   -79239.382    7043.7614   -86283.144    413.53502 
    7000    279.22679   -1131.9409    271887.07   -79228.323    7082.2281   -86310.551     415.8172 
    7050    278.81176   -1127.4917    271706.51   -79215.295    7071.7013   -86286.996    418.95277 
    7100    278.96434   -776.55229    271315.24   -79179.668    7075.5714   -86255.239    421.41289 
    7150    283.79418   -983.39643     271183.7   -79190.308     7198.074   -86388.382    424.87834 
    7200    278.95589   -847.93875    271364.01   -79158.951     7075.357   -86234.308    429.04326 
    7250    280.62693   -1058.9775    271669.43   -79112.076    7117.7408   -86229.817    434.28673 
    7300    281.04829   -998.02668    271910.74   -79102.091     7128.428   -86230.519    438.16875 
    7350     280.7679   -1110.2092    272139.65   -79119.994    7121.3163    -86241.31    441.49714 
    7400    281.49402   -1286.2424    272163.67   -79123.086    7139.7333   -86262.819    445.67976 
    7450    283.79316   -891.84245    271939.93   -79109.678    7198.0482   -86307.726    450.00871 
    7500    280.52493   -1109.6638    271717.52   -79136.864    7115.1538   -86252.018    452.58378 
    7550    278.38935   -864.21237    271192.09   -79192.053    7060.9874    -86253.04    455.28873 
    7600    285.23254   -968.71026    270995.51   -79199.696    7234.5563   -86434.253    457.37566 
    7650     278.3876   -718.87612    271127.79   -79175.557    7060.9431     -86236.5    461.64267 
    7700    281.69221   -1010.1037    271735.09   -79170.321    7144.7604   -86315.081    466.27598 
    7750    280.44361   -1197.7986    272279.95    -79180.54    7113.0911   -86293.631    469.43489 
    7800    275.35291   -981.31978     272513.7   -79214.196    6983.9722   -86198.168    471.90034 
    7850    276.23794   -1000.9932    272194.56   -79199.218    7006.4198   -86205.638    473.74729 
    7900    279.91945   -1125.5106    271719.39   -79170.402    7099.7965   -86270.199    476.17634 
    7950    281.31246   -1010.9265    271287.22   -79195.677    7135.1285   -86330.806    478.37591 
    8000    279.42795   -952.25472    271148.57   -79193.901    7087.3302   -86281.231    480.36645 
    8050    279.58225   -849.56591    271293.76   -79212.011    7091.2438   -86303.255     481.9317 
    8100    282.86276    -945.4227    271759.33   -79246.655    7174.4499   -86421.105    486.27666 
    8150    279.29283   -1311.8276    272375.65   -79282.926    7083.9031   -86366.829    490.72437 
    8200    278.57676    -1121.729    272425.47   -79245.512     7065.741   -86311.253    493.18303 
    8250    281.24067   -1126.1098    272043.93   -79250.553    7133.3075    -86383.86    495.87448 
    8300    280.77979   -810.44266    271543.09   -79242.763     7121.618   -86364.381    498.15166 
    8350    272.99339   -798.65125    271267.61   -79308.585    6924.1258   -86232.711    499.74461 
    8400    276.63485   -1056.1894    271382.87    -79320.39    7016.4868   -86336.877    504.13078 
    8450    277.82524   -866.16275    271498.13   -79319.001    7046.6796    -86365.68    505.79753 
    8500    271.52078   -806.09764    271962.56   -79257.304    6886.7751   -86144.079    509.22236 
    8550    274.82857    -1113.924    272496.27   -79204.565     6970.673   -86175.237    512.25318 
    8600    280.46652   -1217.6642    272512.34   -79205.728    7113.6723   -86319.401    514.85871 
    8650    276.72241    -1078.624     271874.8   -79164.793    7018.7077     -86183.5    516.45059 
    8700    280.75383   -675.30929    271224.84   -79148.941    7120.9594   -86269.901      519.296 
    8750    278.49952   -577.54624    271143.46   -79131.607    7063.7818   -86195.389    521.18727 
    8800    280.12521   -787.67041    271389.23   -79110.603    7105.0153   -86215.618    524.72491 
    8850     284.8543   -1134.1797    271903.93   -79086.139    7224.9627   -86311.102    527.14073 
    8900    277.24048   -1084.7693    272364.78   -79076.323    7031.8478   -86108.171    530.45018 
    8950    279.63355   -1176.5186    272550.57   -79050.666     7092.545   -86143.211    534.64499 
    9000    281.88896    -1209.301    272369.46   -79073.024    7149.7506   -86222.774    536.01412 
    9050    286.90336   -1035.2041    271954.85   -79057.149    7276.9345   -86334.083    538.09753 
    9100    284.42829    -985.7834    271556.24   -79080.283    7214.1575    -86294.44    541.18896 
    9150    283.85875   -849.60104    271445.66   -79100.533    7199.7117   -86300.245    544.57146 
    9200    281.55327   -939.17579    271927.47    -79053.32    7141.2363   -86194.557    547.78273 
    9250    283.28362   -1231.8319    272441.85   -79031.729    7185.1243   -86216.854     552.3753 
    9300    280.40074    -1132.499    272274.73   -79093.765    7112.0037   -86205.769    554.30275 
    9350    282.81903   -595.65607    271715.91   -79109.944    7173.3405   -86283.284    556.25369 
    9400    281.41026   -883.54273     271669.5   -79154.468    7137.6089   -86292.077     559.9962 
    9450    277.93012   -930.04859    271776.57    -79151.07    7049.3396    -86200.41     562.5571 
    9500    280.24128    -952.7657    271872.61   -79143.623    7107.9593   -86251.583    565.95932 
    9550    279.57187   -938.40192    272057.24   -79143.532    7090.9806   -86234.513    568.29417 
    9600    283.21749   -1052.2822    272398.47    -79133.31    7183.4472   -86316.757     571.9063 
    9650    277.71215    -1084.851    272484.23   -79089.106    7043.8111   -86132.917    575.81212 
    9700    283.18978   -976.62097    272311.18    -79097.98    7182.7441   -86280.724    578.76384 
    9750    277.96221   -927.57769    271916.73   -79181.358    7050.1537   -86231.512    580.25451 
    9800    282.05556   -907.02297    271564.46   -79170.183    7153.9762   -86324.159    580.53569 
    9850    281.49378   -985.23036    271541.12   -79173.401    7139.7272   -86313.128    583.28327 
    9900    283.94034   -878.30565    271659.76   -79129.414    7201.7813   -86331.196    586.13166 
    9950     280.7566   -986.47685    272186.18   -79127.296    7121.0297   -86248.326    590.70002 
   10000    281.33913   -1085.3416    272697.86   -79140.068    7135.8047   -86275.872    594.33995 
   10050    278.07155   -1265.1724    272792.08   -79134.474    7052.9269   -86187.401    596.19586 
   10100    280.12152   -1130.6795    272277.15   -79135.197    7104.9216   -86240.118    597.48673 
   10150    278.96514   -1061.3104    271686.26   -79144.674    7075.5917   -86220.265    598.74463 
   10200    278.10305   -1015.2763     271196.4   -79183.256     7053.726   -86236.981    601.01325 
   10250    281.50831   -822.04049    271113.11   -79140.994    7140.0959    -86281.09     603.5189 
   10300    277.51346   -839.26404    271805.64    -79096.11    7038.7715   -86134.882    608.75416 
   10350    277.50798   -957.50442    272423.54   -79107.897    7038.6328    -86146.53    612.84913 
   10400     279.7824   -1317.3738    272761.12   -79123.636    7096.3204   -86219.956    615.73963 
   10450     277.6065   -1082.7529     272401.7   -79106.271    7041.1314   -86147.403    617.63196 
   10500    280.57845   -898.58681    271678.59   -79092.508    7116.5113    -86209.02    619.72492 
   10550    279.14845   -698.21979    271342.02    -79076.86     7080.241   -86157.101    622.58864 
   10600    281.29511   -811.83753    271470.75   -79077.068    7134.6884   -86211.756    626.10441 
   10650    281.13581   -983.21941    271942.62   -79101.279    7130.6478   -86231.927    629.43488 
   10700    277.95433   -1182.8318     272183.3   -79145.868    7049.9539   -86195.822    632.93061 
   10750    279.28484   -951.51993    272134.87   -79138.735    7083.7004   -86222.436    636.55117 
   10800    278.15143   -1260.7777    272085.04    -79147.96    7054.9531   -86202.913    639.41504 
   10850    280.54135   -1238.5842    271805.64    -79154.46    7115.5701    -86270.03     641.1626 
   10900     279.9346   -883.79995    271453.79   -79162.023    7100.1808   -86262.204    642.04555 
   10950    282.43456   -1081.5947    271437.53    -79199.39    7163.5892    -86362.98    645.96577 
   11000    278.21262   -983.20247    271528.25   -79223.332    7056.5051   -86279.837    648.99571 
   11050    278.09132   -743.49778    271658.58   -79208.854    7053.4283   -86262.282    651.70374 
   11100    279.27063   -1113.3144    271980.71   -79239.788      7083.34   -86323.128    654.65203 
   11150    277.52598   -1156.2519    272054.89   -79233.356    7039.0893   -86272.445    658.00545 
   11200    276.11018   -1145.7347    271860.52    -79249.84    7003.1794   -86253.019    660.34139 
   11250    279.89722   -833.05942    271494.59   -79245.858    7099.2327    -86345.09    662.37257 
   11300    277.07384   -875.31874    271319.15   -79266.165    7027.6212   -86293.786    664.44692 
   11350    274.13654   -954.78211    271292.39   -79276.511    6953.1203   -86229.631    667.09236 
   11400    280.45456   -1092.3117    271389.45    -79298.47    7113.3688   -86411.839    670.44888 
   11450    277.76356    -1076.688    271685.24   -79251.914     7045.115   -86297.029    673.52136 
   11500    275.60966    -848.6934    271790.55    -79174.04    6990.4842   -86164.525     676.3777 
   11550    277.00946   -1137.6792    271961.46   -79162.272    7025.9883   -86188.261    678.36047 
   11600    276.93331   -1021.0233    271942.26   -79195.793     7024.057    -86219.85    681.40807 
   11650    277.04361   -997.69239    271731.74   -79276.198    7026.8545   -86303.053    683.09873 
   11700    278.00015   -830.83958    271508.56    -79248.62     7051.116   -86299.736    686.75512 
   11750    275.50981   -1061.8054    271708.61   -79289.445    6987.9516   -86277.397    691.55276 
   11800    272.92619   -1047.6428    271815.54    -79320.34    6922.4214   -86242.761    695.79777 
   11850    273.06805   -1027.3887    271709.68   -79327.912    6926.0195   -86253.931    698.29697 
   11900    280.96639   -1207.8486    271752.29     -79313.7    7126.3507    -86440.05    701.35486 
   11950    276.05831    -1032.092    271698.34   -79298.064    7001.8638   -86299.927    703.58115 
   12000    278.45296   -977.39361    271557.42   -79321.258    7062.6008   -86383.859    706.02236 
   12050    274.74101   -932.77663    271370.91    -79354.43    6968.4521   -86322.883    708.88301 
   12100    278.24377   -1017.0122    271286.72   -79329.022     7057.295   -86386.317    710.35154 
   12150    276.53155    -925.7654    271312.68   -79285.039    7013.8668   -86298.906    713.97647 
   12200     279.2905   -1019.3353    271755.06   -79247.789    7083.8439   -86331.633    718.81354 
   12250    276.30861   -879.41545    271955.45   -79280.195    7008.2122   -86288.407    721.60309 
   12300    282.48604   -1206.2994    271737.22   -79200.179    7164.8949   -86365.074    722.94076 
   12350    277.37966   -1067.5525    271331.43   -79240.548     7035.378   -86275.926    724.94387 
   12400    280.19144   -717.50469    271241.88   -79212.311    7106.6951   -86319.006    728.17329 
   12450    278.96988   -1064.0031    271557.92   -79184.872    7075.7119   -86260.584    731.52355 
   12500    277.66369   -1070.6159    271968.29   -79198.343     7042.582   -86240.925    734.85987 
   12550    276.40837   -939.34397    272153.64   -79189.564    7010.7425   -86200.306    738.37382 
   12600     274.2761   -1042.6627    272174.44   -79205.738    6956.6602   -86162.398    740.06079 
   12650    279.45453   -1107.7023    272147.44   -79222.093    7088.0044   -86310.097    741.85379 
   12700    279.21951   -1039.0897    272016.24   -79239.138    7082.0435   -86321.182    744.74157 
   12750    279.32789   -1006.0895    271698.88   -79233.218    7084.7925    -86318.01    746.98479 
   12800     277.4142    -785.3103    271608.62   -79260.056    7036.2541    -86296.31    750.07016 
   12850    277.12417   -1113.1751     271793.6   -79291.346    7028.8978   -86320.244    753.02589 
   12900    279.65333   -1275.3274    271902.72   -79268.807    7093.0468   -86361.854    756.42771 
   12950    280.20909   -890.28011       271698   -79269.855    7107.1428   -86376.998    759.28582 
   13000    280.30157   -763.54741    271819.99   -79236.011    7109.4884   -86345.499    762.33173 
   13050     277.3024   -1006.5108    272087.28   -79208.788    7033.4183   -86242.207    765.47854 
   13100    278.04285   -779.39915       271945   -79171.312    7052.1991   -86223.511    767.36792 
   13150    281.77185   -1020.7303    271909.44   -79194.368    7146.7803   -86341.148    770.42831 
   13200    279.00925   -1033.8043    271897.14   -79212.163    7076.7106   -86288.873    773.32035 
   13250    278.43994   -923.09632    271557.43   -79197.323    7062.2707   -86259.593    775.92293 
   13300    278.97695   -760.78013    271424.14   -79203.333    7075.8911   -86279.224    778.47957 
   13350    282.94509   -1001.7846    271750.02   -79196.802    7176.5379    -86373.34    782.02462 
   13400    276.69601   -1088.1262    272080.03   -79235.338    7018.0381   -86253.376     784.5286 
   13450    278.87576   -1000.3067    272063.21   -79201.242    7073.3246   -86274.566    787.00254 
   13500    277.64029   -1057.9983    271968.55   -79187.508    7041.9884   -86229.496    788.78912 
   13550    284.91118    -903.7516     271681.1    -79182.21    7226.4053   -86408.615    791.34959 
   13600     283.6637   -1202.2706    271632.34   -79197.329    7194.7645   -86392.094    794.90144 
   13650    284.08062   -941.11238    271339.07    -79222.32    7205.3392   -86427.659     797.7347 
   13700    278.86583   -1011.5639    271414.79   -79234.963    7073.0728   -86308.036    800.40831 
   13750    276.30555   -846.91747     271696.2   -79223.867    7008.1347   -86232.002     803.4687 
   13800    279.29306   -1134.7439     272180.4   -79195.295    7083.9089   -86279.204    807.36703 
   13850    277.40249   -944.38459    272328.54   -79190.615    7035.9571   -86226.572    812.14022 
   13900    277.20948   -1048.7415    272371.61   -79211.876    7031.0616   -86242.938    814.24185 
   13950    277.00133   -1124.7744    272222.06   -79224.833    7025.7822   -86250.615    815.38405 
   14000    274.61197   -997.04728    271731.77   -79239.359     6965.179   -86204.538    819.38748 
   14050    279.59827   -948.57358    271167.22   -79255.191    7091.6503   -86346.841    821.41246 
   14100    283.53526    -856.4833    271086.92   -79230.341    7191.5069   -86421.848     824.7326 
   14150    276.90598   -1064.7184    271528.14   -79234.212    7023.3638   -86257.576    828.39445 
   14200    278.12557   -1282.1948    271952.94   -79258.635    7054.2971   -86312.932     832.1255 
   14250      274.442   -1304.1693     272115.2    -79290.51    6960.8679   -86251.378    834.32139 
   14300    277.95601   -984.02157    271771.04   -79295.237    7049.9964   -86345.233    835.46707 
   14350    275.98924   -911.89367    271458.91   -79323.081    7000.1118   -86323.193    838.17922 
   14400    279.91737   -756.72059    271128.16   -79318.665    7099.7437   -86418.409    840.30174 
   14450      277.921   -1111.5235    271348.73   -79306.235    7049.1084   -86355.343    843.42028 
   14500    277.36968   -945.00303    271741.13   -79261.209    7035.1249   -86296.334    848.53451 
   14550    279.87505   -1490.9164    272234.97   -79269.386    7098.6703   -86368.056    853.51597 
   14600      276.194   -902.21121    272012.18   -79288.392    7005.3052   -86293.698    856.29297 
   14650    279.60744   -978.58608    271514.61   -79275.915    7091.8827   -86367.797    858.45649 
   14700    278.63164   -702.32942    270992.27   -79238.739     7067.133   -86305.872    859.48417 
   14750    276.62605    -848.7812    271158.96   -79251.672    7016.2637   -86267.936    862.00203 
   14800    275.26888   -1114.1684    271608.69   -79245.552    6981.8407   -86227.392    866.82829 
   14850    273.85915   -900.42669    271941.83   -79246.001    6946.0848   -86192.086     870.5406 
   14900    277.73987   -1120.4236     272049.5   -79235.442    7044.5144   -86279.956    871.99076 
   14950    276.74928   -896.16524     271831.1   -79296.178    7019.3891   -86315.567    874.56933 
   15000     276.8927   -936.70968    271597.01   -79301.353    7023.0268   -86324.379    877.26873 
   15050    274.71155   -939.13605    271418.59   -79343.706    6967.7047   -86311.411    879.63451 
   15100    277.41888   -955.43965    271334.09   -79356.203    7036.3727   -86392.576    882.19557 
   15150     279.8188   -1177.6049    271381.37   -79383.772    7097.2437   -86481.016    884.83736 
   15200      277.477   -1038.7914     271276.4   -79422.446    7037.8469   -86460.293    885.98965 
   15250    273.30653   -937.97946    271131.72   -79404.961    6932.0684   -86337.029    888.31664 
   15300    275.09953   -966.71078    271267.17   -79401.742    6977.5453   -86379.288    892.10833 
   15350    276.00397   -898.84142    271449.14    -79404.05    7000.4854   -86404.535    897.39077 
   15400    277.83841   -1116.6371    271921.84   -79417.526    7047.0136    -86464.54    900.51403 
   15450    271.93148   -1217.2192     272062.2   -79507.686    6897.1918   -86404.878     902.5608 
   15500    270.11569   -1129.4024    271346.17   -79532.163    6851.1367   -86383.299    903.27809 
   15550    275.67433   -604.01483     270543.4   -79562.032    6992.1245   -86554.157    903.62252 
   15600    274.21581   -754.68246    270499.08   -79518.442    6955.1311   -86473.573    907.63536 
   15650    272.32695   -999.50708    270962.41   -79460.342    6907.2224   -86367.564    911.55861 
   15700    279.19642   -1176.9299    271737.57    -79408.62    7081.4578   -86490.078    915.57891 
   15750    276.54448   -1021.7844    272007.47   -79363.197    7014.1946   -86377.392    919.12237 
   15800    275.20495   -824.61049    271616.36   -79375.894    6980.2192   -86356.113    919.89246 
   15850    276.13958    -733.7971    271197.94   -79388.713     7003.925   -86392.638     923.0697 
   15900    274.40432   -1071.6912    271301.88   -79389.416    6959.9123   -86349.328    926.59535 
   15950    276.40514   -1033.5253       271513   -79405.292    7010.6605   -86415.953    928.54285 
   16000    276.63859   -942.76647    271630.23   -79370.951    7016.5818   -86387.533    931.48116 
   16050    272.81605   -983.51343    271572.58   -79385.575    6919.6279   -86305.203    933.18945 
   16100    276.40028   -911.62695     271512.6   -79385.058    7010.5373   -86395.596    934.64483 
   16150    274.95227   -1020.7419    271746.17   -79363.685    6973.8104   -86337.495    937.47195 
   16200    277.35939   -1035.3143    271917.47   -79275.656    7034.8638    -86310.52    941.07136 
   16250    277.16038   -1142.1266    271863.39   -79268.242    7029.8162   -86298.058    945.43044 
   16300    275.10178   -887.23387    271418.22    -79246.79    6977.6025   -86224.392    947.45676 
   16350    277.32863   -776.53958    270971.87    -79221.76    7034.0836   -86255.844    950.54237 
   16400    279.20864   -823.69453    271126.39   -79266.054    7081.7676   -86347.821    954.19863 
   16450    277.16247   -975.66402    271525.37   -79243.736    7029.8692   -86273.606    957.51095 
   16500    278.72623   -840.50687    271824.17   -79249.808    7069.5319    -86319.34    962.57647 
   16550    275.84708   -1071.5337    272139.68    -79309.38    6996.5062   -86305.886    966.87336 
   16600    275.55049    -854.1477    271943.06   -79292.949    6988.9834   -86281.932    968.33802 
   16650    274.41775   -740.66844    271812.42   -79334.618    6960.2529   -86294.871    969.48615 
   16700    272.76508   -1040.5198    271933.79   -79306.428     6918.335   -86224.763    973.38879 
   16750    279.44576   -1328.3634    271770.49   -79280.296    7087.7821   -86368.078    976.67122 
   16800    275.91756   -927.19124    271381.36   -79252.261    6998.2937   -86250.555    979.92796 
   16850    281.80515   -1083.7121    271266.45   -79237.033    7147.6249   -86384.658    983.17813 
   16900    276.97773   -903.91984    271396.43   -79256.321    7025.1835   -86281.505      989.605 
   16950    278.78475   -1301.2437    271669.32   -79250.115    7071.0162   -86321.131    993.40396 
   17000    277.49792   -948.98763    271726.88   -79260.194    7038.3776   -86298.572    996.82379 
   17050    279.63534   -1029.0881    271965.26   -79238.035    7092.5906   -86330.626    999.77275 
   17100    279.67379   -1150.1254     272219.6   -79224.707    7093.5657   -86318.272    1004.2735 
   17150    275.52312   -1241.7191    272101.74   -79242.062    6988.2893   -86230.351    1007.1112 
   17200     278.9559   -1087.5952    271479.61   -79274.489    7075.3574   -86349.846    1006.5297 
   17250    278.72941   -582.34368    271048.02   -79296.399    7069.6128   -86366.011    1007.4532 
   17300    273.93496   -1031.8475    271118.09   -79312.852    6948.0076    -86260.86    1012.1718 
   17350    272.83653   -972.37321    271235.81   -79334.843    6920.1474    -86254.99    1015.3872 
   17400    279.65331   -1143.4351    271441.63   -79350.844    7093.0462    -86443.89    1018.1885 
   17450    275.74484   -934.65374    271580.53    -79337.26    6993.9128   -86331.173    1022.3438 
   17500    275.49132   -1141.4239    271863.81   -79395.374    6987.4826   -86382.856    1027.4085 
   17550    274.95482   -1111.7558     271733.8   -79396.726    6973.8751   -86370.601    1030.1205 
   17600     268.4465   -702.97193    271305.38   -79406.495       6808.8   -86215.295    1031.2618 
   17650    275.50755   -983.36925    271398.85   -79380.429    6987.8944   -86368.323    1036.0455 
   17700    276.29869   -1304.3809    271765.73   -79401.511    7007.9606   -86409.471    1041.3779 
   17750    273.27661   -1166.8148    271852.47    -79402.39    6931.3093   -86333.699    1045.2391 
   17800    278.11608   -1244.1581    271827.88   -79418.716    7054.0564   -86472.772    1047.0215 
   17850    273.16808   -982.46677    271461.63   -79460.073    6928.5567    -86388.63    1048.8743 
   17900    273.43442   -841.43611    271038.28   -79413.878     6935.312    -86349.19    1050.3751 
   17950    274.31272    -871.5466    271131.41   -79445.211    6957.5891   -86402.801    1052.7265 
   18000    278.68427   -1086.1847    271672.93   -79436.933    7068.4678     -86505.4    1057.8119 
   18050    271.24195   -1061.0869    272060.45   -79468.966     6879.703   -86348.669    1061.5118 
   18100     271.6374   -1393.0097    272061.44   -79469.809    6889.7329   -86359.542     1063.895 
   18150    271.07115   -651.26083    271345.68   -79485.009    6875.3707   -86360.379    1063.2273 
   18200    270.93693   -738.33071     271090.9   -79483.231    6871.9665   -86355.197    1065.3648 
   18250    271.80275   -908.97352    271379.35   -79515.378    6893.9269   -86409.305    1068.3212 
   18300    272.63222   -1062.4443    271693.37   -79480.372    6914.9654   -86395.337    1071.3971 
   18350    276.09017   -1146.8429    271691.71   -79457.823    7002.6718   -86460.495    1072.7719 
   18400    275.46026   -1119.8252    271453.21   -79488.316     6986.695   -86475.011    1073.6312 
   18450    276.64651   -822.22431    270859.88   -79477.439    7016.7826   -86494.222    1074.0611 
   18500    274.19339   -850.94538    270658.66   -79446.071    6954.5624   -86400.634    1075.9912 
   18550    271.53976   -1070.5249    271195.58   -79414.245    6887.2564   -86301.501     1078.909 
   18600     280.7997   -1166.4243    271882.94   -79406.634     7122.123   -86528.757    1083.3669 
   18650    272.70989   -1203.8922    272414.69   -79362.755    6916.9353    -86279.69     1088.574 
   18700    274.24239   -1464.8645    272406.81   -79299.009    6955.8053   -86254.815    1090.9512 
   18750    278.83859    -1013.565    271661.42   -79299.928     7072.382    -86372.31    1091.3175 
   18800    280.91938   -534.86369    271083.51   -79254.825    7125.1585   -86379.983     1092.001 
   18850    276.73647   -947.35221    271417.98   -79261.588    7019.0642   -86280.653    1096.3243 
   18900    275.46089   -1037.0601    272015.04   -79295.679     6986.711    -86282.39    1098.8139 
   18950    276.74168   -1136.0378    272349.85   -79337.384    7019.1964   -86356.581    1101.6719 
   19000    272.21845   -1196.6697    272043.71   -79314.543    6904.4706   -86219.014    1103.3363 
   19050    278.30053   -1104.4142     271291.4   -79350.399    7058.7347   -86409.133    1104.0458 
   19100    280.78986   -677.97015    270606.84   -79345.572    7121.8734   -86467.445    1103.2643 
   19150    276.81089   -696.53842    270734.44   -79332.312    7020.9518   -86353.264    1104.8009 
   19200    279.48507   -920.68485    271403.73   -79312.972    7088.7791   -86401.751    1110.6885 
   19250    275.35367   -1387.1968     272153.9   -79285.374    6983.9913   -86269.365     1113.906 
   19300    274.87175   -1152.8186    271972.19   -79286.684    6971.7682   -86258.452     1115.102 
   19350    275.29719   -950.45394    271251.84   -79285.161    6982.5588   -86267.719    1116.7206 
   19400     276.2734   -813.85478    270888.07   -79274.907    7007.3191   -86282.226    1117.4242 
   19450    280.08001   -987.87174    271211.34   -79243.338     7103.869   -86347.207     1119.078 
   19500    278.52904   -935.68825    271656.41   -79233.754    7064.5306   -86298.285    1122.2171 
   19550    279.21417   -1176.3356    272053.96   -79273.428     7081.908   -86355.336    1124.4508 
   19600     277.8225   -1071.8523    272055.46   -79285.823      7046.61   -86332.433    1127.8656 
   19650    279.54569   -1088.1135    271859.51   -79274.652    7090.3166   -86364.969    1128.7311 
   19700    281.17351   -1142.3377    271686.62   -79281.513    7131.6042   -86413.117    1130.4272 
   19750    276.87122   -1002.4203    271323.98   -79274.435    7022.4821   -86296.917    1133.0993 
   19800     279.7782   -934.61272    270894.28    -79276.43    7096.2139   -86372.644    1133.8767 
   19850    280.42798   -859.34808    271153.08   -79282.837    7112.6948   -86395.532    1136.5838 
   19900    280.55885   -1086.2193    271755.35   -79257.719    7116.0141   -86373.733    1140.2793 
   19950    277.41798   -1175.4868    272086.57   -79257.521    7036.3499   -86293.871    1143.6519 
   20000    274.64934   -1102.8893    272103.67     -79267.5    6966.1269   -86233.627    1147.0023 
   20050    282.17699   -1130.5848    271805.34   -79292.896    7157.0562   -86449.952    1149.1021 
   20100    278.27286   -980.63503    271369.41    -79317.98    7058.0328   -86376.012    1151.9143 
   20150    282.58589   -896.54805    271004.63   -79378.695    7167.4273   -86546.122    1156.1341 
   20200    280.83652    -931.6598    271049.72   -79362.453    7123.0569    -86485.51    1159.2223 
   20250     274.3542   -909.91855     271512.6   -79349.433    6958.6411   -86308.074     1162.337 
   20300    281.63648   -1131.8185    271919.56   -79345.024    7143.3468   -86488.371    1166.4751 
   20350     276.9429   -1063.4801    272015.45   -79304.875    7024.3001   -86329.175    1168.2425 
   20400     277.7174   -1088.6955    271666.18   -79301.805    7043.9442   -86345.749    1169.6387 
   20450    275.24095   -840.16331    271363.39    -79318.83    6981.1323   -86299.962    1172.9742 
   20500    273.28597   -828.99468    271264.45   -79340.518    6931.5467   -86272.064     1176.351 
   20550    279.31658   -935.14202    271434.03   -79314.267    7084.5054   -86398.772    1177.9204 
   20600    283.80334   -1015.3588    271802.01   -79307.858    7198.3063   -86506.164    1180.8161 
   20650    276.81237   -1269.8856    271941.91   -79322.678    7020.9895   -86343.667    1184.3925 
   20700    276.45415   -1138.8076     271677.5   -79339.636    7011.9037    -86351.54    1185.8409 
   20750    279.96512   -994.15352     271444.7   -79302.398    7100.9548   -86403.353    1189.0259 
   20800    271.83652    -797.4468    271200.62   -79332.839    6894.7833   -86227.622    1191.3875 
   20850    281.40576   -981.74617    271201.92   -79312.703     7137.495   -86450.198     1193.735 
   20900    277.18481   -1134.8271    271506.28   -79310.902     7030.436   -86341.338    1199.9058 
   20950    276.57924   -823.32793    271867.63   -79337.019    7015.0764   -86352.095    1204.0079 
   21000    279.18681   -1208.9874    272147.98   -79302.098     7081.214   -86383.312    1207.0851 
   21050    273.49218   -847.38751    271730.75   -79322.418     6936.777   -86259.195    1208.3275 
   21100    276.54113   -938.53524    271229.55    -79331.12    7014.1097    -86345.23     1207.915 
   21150    279.35634   -602.88424    270916.94   -79337.218    7085.5139   -86422.732    1210.9614 
   21200    278.55457   -1028.6854    271073.86   -79309.286    7065.1781   -86374.464    1215.8174 
   21250     281.3014   -903.91362    271377.52   -79316.457    7134.8479   -86451.305    1219.8279 
   21300    278.65416   -1278.2756    271975.42   -79296.105    7067.7041   -86363.809    1226.5347 
   21350    275.07131   -1018.7627    272184.07   -79293.013    6976.8298   -86269.843    1228.9024 
   21400    278.93527   -1079.3754    272223.23   -79284.277     7074.834   -86359.111    1230.2017 
   21450    278.39292   -1124.9166    272145.54    -79250.98    7061.0779   -86312.058    1232.2891 
   21500    278.88977   -1009.1879    271881.77    -79253.39      7073.68    -86327.07    1233.4512 
   21550    275.49101   -997.29758    271588.26   -79237.003     6987.475   -86224.478    1236.8375 
   21600    283.64887   -625.46813    271268.47   -79228.446    7194.3883   -86422.834    1236.1157 
   21650    278.62303   -739.86312    271386.75   -79191.928    7066.9145   -86258.842    1238.2194 
   21700    275.61643   -818.74505    271986.13   -79150.979    6990.6559   -86141.634    1243.3875 
   21750    276.27468   -1166.4044    272330.51   -79171.472    7007.3517   -86178.823    1247.3017 
   21800    280.61893    -999.5003    272045.78   -79148.185     7117.538   -86265.723    1249.8786 
   21850       281.14   -830.82223    271687.62   -79133.986    7130.7543    -86264.74    1250.7804 
   21900    283.45133   -1140.6161       271628   -79166.809    7189.3781   -86356.187    1253.4538 
   21950    279.07163    -1081.446     271831.6   -79164.664    7078.2927   -86242.957    1259.3075 
   22000    279.06572    -1136.509    272057.85   -79161.108    7078.1427   -86239.251    1263.1873 
   22050    277.91599   -1015.2902    272038.68   -79138.337    7048.9812   -86187.318    1264.8887 
   22100    282.07909   -988.91657    271770.64   -79128.367    7154.5729    -86282.94    1267.9641 
   22150     286.0286   -1056.6752    271650.21   -79155.654    7254.7473   -86410.402      1271.92 
   22200    283.01833    -928.5075    271742.63   -79108.868    7178.3955   -86287.263    1274.8988 
   22250    279.94547    -934.0811     271918.3   -79101.141    7100.4565   -86201.598    1279.5461 
   22300    280.42458   -1087.3239    271994.07   -79042.968    7112.6085   -86155.577    1281.9763 
   22350    284.63393   -788.97912    271630.55   -79065.945    7219.3732   -86285.318    1284.6841 
   22400    278.72457   -1183.3654    271581.39   -79091.538    7069.4899   -86161.028    1287.8177 
   22450    281.24861   -822.19111    271485.92   -79090.438    7133.5089   -86223.946     1290.312 
   22500    276.59217   -905.00791    271899.49   -79057.145    7015.4043    -86072.55    1295.3322 
   22550    283.19061   -987.56297    272223.04   -79063.961    7182.7652   -86246.726     1300.029 
   22600    281.53331   -1019.7686    272447.56   -79111.703      7140.73   -86252.433    1305.6723 
   22650    285.13588   -1294.7558    272589.11   -79078.476    7232.1046   -86310.581    1309.4462 
   22700    285.37129   -1092.7827     272154.5   -79109.389    7238.0755   -86347.464    1311.6742 
   22750    282.82159   -864.35285    271384.77   -79113.362    7173.4056   -86286.767     1313.278 
   22800    283.11346   -811.14883    271009.23   -79135.048    7180.8086   -86315.857    1315.7712 
   22850    279.10487   -623.44162    271270.68    -79133.38    7079.1358   -86212.516    1319.4498 
   22900    279.69747   -1289.2487    271977.88   -79158.951    7094.1663   -86253.117    1327.3295 
   22950    279.23802   -1122.2548    272269.07    -79159.76    7082.5129   -86242.273    1331.3366 
   23000    274.78834   -934.58733     271883.1    -79192.14    6969.6526   -86161.792    1333.7028 
   23050    282.90917   -1141.5251    271201.57    -79154.34    7175.6268   -86329.967    1333.1726 
   23100    282.13777   -509.03146     270872.8   -79140.719    7156.0613   -86296.781    1335.3793 
   23150    278.32346    -909.7711    271654.13   -79140.125    7059.3164   -86199.442     1340.216 
   23200    282.78243   -1178.7456    272709.49   -79121.448    7172.4124   -86293.861    1346.6696 
   23250    279.55899   -1302.3959    272934.65   -79131.192    7090.6538   -86221.845    1350.6368 
   23300    277.74166   -1013.8148    272397.59   -79144.353    7044.5596   -86188.912    1350.7504 
   23350    280.27394        -1158    271935.69    -79155.98    7108.7877   -86264.767    1351.3793 
   23400    275.06552   -818.04702    271308.03   -79177.302    6976.6829   -86153.985     1350.913 
   23450    282.53137   -929.62501    271183.63   -79192.529    7166.0444   -86358.574    1353.9903 
   23500    277.46365   -1041.7047    271381.75   -79231.637    7037.5083   -86269.145    1358.4666 
   23550    278.09114   -1190.8985    271540.77   -79226.126    7053.4238    -86279.55    1360.7261 
   23600    279.69973   -959.49534    271730.98   -79196.614    7094.2237   -86290.838    1364.6853 
   23650    278.69848   -842.92223     272222.1   -79157.132    7068.8282    -86225.96    1370.0088 
   23700     281.8743   -1027.8725    272525.39   -79096.147    7149.3788   -86245.526    1373.8789 
   23750     283.0177   -1191.9026    272316.38   -79106.321    7178.3797   -86284.701    1373.9741 
   23800    282.46858   -987.84561    271820.96   -79084.796    7164.4518   -86249.247    1375.0106 
   23850    281.50377   -581.10765    271479.61   -79106.377    7139.9808   -86246.358    1375.4261 
   23900    283.59599   -923.38903    271784.73   -79115.684    7193.0472   -86308.732     1378.866 
   23950    282.36783    -1245.671    272300.61    -79161.35    7161.8964   -86323.246    1383.2177 
   24000      284.732   -1187.8825    272143.43   -79182.148    7221.8606   -86404.009    1386.7174 
   24050    281.99622   -839.09983    271474.52   -79155.081     7152.471   -86307.552    1386.5771 
   24100    282.74087   -717.40954     271172.5   -79123.827    7171.3582   -86295.185    1389.9805 
   24150    280.11229   -1139.8208    271751.67   -79136.718    7104.6875   -86241.406    1395.2758 
   24200    277.59196   -1052.4216    272362.42   -79153.845    7040.7628   -86194.607    1398.5218 
   24250    276.11728   -1164.4983    272661.04   -79165.989    7003.3593   -86169.348    1400.7317 
   24300    283.09574   -1369.3535    272147.09   -79157.554    7180.3591   -86337.913    1401.0809 
   24350    279.93662   -993.36505    271168.13     -79186.5    7100.2321   -86286.732    1401.2451 
   24400    280.59303   -755.93249     270510.7    -79167.33    7116.8811   -86284.211    1400.3237 
   24450    277.67761   -610.47157    270573.69   -79236.485     7042.935    -86279.42     1401.705 
   24500    282.77906   -858.64645     271400.7   -79232.945    7172.3269   -86405.272    1407.6681 
   24550    279.18381   -1102.2317    272192.06   -79200.856    7081.1379   -86281.994     1413.082 
   24600    280.85475   -998.81429    272464.42   -79182.175    7123.5192   -86305.694    1417.5858 
   24650    276.79726   -1003.6186    272391.33   -79167.964    7020.6062   -86188.571    1422.3086 
   24700    276.52998   -1098.2064    272184.53   -79121.913    7013.8269    -86135.74    1425.3663 
   24750    280.84491   -877.94609    271914.96   -79117.648    7123.2697   -86240.918    1427.8437 
   24800    282.21552   -627.41004    271790.25   -79057.459    7158.0333   -86215.493    1431.5225 
   24850    284.28629   -919.11571    271871.43    -79038.92    7210.5557   -86249.476    1434.6787 
   24900    289.80934   -791.59418    271872.62   -79027.982    7350.6409   -86378.623    1438.0412 
   24950    285.17903   -1031.3589    272038.41   -79063.775     7233.199   -86296.974     1441.744 
   25000    284.25328   -1149.0606    271924.51   -79101.288    7209.7185   -86311.006    1443.8609 
   25050    283.74795   -827.12394    271680.68   -79137.477    7196.9015   -86334.378    1447.4541 
   25100    286.63383   -1037.0886    271785.29   -79094.987     7270.098   -86365.085    1453.0016 
   25150    276.44893   -1198.9122    272146.92   -79117.167    7011.7711   -86128.938    1456.4761 
   25200     277.8069   -942.77397    272257.18    -79140.19    7046.2143   -86186.404    1458.7581 
   25250    277.70356   -1138.3601    272144.57   -79189.251    7043.5933   -86232.845     1461.537 
   25300    279.31293   -1183.9306    271913.57   -79229.971     7084.413   -86314.384    1463.8704 
   25350    278.52102   -1017.4358    271629.64    -79275.62    7064.3271   -86339.948    1465.7272 
   25400    277.10623   -911.43022     271242.8   -79301.733    7028.4428   -86330.175    1466.6778 
   25450    277.91159   -815.56774    271198.46    -79250.81    7048.8699    -86299.68    1469.9187 
   25500    279.87872   -934.08036    271708.95   -79240.558    7098.7634   -86339.321    1474.7445 
   25550    275.22114   -1011.3141    272271.79   -79267.515    6980.6299   -86248.145    1479.2394 
   25600    275.74619   -1185.4971    272316.34   -79278.262    6993.9471   -86272.209    1481.9044 
   25650    277.49058   -978.67741    272003.72   -79293.616    7038.1915   -86331.808    1482.6728 
   25700     276.8065   -922.08077    271513.77   -79281.644    7020.8404   -86302.485    1481.1428 
   25750    278.10359   -961.23832    271348.18   -79277.305    7053.7394   -86331.044    1484.6213 
   25800    274.22741   -951.34135    271821.49    -79275.69    6955.4251   -86231.115    1487.9639 
   25850     273.9082   -1156.5598    272447.63   -79251.738    6947.3289   -86199.067    1492.4559 
   25900    276.25157   -1372.5584    272441.23   -79202.684    7006.7655    -86209.45    1494.4458 
   25950    276.40211   -1176.0117    271721.87   -79248.956    7010.5837   -86259.539    1495.3662 
   26000    270.01256   -576.27206     270893.7   -79236.706    6848.5211   -86085.227    1495.1267 
   26050    276.49187   -988.64533    270952.08   -79310.393    7012.8603   -86323.253    1497.7421 
   26100    275.54289   -1097.5996    271437.87   -79337.932    6988.7907   -86326.722    1501.7074 
   26150    279.08902   -1019.3418    271770.23   -79332.347    7078.7338   -86411.081    1504.1484 
   26200    276.68112   -966.88841    272042.14    -79320.31    7017.6604   -86337.971    1507.9681 
   26250    275.91557   -1121.0891    272370.12   -79304.235    6998.2433   -86302.479    1511.8844 
   26300    278.46955   -944.89187    272147.83   -79332.831    7063.0217   -86395.852    1513.4565 
   26350    276.49721   -1052.0124    271546.94   -79350.526    7012.9957   -86363.522    1513.5942 
   26400    276.09863   -1013.1496    270796.33   -79357.117    7002.8863   -86360.004    1513.6401 
   26450    277.69803   -676.28766    270569.71   -79316.066    7043.4531   -86359.519    1517.4212 
   26500    276.92258   -1101.0977    271170.81   -79312.064    7023.7848   -86335.849    1522.2895 
   26550    279.31605   -1054.4883    271751.43   -79296.676    7084.4922   -86381.169    1527.1892 
   26600    276.13608   -808.36799    272045.59    -79300.99    7003.8362   -86304.826    1531.0782 
   26650    275.92347   -1067.5639    272226.12   -79285.263    6998.4437   -86283.706    1535.6157 
   26700    275.61613   -1195.1847    272039.45   -79247.795    6990.6484   -86238.444    1537.2218 
   26750    279.39009   -1139.3955    271330.81   -79264.436    7086.3699   -86350.806    1536.3395 
   26800    274.50033   -825.46603    270860.92   -79316.417    6962.3474   -86278.764    1537.9754 
   26850    279.58532   -830.57891    270988.74   -79314.382    7091.3218   -86405.704    1540.1506 
   26900     278.7953   -935.60057    271541.99   -79271.204    7071.2838   -86342.487    1544.4977 
   26950    277.45522   -1169.9862    272176.53   -79290.244    7037.2945   -86327.538    1549.8204 
   27000    278.11281   -960.52672    272358.38   -79288.219    7053.9733   -86342.192    1551.5925 
   27050    276.29116   -1211.1402    272059.63   -79305.509    7007.7697   -86313.279    1553.4507 
   27100    278.86052   -1091.3013    271123.58   -79287.971    7072.9382   -86360.909    1549.2502 
   27150    276.07819   -749.20457    270576.97   -79322.567    7002.3679   -86324.934    1550.0949 
   27200    277.87645    -915.0052    270990.67   -79306.481    7047.9785   -86354.459    1556.3966 
   27250    278.29296   -1116.0046    271588.35   -79285.017    7058.5427    -86343.56    1560.5019 
   27300    279.45785   -1168.8312     271958.3    -79279.98    7088.0885   -86368.069    1565.1178 
   27350    278.58537   -1136.6897    271873.21   -79259.402    7065.9593   -86325.361      1569.01 
   27400    281.30556   -955.30761    271382.56   -79225.808    7134.9534   -86360.761    1569.3891 
   27450    281.60529    -997.2965    271167.16   -79262.853    7142.5556   -86405.408    1570.5755 
   27500    280.58964   -741.44607    271285.75   -79249.754     7116.795   -86366.549    1573.5823 
   27550    274.87538     -731.704    271932.35   -79238.859    6971.8603   -86210.719    1577.4216 
   27600     278.7488   -1351.9308    272419.34   -79232.444    7070.1045   -86302.548    1581.4546 
   27650    275.98435   -1025.8041    272016.42   -79256.618    6999.9877   -86256.606    1581.7824 
   27700    277.08398   -934.10965     271329.2   -79278.357    7027.8784   -86306.235    1580.7486 
   27750    279.82018   -994.08311    270947.63   -79255.445    7097.2787   -86352.724    1580.0601 
   27800    278.23018   -805.05989     271132.6   -79268.477    7056.9503   -86325.427    1585.2859 
   27850    279.47937   -999.45582     271853.5   -79223.023    7088.6345   -86311.658    1590.3014 
   27900    278.45754   -919.07412     272296.9   -79231.539    7062.7171   -86294.256    1594.3078 
   27950     278.1227   -1241.8583    272286.57   -79243.461    7054.2241   -86297.685    1595.8725 
   28000     280.0966    -1130.024    271687.85   -79248.226    7104.2896   -86352.516    1593.7076 
   28050    277.84363   -740.33095    271349.82   -79239.331    7047.1461   -86286.477    1596.7166 
   28100    277.74265   -931.01953    271596.83   -79258.626    7044.5847    -86303.21    1601.9023 
   28150    276.98672   -1194.9739    271962.09   -79232.442    7025.4115   -86257.854    1603.6822 
   28200    281.87202   -1117.3806    271842.64   -79243.763    7149.3209   -86393.084    1607.1148 
   28250    272.03131   -775.31228    271570.86   -79295.678    6899.7241   -86195.403     1607.048 
   28300    280.01844   -930.06874       271369   -79287.784    7102.3073   -86390.091    1607.3071 
   28350    278.16905   -1010.6388    271482.31   -79282.201    7055.3998   -86337.601    1610.1935 
   28400    276.54766   -1027.7551    271651.84   -79236.062    7014.2754   -86250.338    1612.0307 
   28450    279.31366   -918.44075    271919.65   -79228.641    7084.4315   -86313.072    1613.1271 
   28500    273.56377   -1048.5694    272018.78   -79231.337    6938.5928   -86169.929    1617.1074 
   28550    275.77885   -763.72209    271675.73   -79255.761    6994.7754   -86250.537    1617.4457 
   28600    280.77314   -1032.0189     271547.4   -79247.316    7121.4493   -86368.765    1620.4026 
   28650    280.98712   -1229.4446    271719.39   -79260.645    7126.8765   -86387.521    1623.0857 
   28700    280.52041   -1211.6779    271715.83   -79276.441    7115.0392    -86391.48      1625.15 
   28750    276.45099   -848.61719    271656.92   -79274.821    7011.8234   -86286.645    1629.5802 
   28800    276.89811   -999.20033    271905.49   -79287.589    7023.1641   -86310.753    1633.8797 
   28850    278.79755    -1115.516    272233.94   -79260.627    7071.3409   -86331.968    1640.2321 
   28900    276.23018    -1040.317    272165.49   -79301.596    7006.2229   -86307.819     1641.427 
   28950    277.46448   -1197.1243     271732.3   -79324.793    7037.5294   -86362.323    1640.8152 
   29000    273.98843   -688.83459    271180.93   -79354.758    6949.3638   -86304.122    1640.7079 
   29050    276.03085   -661.97177     270898.5   -79352.172    7001.1673   -86353.339    1642.1245 
   29100    274.66552   -584.18395    271075.79   -79377.622    6966.5373   -86344.159    1645.8775 
   29150    272.66769   -884.78599    271681.38   -79363.892    6915.8649   -86279.757    1651.1753 
   29200    273.99492   -1069.8604    272145.38   -79362.453    6949.5285   -86311.981    1655.8518 
   29250    273.79142   -1161.2773    272338.75   -79366.266     6944.367   -86310.633    1658.6249 
   29300    271.29049   -981.15964     271992.9   -79384.191    6880.9339   -86265.125     1658.399 
   29350    276.07857   -1050.7979    271600.64   -79385.498    7002.3775   -86387.876    1659.1157 
   29400    274.73705   -964.13868    271269.27   -79363.635    6968.3517   -86331.987    1657.8525 
   29450    273.71755   -870.48263    271115.61   -79338.081    6942.4933   -86280.574    1658.5979 
   29500    279.72167   -1108.2807    271257.93   -79322.842      7094.78   -86417.622    1659.7672 
   29550    277.52687   -938.92841    271247.97   -79275.043    7039.1119   -86314.154    1661.9575 
   29600    277.53232   -727.49764    271476.48   -79281.007      7039.25   -86320.257    1663.6916 
   29650    278.74239   -1227.7678    272079.75   -79254.553     7069.942   -86324.495    1669.0286 
   29700    280.84627   -1171.0437    272111.82   -79260.893    7123.3041   -86384.197     1671.491 
   29750    277.74343   -923.80234    271652.14   -79219.832    7044.6045   -86264.437    1670.4984 
   29800    282.05323    -883.1453    271307.15   -79202.929     7153.917   -86356.846    1671.9267 
   29850    282.51868   -940.68174    271343.37   -79173.458    7165.7227   -86339.181    1675.4703 
   29900    282.30853   -1187.3113    271730.63   -79170.435    7160.3925   -86330.827    1678.2215 
   29950    276.91677   -827.69172    271646.41   -79171.687    7023.6375   -86195.324      1679.15 
   30000    281.36796   -1078.0406    271597.31   -79158.959    7136.5362   -86295.495    1679.8445 
   30050    280.16769   -880.96077    271663.13   -79150.525    7106.0928   -86256.618    1681.3146 
   30100    278.81571   -1162.8985    271937.01   -79155.069    7071.8014   -86226.871    1683.1986 
   30150    278.21762   -986.38329    271901.31   -79137.668    7056.6318     -86194.3    1685.3254 
   30200    279.17802   -1008.4981    271881.18   -79170.924    7080.9912   -86251.915    1688.3254 
   30250    284.42387   -1065.7756    271813.84   -79192.887    7214.0452   -86406.932    1690.7313 
   30300    277.14793     -1174.32    271683.92   -79239.573    7029.5006   -86269.074    1692.8499 
   30350    275.30012    -841.0854    271455.14   -79264.001    6982.6333   -86246.634    1692.8306 
   30400    275.79949   -1006.1012    271602.83   -79286.724    6995.2989   -86282.023    1696.9402 
   30450    278.60585   -1000.2456    271810.62   -79310.964    7066.4788   -86377.443    1700.8216 
   30500    279.34845   -1204.4578    272123.53   -79299.607    7085.3137    -86384.92    1703.3033 
   30550    277.30549   -1064.7213    272147.66   -79239.141    7033.4967   -86272.638    1705.7483 
   30600    281.37309   -919.90996    271972.22   -79213.183    7136.6661   -86349.849    1709.5088 
   30650    280.65223    -1131.078    271908.87   -79170.744    7118.3825   -86289.127    1711.2537 
   30700    282.19219   -914.44712    271924.16   -79175.247    7157.4416   -86332.688     1712.842 
   30750    278.03328   -1452.1714    272142.17   -79162.177    7051.9563   -86214.133    1716.5736 
   30800    282.64542   -1022.4661    271938.63   -79169.324    7168.9374   -86338.261    1720.4675 
   30850     278.4493   -1034.2914    271687.74   -79131.404    7062.5081   -86193.912    1723.1518 
   30900    282.09489   -1078.5769    271501.58   -79122.689    7154.9737   -86277.662    1725.1459 
   30950    280.14684   -1055.7698    271509.77   -79156.143    7105.5639   -86261.707    1730.5551 
   31000    283.81717   -1094.8244    271747.07    -79158.52    7198.6571   -86357.177    1734.1236 
   31050    281.16661    -915.3964    271961.59   -79184.981     7131.429    -86316.41     1740.157 
   31100    281.38618   -1125.6624    272100.25   -79154.147    7136.9982   -86291.145      1745.58 
   31150    280.11183   -911.84462    272068.29    -79131.64     7104.676   -86236.317    1746.8773 
   31200    277.25279   -1026.4597     271816.7   -79166.516    7032.1602   -86198.676    1749.2708 
   31250    275.39004   -1070.9276    271583.68   -79184.856    6984.9138   -86169.769    1750.5968 
   31300    276.31511   -845.69784    271534.33   -79175.338    7008.3771   -86183.715    1751.1173 
   31350    278.79566   -880.70125    271728.37   -79182.865    7071.2931   -86254.158    1753.9367 
   31400     274.0128   -1214.0027    272208.26   -79180.812     6949.982   -86130.794    1758.6094 
   31450    275.83578   -1081.9745    272372.11   -79180.397    6996.2195   -86176.616    1763.4106 
   31500    279.50653   -1231.1065     272061.3   -79227.824    7089.3233   -86317.147     1763.622 
   31550    281.04241   -567.56857    271524.44   -79304.619    7128.2789   -86432.898    1763.6617 
   31600    281.26188   -903.26628    271595.36   -79255.261    7133.8456   -86389.106     1766.068 
   31650      278.482   -885.95446    271910.37   -79232.134    7063.3374   -86295.471    1771.5808 
   31700    281.20598   -1098.1838    272343.95   -79191.701    7132.4278   -86324.129    1777.2608 
   31750    278.35908   -1053.8229    272358.92   -79160.432    7060.2197   -86220.652    1778.9258 
   31800    279.12816    -1116.679    271975.51   -79221.592    7079.7266   -86301.318    1778.7128 
   31850    280.38175   -707.27921    271242.83   -79209.683    7111.5223   -86321.205    1779.3647 
   31900    284.27154   -940.43273    271058.41   -79199.634    7210.1817   -86409.816    1781.1185 
   31950    280.24731   -886.42534    271476.89    -79180.44    7108.1124   -86288.552    1786.7316 
   32000    280.01034   -870.61363    272075.37   -79164.267    7102.1017   -86266.369    1791.8392 
   32050    278.69988   -1096.4921    272679.42    -79176.62    7068.8636   -86245.484    1796.9572 
   32100    275.39747   -1243.5202    272822.52   -79182.503    6985.1022   -86167.605    1798.9435 
   32150    280.21564   -1113.5479    272217.78   -79232.233    7107.3089   -86339.542    1798.6097 
   32200    278.68379   -1047.2845    271443.48   -79247.937    7068.4555   -86316.392    1796.7594 
   32250    278.92008   -855.07353    270694.07   -79196.695    7074.4489   -86271.144    1796.3155 
   32300    277.15728   -703.55832    270593.52    -79197.36    7029.7376   -86227.098    1798.0662 
   32350    276.61118   -895.84185    271472.12   -79229.095    7015.8866   -86244.982    1804.2498 
   32400    274.44634   -1189.9957    272270.17   -79249.359    6960.9781   -86210.337    1809.4587 
   32450    275.71236   -1339.1108    272418.74   -79200.122    6993.0891   -86193.211    1812.5753 
   32500    281.12863   -920.15823    271776.24   -79194.467    7130.4659   -86324.933    1810.4412 
   32550    279.20416   -870.36114    271330.46   -79191.071    7081.6542   -86272.725    1811.4896 
   32600    280.92706    -986.0941    271177.82   -79212.741    7125.3532   -86338.094    1812.5419 
   32650    280.32701   -994.41321    271432.26   -79207.724    7110.1337   -86317.858    1816.0583 
   32700    280.69657   -1087.0858    271780.64   -79208.903     7119.507    -86328.41    1818.3498 
   32750    278.86747   -1127.7449    271865.69    -79217.15    7073.1145   -86290.264    1820.5701 
   32800    280.69072   -977.04167    271772.26   -79190.611    7119.3589    -86309.97    1822.1616 
   32850    277.15647   -1027.8728    271948.37    -79182.38     7029.717   -86212.097    1826.4425 
   32900    277.93101   -959.56032    272014.82   -79156.976    7049.3622   -86206.338    1828.4016 
   32950    280.71421    -993.7007    271861.17   -79183.156    7119.9547    -86303.11    1830.6931 
   33000    275.65275   -1006.4181    271816.29   -79185.341    6991.5771   -86176.918    1834.0029 
   33050    274.10402   -1173.9674    271989.75   -79169.144    6952.2957    -86121.44    1838.4183 
   33100    278.36545   -991.26833     271986.6    -79175.84    7060.3813   -86236.221       1840.7 
   33150    282.06841   -1031.0377    271861.61   -79162.407     7154.302   -86316.709    1843.7736 
   33200    278.72544   -832.81413    271798.99   -79187.884    7069.5119   -86257.396    1845.7849 
   33250    278.73561   -929.96605    272036.58   -79138.305    7069.7699   -86208.075    1848.9641 
   33300    280.70337   -1076.3849    272219.24   -79115.403    7119.6796   -86235.083    1850.0268 
   33350    277.37261    -916.8858    272142.91   -79115.306    7035.1993   -86150.505    1852.0659 
   33400    282.07005   -936.46281     271796.1   -79127.423    7154.3436   -86281.767    1853.5105 
   33450    283.43403    -950.5474    271454.04   -79106.603    7188.9393   -86295.543    1853.0806 
   33500    279.61598   -979.56092    271544.38    -79072.76    7092.0993    -86164.86    1856.2705 
   33550    281.12844   -929.78578    272146.57   -79014.285     7130.461   -86144.746    1863.9756 
   33600    284.10733   -1300.6212    272758.37   -79022.137    7206.0166   -86228.153    1870.7447 
   33650    276.94775   -1029.2681    272702.01    -79007.27     7024.423   -86031.694    1872.7973 
   33700    283.48496   -1091.7113    272175.76   -79035.121    7190.2311   -86225.352    1871.2474 
   33750    285.22488   -1023.4708    271552.25   -79087.973    7234.3618   -86322.335    1870.6599 
   33800    285.13059   -1080.0911    271283.49   -79120.026    7231.9704   -86351.996    1871.3454 
   33850    278.53916   -868.41342    271632.89   -79163.763    7064.7873    -86228.55    1875.2114 
   33900    277.04162    -1057.174    272296.59   -79141.991     7026.804   -86168.795    1880.6044 
   33950    277.96369   -1015.0273    272452.98   -79135.268    7050.1912   -86185.459    1882.8805 
   34000    276.28331   -974.27261    272598.41   -79129.839    7007.5705   -86137.409    1887.7483 
   34050    284.08675    -1363.808       272425   -79174.095    7205.4947    -86379.59    1889.7367 
   34100    281.91156   -1062.9267    271624.68   -79192.705    7150.3238   -86343.029     1888.386 
   34150    280.27542   -745.79446    270821.91    -79234.74    7108.8253   -86343.565    1888.3608 
   34200    280.14865    -805.9767       270994   -79217.594    7105.6099   -86323.204    1891.8324 
   34250    279.18132   -1089.5454    271651.96   -79285.961    7081.0748   -86367.036     1898.978 
   34300     275.3561   -1138.3502     271963.4   -79301.141     6984.053   -86285.194    1904.0106 
   34350    276.86317    -1132.642    271997.46   -79281.594     7022.278   -86303.872    1906.5923 
   34400    278.74885   -994.75403    271592.02   -79331.932    7070.1057   -86402.038    1909.0264 
   34450    280.12705   -930.12269    271034.17   -79311.219    7105.0621   -86416.281    1909.5814 
   34500    277.99445   -1074.8762    270880.57   -79348.262    7050.9715   -86399.233    1913.0006 
   34550    277.72753   -940.03057    271207.16   -79295.644    7044.2013   -86339.845    1918.0442 
   34600    277.85919   -948.50395    271960.94   -79265.218    7047.5406   -86312.758    1926.1072 
   34650    274.93769   -1120.1345    272430.69   -79256.365    6973.4406   -86229.806    1930.6022 
   34700    274.23445   -1121.1734    272439.52   -79225.671    6955.6039   -86181.275    1933.3531 
   34750    277.27285   -1142.1756     271919.7   -79328.717    7032.6689   -86361.386    1932.3371 
   34800    280.83397   -786.05107    270993.42    -79323.71    7122.9922   -86446.702    1931.9612 
   34850    275.86641   -656.83611     270755.1    -79359.04    6996.9963   -86356.036    1934.4037 
   34900    272.54048   -795.31707     271243.5   -79331.652    6912.6385    -86244.29    1938.7426 
   34950    277.39026   -1050.0259    272123.16   -79348.356    7035.6468   -86384.003    1944.9405 
   35000    276.00239    -1156.582    272636.54   -79318.183    7000.4454   -86318.628     1951.111 
   35050    274.51346    -1243.749    272277.59   -79350.238    6962.6807   -86312.918    1950.7088 
   35100    279.48625   -986.47207    271444.04   -79358.496    7088.8089   -86447.304    1947.2647 
   35150    280.80165   -889.17377    270941.98   -79356.241    7122.1723   -86478.413    1947.2356 
   35200    276.94366   -720.10521    270962.75   -79333.218    7024.3195   -86357.537    1951.3369 
   35250    275.07325   -1020.0971    271337.23   -79336.106     6976.879   -86312.985    1954.9493 
   35300    279.74969    -854.9218    271561.55   -79275.387    7095.4907   -86370.878    1959.1869 
   35350       276.03   -1042.7843    271642.02   -79277.346    7001.1456   -86278.492    1961.5319 
   35400     282.9009     -865.415     271618.3   -79249.401    7175.4172   -86424.818    1965.8504 
   35450    274.34447   -837.19872    271569.22   -79277.742    6958.3944   -86236.136    1969.1399 
   35500    273.76657   -964.43569     271657.1   -79275.278    6943.7365   -86219.015    1974.2742 
   35550    279.11006   -1042.4885    271696.46   -79281.879    7079.2674   -86361.146    1977.3007 
   35600     280.2861   -840.00737    271533.24   -79233.942     7109.096   -86343.038    1979.4694 
   35650    280.14645   -986.41175    271688.37   -79226.768     7105.554   -86332.322    1984.7501 
   35700    279.68051   -1037.8671    271950.15   -79234.495    7093.7361   -86328.232    1988.2824 
   35750    278.51284   -902.88494    271925.01   -79214.946    7064.1197   -86279.066    1992.2842 
   35800    283.41699   -1067.7849    271778.33    -79214.01    7188.5072   -86402.517    1994.7199 
   35850    279.37684    -1223.992    271689.17    -79220.46     7086.034   -86306.494    1994.4112 
   35900    278.47586   -862.41467    271491.42   -79182.951    7063.1818   -86246.133    1995.0255 
   35950    277.48433   -1020.3188    271629.05   -79203.694     7038.033   -86241.727     1998.438 
   36000    275.92402   -847.34587    271662.68   -79201.355    6998.4577   -86199.813    2002.4456 
   36050    276.56043   -855.56999    271517.89   -79256.441    7014.5993    -86271.04    2003.5304 
   36100    278.53816   -908.60704    271283.59   -79215.215     7064.762   -86279.977    2004.0685 
   36150     278.2513   -873.99758     271357.4   -79229.944    7057.4861    -86287.43    2005.1636 
   36200    277.29721   -872.36748     271653.5   -79251.027    7033.2868   -86284.314    2009.7684 
   36250    278.43159   -898.31852    271782.39   -79267.137     7062.059   -86329.196     2011.989 
   36300    276.15841   -1019.4399     271714.9   -79280.018    7004.4025    -86284.42    2013.7131 
   36350    278.80241   -849.21901    271463.94   -79302.009    7071.4641   -86373.474    2015.0158 
   36400    275.15192   -963.80566    271548.03       -79298    6978.8743   -86276.875    2017.8408 
   36450    280.14547   -1007.5924    271826.42   -79237.474    7105.5293   -86343.003    2020.9992 
   36500     280.0228   -966.62037     271940.3   -79180.823    7102.4179   -86283.241    2024.2697 
   36550    277.60628   -1038.0571    271973.72   -79189.747    7041.1259   -86230.873    2027.6723 
   36600    273.41677   -1264.3729    271850.76   -79250.478    6934.8643   -86185.342    2028.5629 
   36650     275.9099   -941.04321    271389.83   -79269.463    6998.0995   -86267.563    2029.2581 
   36700    277.88379   -992.52493    271207.82   -79308.043    7048.1647   -86356.208    2030.7314 
   36750    275.91292   -1066.9075    271268.06   -79303.207    6998.1761   -86301.383    2032.4224 
   36800    282.34159   -1040.9644     271451.4     -79312.7    7161.2309   -86473.931    2035.7613 
   36850    276.99908   -1005.0673    271822.11   -79293.904    7025.7251    -86319.63    2039.7161 
   36900    283.21417    -1221.131    272367.06    -79276.53    7183.3628   -86459.893    2045.1534 
   36950    278.11644   -1096.6923    272361.08   -79283.426    7054.0656   -86337.492    2046.0484 
   37000     276.4993    -774.3803    271828.34   -79298.947    7013.0487   -86311.996    2045.1885 
   37050    276.61596   -1122.1105    271390.58   -79300.127    7016.0079   -86316.135    2042.8205 
   37100    280.34455   -854.82319    271049.41   -79242.611    7110.5785    -86353.19    2040.8781 
   37150    279.80986   -957.76564    271195.43   -79236.486     7097.017   -86333.503    2041.4126 
   37200    279.12658   -1058.1898    271513.47   -79244.189    7079.6864   -86323.875    2047.9845 
   37250    277.02742   -989.59536    271873.07   -79257.963    7026.4439   -86284.407    2053.7699 
   37300    274.83493   -1144.5155    272071.17   -79285.407    6970.8341   -86256.241    2056.8048 
   37350    276.58145   -1000.4933    272057.68   -79262.411    7015.1325   -86277.544    2060.3532 
   37400    278.83791   -1149.3934    271984.62   -79231.723    7072.3647   -86304.088    2062.6043 
   37450    279.36866   -1020.0373    271607.79   -79217.162    7085.8264   -86302.988    2060.6696 
   37500    280.55337   -1021.4769    271163.92   -79191.081    7115.8751   -86306.956    2059.4724 
   37550    277.85318   -868.06352     271050.5   -79254.412    7047.3881     -86301.8    2060.7218 
   37600    278.94603   -1001.6558    271680.21   -79263.841     7075.107   -86338.948    2064.6806 
   37650     277.6079   -1420.0361    272332.53   -79247.333    7041.1671     -86288.5     2071.291 
[...]
   90850    276.97146   -1002.0878    271579.22   -79340.178    7025.0246   -86365.203    4856.5297 
   90900    277.04838   -998.03979    271571.01   -79328.794    7026.9756    -86355.77    4857.1697 
   90950    280.47181   -1286.2182    271686.79   -79328.353    7113.8063   -86442.159     4859.114 
   91000     279.0611   -1174.0085    271571.36   -79350.715    7078.0257   -86428.741    4859.6384 
   91050    277.76792    -963.4855    271172.99   -79393.789    7045.2258   -86439.015    4855.9231 
   91100    273.68862   -870.75666    271152.15    -79340.54    6941.7595     -86282.3     4855.323 
   91150    279.42982   -988.10055     271599.9   -79308.643    7087.3777   -86396.021    4863.9296 
   91200    279.43105   -1122.5596    272076.83   -79321.661    7087.4088   -86409.069    4875.3716 
   91250    275.94189   -1088.6518    271989.03   -79290.253    6998.9109   -86289.164    4875.0614 
   91300    275.82905   -961.81879    271503.87   -79305.547    6996.0487   -86301.596    4873.3871 
   91350    276.51519   -870.54381    271189.27   -79318.767    7013.4518   -86332.219     4872.647 
   91400    280.20905    -1084.869    271306.56    -79347.91    7107.1419   -86455.052    4875.0505 
   91450    274.64765   -962.76351    271450.81   -79297.483    6966.0841   -86263.567    4880.2753 
   91500    276.58325   -1010.9578    271617.58   -79343.309    7015.1782   -86358.487    4885.2994 
   91550    275.01381   -941.83514    271541.56   -79305.929    6975.3713     -86281.3    4882.5763 
   91600    279.66174   -1169.4864    271419.97   -79321.539    7093.2601     -86414.8    4883.7843 
   91650    280.65174   -1047.3079    271418.95   -79294.352    7118.3702   -86412.722    4884.8559 
   91700    275.46805   -905.75235     271627.2   -79309.588    6986.8924    -86296.48    4888.8743 
   91750    275.78606   -946.23749    271811.51   -79281.376    6994.9584   -86276.335    4893.5377 
   91800    281.67493   -1184.6321    272028.28   -79301.554     7144.322   -86445.876    4896.9222 
   91850    278.20108   -1010.1398    272287.91   -79294.257    7056.2123   -86350.469    4900.7896 
   91900    277.06412   -1195.9056    272267.48   -79272.946    7027.3746    -86300.32    4901.4054 
   91950    276.37889   -945.57568    271769.46   -79268.001    7009.9946   -86277.996    4898.9022 
   92000    278.80368   -1203.5214    271385.49   -79327.663    7071.4965    -86399.16    4898.3093 
   92050    278.08589   -855.76504    271018.41   -79349.448    7053.2906   -86402.739    4896.5437 
   92100    273.88083   -852.66262    270998.28   -79320.228    6946.6346   -86266.862    4900.3535 
   92150     278.1438   -1153.0711    271450.05   -79347.055    7054.7594   -86401.814    4908.0139 
   92200    274.59669   -859.68765    271633.75   -79313.948    6964.7915   -86278.739    4911.7163 
   92250    275.28889   -1163.0712    271816.45    -79283.18    6982.3482   -86265.528    4916.2785 
   92300    274.22583   -994.54115    271670.68   -79272.546    6955.3852   -86227.931    4915.5941 
   92350    275.72364   -1026.2104    271442.44   -79239.552    6993.3753   -86232.927    4914.4538 
   92400    279.27127   -976.30956    271382.81   -79262.505    7083.3562   -86345.861    4919.4486 
   92450    277.71841   -950.06317    271478.75   -79271.025    7043.9701   -86314.995    4920.4139 
   92500    275.81605   -1030.0244    271664.06   -79309.741    6995.7192    -86305.46    4923.6373 
   92550     278.2706   -1166.9614    271814.75   -79336.996    7057.9755   -86394.971    4928.5346 
   92600    273.84599   -919.00018     271750.5   -79308.036     6945.751   -86253.787    4928.4616 
   92650    276.44322   -1084.4609    271757.18   -79278.866    7011.6263   -86290.493    4929.9425 
   92700    279.55432   -952.37174    271610.66   -79282.508    7090.5355   -86373.044    4929.7522 
   92750    275.89753    -897.9834    271552.45   -79262.364    6997.7857   -86260.149    4930.1583 
   92800    279.89527   -998.60746    271810.77   -79260.392    7099.1833   -86359.575    4938.2638 
   92850    278.55842   -869.96821    272312.18   -79214.779    7065.2756   -86280.055    4943.1725 
   92900    283.24112   -1368.8842    272694.28   -79202.434    7184.0463    -86386.48     4949.314 
   92950     276.6483   -932.90141    272089.05   -79183.909     7016.828   -86200.737    4942.7961 
   93000    281.73041   -934.73496     271401.5   -79133.993    7145.7293   -86279.723    4937.9666 
   93050    277.65633   -539.14704    271112.22   -79117.347    7042.3954   -86159.742    4936.8762 
   93100     283.0515   -892.93353    271818.92   -79144.449    7179.2371   -86323.686    4949.0263 
   93150    277.51405   -1142.0566    272891.52   -79153.095    7038.7866   -86191.881    4965.9145 
   93200    276.97984   -1297.1907    273443.84    -79190.65    7025.2371   -86215.888     4976.445 
   93250    277.98943   -1414.9962    272867.86   -79191.712    7050.8442   -86242.556    4971.0083 
   93300    279.55497   -959.61298    271404.03   -79208.435    7090.5521   -86298.987    4955.3957 
   93350    274.97576   -429.98164    270507.05    -79236.12    6974.4061   -86210.526    4945.3719 
   93400    281.34605   -763.85665    271124.74   -79195.324    7135.9805   -86331.305    4954.2015 
   93450    276.51806   -1144.1215    272210.76   -79190.681    7013.5246   -86204.206    4969.4538 
   93500    278.13329   -1194.9638    272691.91    -79208.99     7054.493   -86263.483     4976.062 
   93550    277.87988   -1135.0303    272396.26   -79172.065    7048.0654    -86220.13    4974.8584 
   93600    279.51739   -946.46707    271688.74   -79171.524    7089.5988   -86261.123    4967.9177 
   93650     278.1327   -962.81564    271369.92    -79152.31    7054.4779   -86206.788    4966.0512 
   93700    278.68465   -608.96577    271362.69   -79120.932    7068.4773   -86189.409    4967.5884 
   93750    279.18936   -1005.2813    271884.44   -79162.973    7081.2788   -86244.252    4976.8311 
   93800    279.26237   -1329.3975    272290.37   -79177.757    7083.1304   -86260.887    4984.9722 
   93850     279.1946   -1230.7029    272154.34   -79183.435    7081.4116   -86264.847    4990.2651 
   93900    278.54129     -957.666    271754.62   -79180.415    7064.8413   -86245.256    4988.6645 
   93950    281.65088   -1045.5684    271567.94   -79188.954     7143.712   -86332.666    4988.3563 
   94000    276.54511   -842.16718    271472.85   -79237.953    7014.2107   -86252.164    4990.7469 
   94050    276.53384    -1039.504    271572.19   -79298.709    7013.9249   -86312.634    4995.9828 
   94100    280.63473   -1049.5194    271534.51   -79310.918    7117.9386   -86428.856    5001.9797 
   94150    275.18532   -1047.1036    271403.12   -79344.985    6979.7215   -86324.706    5008.0689 
   94200    274.91881   -952.23816    271233.03   -79316.618    6972.9617   -86289.579     5010.403 
   94250    277.89706   -1071.2054     271358.8   -79267.481    7048.5012   -86315.982    5017.0751 
   94300    277.28297   -1074.5459    271509.68   -79268.419    7032.9255   -86301.345    5023.4607 
   94350    277.92195   -987.44387    271824.24   -79282.995    7049.1325   -86332.128    5031.7515 
   94400    281.93384   -1402.9734    272190.81    -79277.32     7150.889   -86428.209    5041.5668 
   94450    276.91586    -812.6031    271838.98   -79277.062    7023.6143   -86300.676    5040.6879 
   94500    273.10357   -887.45108    271520.16   -79302.049    6926.9206   -86228.969    5042.8285 
   94550    275.75143   -925.91821    271350.47   -79289.435      6994.08   -86283.515    5048.0002 
   94600    279.23944   -1124.0188    271651.96   -79275.359    7082.5488   -86357.908    5057.9669 
   94650    277.31235   -1040.2481    271978.81   -79281.227    7033.6708   -86314.898    5067.5059 
   94700    276.40312   -986.31012    272052.88   -79258.256    7010.6094   -86268.865    5073.6071 
   94750    274.48815   -1022.1708    271829.96   -79303.528    6962.0387   -86265.567    5077.5057 
   94800    273.42964   -860.52654     271299.6   -79348.078    6935.1909   -86283.269    5074.5314 
   94850    276.83216   -1001.7106    271147.76   -79386.189    7021.4915    -86407.68    5072.3751 
   94900    275.69153   -966.80891    271118.67   -79386.252    6992.5607   -86378.812    5072.8325 
   94950    278.43478   -972.65874    270960.12   -79347.445    7062.1398   -86409.585    5070.4787 
   95000    280.05284   -933.68809    271140.69   -79411.748    7103.1799   -86514.928    5073.3797 
   95050    276.22262   -918.68791    271750.48   -79417.937    7006.0311   -86423.968    5083.1017 
   95100    278.81341   -1271.3438    272430.96   -79373.623    7071.7431   -86445.366    5093.9225 
   95150    271.97273   -1026.2448    272435.41    -79336.94    6898.2383   -86235.178    5095.0237 
   95200    276.37668   -1111.0972    271977.88   -79364.382    7009.9388   -86374.321    5090.9152 
   95250    277.37534   -825.17602    271177.65    -79392.42    7035.2686   -86427.689    5086.7889 
   95300    271.71952   -753.05256    270664.54   -79427.142    6891.8159   -86318.958     5085.344 
   95350    277.83056   -878.68594    270962.04   -79429.464    7046.8144   -86476.279    5091.0575 
   95400    274.10311   -943.31102    271573.34   -79367.416    6952.2726   -86319.689    5100.6807 
   95450     272.3339   -803.68713    271887.29   -79353.076    6907.3989   -86260.475    5107.5704 
   95500    278.99729   -1211.4636    271991.37    -79333.63    7076.4072   -86410.037    5111.9463 
   95550    278.41042   -1046.4832    271858.88   -79285.583    7061.5218   -86347.105    5113.7124 
   95600    276.99128   -987.43495    271716.87   -79296.001    7025.5273   -86321.528    5114.1203 
   95650    280.18017   -849.90172    271763.67   -79265.215    7106.4094   -86371.624    5120.2444 
   95700    280.97721     -977.569    272195.51   -79254.046    7126.6254   -86380.671    5125.4609 
   95750    273.79282   -1249.3804    272413.02   -79242.618    6944.4024   -86187.021    5127.2255 
   95800     275.9223   -1220.1945     272099.7   -79237.527    6998.4139   -86235.941    5125.7306 
   95850    277.44758    -966.1581    271367.45   -79237.437    7037.1008   -86274.538    5118.5764 
   95900    277.92451   -1001.8072    271057.55   -79246.368    7049.1974   -86295.566    5120.2484 
   95950    280.20914   -867.72418    271110.82   -79230.168    7107.1442   -86337.312    5123.6707 
   96000    283.58445   -1101.9937    271448.59   -79224.897    7192.7545   -86417.651     5130.866 
   96050    277.45166   -1096.5226    271832.04    -79209.41    7037.2042   -86246.614    5137.7632 
   96100     276.8452   -1188.6991    271963.52   -79267.161    7021.8221   -86288.983     5141.361 
   96150    275.67245    -1039.746       271837   -79283.764    6992.0769   -86275.841    5138.4095 
   96200     277.5831   -1056.6778    271566.01   -79274.986    7040.5379   -86315.524    5137.1885 
   96250     282.3618   -1016.3122    271382.99   -79303.373    7161.7435   -86465.117    5140.1542 
   96300    279.67539    -927.2383    271286.13    -79274.68    7093.6063   -86368.286    5141.5985 
   96350    277.89353   -961.95649    271395.57   -79292.172    7048.4118   -86340.583    5144.3625 
   96400    279.78485   -1127.9682    271395.26   -79319.197    7096.3825    -86415.58    5149.8633 
   96450    278.15578   -906.22321    271233.22   -79291.545    7055.0632   -86346.609    5152.4889 
   96500    279.14777   -808.05877    271308.56   -79275.693    7080.2237   -86355.917    5157.0403 
   96550      281.367   -1077.0884    271684.81   -79304.303    7136.5119   -86440.815    5166.6808 
   96600    274.86034   -1277.5375    271940.95   -79356.648    6971.4787   -86328.127    5175.8219 
   96650    277.84795   -1058.4002    271683.41   -79379.913    7047.2555   -86427.168     5179.103 
   96700    273.65979   -787.73835    271221.12   -79392.453    6941.0283   -86333.481     5174.595 
   96750    273.63141   -866.02215    271041.98   -79428.595    6940.3085   -86368.903    5175.2062 
   96800    273.54299   -889.61654    271055.41   -79444.991    6938.0658   -86383.057    5177.6113 
   96850    275.02041   -1054.7069     271279.1   -79429.883    6975.5387   -86405.422    5185.0033 
   96900    275.81202   -917.56928    271662.75   -79408.067    6995.6169   -86403.684    5194.8706 
   96950      276.332   -1231.9623    272120.84    -79394.59    7008.8055   -86403.396    5205.5306 
   97000    271.00603   -1000.6779    272209.99   -79312.797    6873.7191   -86186.517    5212.0709 
   97050    271.33074   -831.29604    271802.35   -79312.919    6881.9549   -86194.874    5210.8885 
   97100    275.75333    -857.8033    271284.05   -79323.163    6994.1281   -86317.292    5204.2293 
   97150    275.45498    -599.0457    271169.08   -79356.465    6986.5611   -86343.026    5205.1145 
   97200    275.47194   -1033.4576    271644.83   -79330.311    6986.9912   -86317.302    5215.3741 
   97250    276.81718   -1133.4805    271983.24   -79325.345    7021.1114   -86346.457     5224.901 
   97300    279.78608    -1033.959    272018.72   -79272.874    7096.4138   -86369.288    5225.7822 
   97350    280.21716   -795.26998    271727.23   -79245.312    7107.3474   -86352.659    5228.5939 
   97400    280.35447   -1104.3327    271576.89   -79225.485    7110.8302   -86336.315    5231.9285 
   97450    283.05983   -1204.6853    271561.56   -79222.258    7179.4482   -86401.706    5236.3238 
   97500    281.34931   -989.48044    271646.52     -79235.4     7136.063   -86371.463     5240.917 
   97550    283.54847   -914.19398    271896.96   -79232.807    7191.8419   -86424.649    5245.8433 
   97600    277.99113   -1050.7229    272101.59   -79211.731    7050.8872   -86262.618    5252.3564 
   97650    282.80308     -776.686    271947.71   -79201.939     7172.936   -86374.875     5256.577 
   97700    280.38776   -943.65113    271890.21   -79200.271    7111.6746   -86311.946    5260.3185 
   97750    276.78382   -937.00631    272011.07   -79196.943    7020.2654   -86217.208    5265.5281 
   97800    279.59325   -1118.2315    272231.83   -79215.025    7091.5228   -86306.548     5274.168 
   97850    278.72782   -1149.3094    272265.72    -79234.71    7069.5725   -86304.282    5278.2054 
   97900    273.89324   -1110.6428    271912.44   -79230.195    6946.9494   -86177.144    5276.0192 
   97950    280.20477   -1093.4793    271518.38   -79226.795    7107.0333   -86333.828    5273.3319 
   98000     280.3096   -962.13055    271200.66   -79211.198    7109.6922    -86320.89    5268.7208 
   98050     281.8485   -1009.9777    271102.82   -79235.328    7148.7243   -86384.052    5267.6301 
   98100    277.68905   -923.42228    271389.59    -79228.61    7043.2252   -86271.835    5273.9968 
   98150      275.472    -1095.477    272041.23   -79238.821    6986.9926   -86225.814    5284.9747 
   98200    282.76692   -1074.7908    272383.76   -79206.786    7172.0188   -86378.805    5294.1204 
   98250    278.94869   -1048.7957    272270.54    -79150.45    7075.1746   -86225.624    5294.6637 
   98300    281.67839   -867.01305    271899.27   -79145.807    7144.4098   -86290.217    5294.4119 
   98350     282.4341   -941.98349    271517.94   -79109.672    7163.5774    -86273.25    5292.1754 
   98400    279.98067   -758.23534    271308.72   -79147.075    7101.3492   -86248.425    5292.1015 
   98450    280.47954   -946.06677    271655.49   -79169.916    7114.0024   -86283.919    5301.0509 
   98500     281.5433   -1332.3926    272282.83   -79206.872    7140.9835   -86347.856    5313.8016 
   98550    278.87026   -1041.7462    272398.35   -79203.305    7073.1852   -86276.491    5324.4607 
   98600    279.25529   -925.07246    272191.74   -79195.036     7082.951   -86277.987    5324.3617 
   98650    282.15265   -1141.3474    272159.32   -79143.338    7156.4387   -86299.777    5332.4903 
   98700    278.63673   -978.00503     272018.2   -79156.835     7067.262   -86224.097    5338.1837 
   98750    278.77645   -982.81353    271656.92   -79128.005    7070.8058   -86198.811    5335.0652 
   98800    281.29042   -781.41721    271049.32   -79154.761    7134.5694    -86289.33    5330.0295 
   98850    286.04744   -980.63026    270920.58   -79181.433     7255.225   -86436.658    5327.2259 
   98900    282.79631   -1089.6333    271248.57   -79179.824    7172.7643   -86352.589    5329.9572 
   98950    280.28349    -1153.608    271976.36   -79156.028    7109.0299   -86265.058    5343.9996 
   99000    282.31077   -1211.9817    272638.11    -79150.27    7160.4492    -86310.72     5356.716 
   99050    276.79571   -1160.8211    272646.58   -79196.564    7020.5667   -86217.131    5355.7229 
   99100    280.31629   -1155.1848    271997.72   -79162.919    7109.8618   -86272.781    5350.0793 
   99150    278.12532   -1060.8623    271294.28   -79237.018    7054.2907   -86291.309    5346.9981 
   99200    278.06952    -726.7223    270959.27   -79304.107    7052.8753   -86356.982    5348.1264 
   99250    272.61183   -862.01688    271430.53   -79327.976    6914.4482   -86242.425    5359.9129 
   99300    274.29659   -1028.0811    272070.79    -79335.57    6957.1798    -86292.75    5370.3236 
   99350    276.16683   -1320.0221    272170.73   -79379.522     7004.616   -86384.138      5378.47 
   99400    275.05711   -1214.6178    271818.44   -79416.391    6976.4694   -86392.861     5377.394 
   99450     280.1975   -818.55671    271496.82    -79409.23     7106.849   -86516.079    5375.6264 
   99500    276.57939   -973.08732    271583.89   -79409.353    7015.0802   -86424.433    5379.5217 
   99550    277.41018   -1001.5723    271732.98   -79434.466    7036.1521   -86470.618    5383.4251 
   99600    274.66801   -974.10808    271794.49   -79439.545    6966.6006   -86406.146    5390.0556 
   99650    274.39673   -980.23821    271917.35   -79376.542    6959.7198   -86336.262    5395.6307 
   99700    273.96762   -887.28863    271868.98   -79363.188     6948.836   -86312.024    5398.6308 
   99750    270.74687   -924.29885    271585.49   -79334.058    6867.1458   -86201.203    5393.2296 
   99800    276.53127   -832.08359       271411    -79360.54    7013.8596     -86374.4    5395.3638 
   99850     277.8533   -924.43641    271579.02   -79393.777    7047.3912   -86441.168    5405.4985 
   99900    273.93714    -1234.614    271847.38   -79361.727    6948.0629    -86309.79    5411.1056 
   99950    271.91996   -1149.9055    272019.53   -79332.963    6896.8997   -86229.863    5415.0719 
  100000    280.12606   -1159.7923    271890.79   -79340.418    7105.0368   -86445.455    5414.6999 
Loop time of 343.452 on 6 procs for 100000 steps with 8510 atoms

Performance: 251.563 ns/day, 0.095 hours/ns, 291.161 timesteps/s
99.5% CPU use with 6 MPI tasks x no OpenMP threads

MPI task timing breakdown:
Section |  min time  |  avg time  |  max time  |%varavg| %total
---------------------------------------------------------------
Pair    | 164.57     | 221.4      | 288.9      | 336.6 | 64.46
Neigh   | 36.7       | 38.798     | 41.261     |  27.9 | 11.30
Comm    | 7.1103     | 77.061     | 135.75     | 590.3 | 22.44
Output  | 0.1345     | 0.1365     | 0.14427    |   0.9 |  0.04
Modify  | 4.9391     | 4.9926     | 5.0679     |   1.9 |  1.45
Other   |            | 1.063      |            |       |  0.31

Nlocal:        1418.33 ave        1455 max        1389 min
Histogram: 1 1 1 1 0 0 0 0 0 2
Nghost:        2191.67 ave        2216 max        2148 min
Histogram: 1 0 0 0 0 2 0 0 1 2
Neighs:        0.00000 ave           0 max           0 min
Histogram: 6 0 0 0 0 0 0 0 0 0
FullNghs:      44503.7 ave       45720 max       43233 min
Histogram: 1 0 1 0 1 0 1 1 0 1

Total # of neighbors = 267022
Ave neighs/atom = 31.377438
Neighbor list builds = 20616
Dangerous builds = 0

# Create data file for import to other simulations
#
write_data data.${NAME}
write_data data.coexist_278K_-1000atm_mW
System init for write_data ...

Total wall time: 0:05:43
