LAMMPS data file via write_data, version 29 Oct 2020, timestep = 200000

4608 atoms
1 atom types

-0.38777520060645543 53.78777520060152 xlo xhi
-0.02605591226080506 50.93317591225844 ylo yhi
-0.02605591226080506 50.93317591225844 zlo zhi

Masses

1 18.015

Atoms # atomic

514 1 4.332163224108501 3.6544138709142557 1.731879431879638 1 0 0
3635 1 10.735166282333841 20.543651498859834 3.5213748717405915 0 1 0
3929 1 13.827981365561715 48.94452808210556 3.6463115817503833 2 -2 3
2986 1 0.2021048748264389 9.384084616270433 2.8876965467777835 0 0 1
2219 1 1.2768152052347648 4.931014098189477 5.056573306239135 1 1 1
1732 1 12.759944384232703 0.5746381737923821 20.122931801549015 1 1 1
3589 1 4.688185496335371 6.631494618405438 2.021595428042234 1 2 1
1790 1 7.78874487502649 6.181585938865629 3.163553077874418 2 1 0
2023 1 12.41943686648486 0.4912231408506965 7.504288937194064 1 1 -1
469 1 12.706824310216632 10.452559255507513 3.8927779015931314 0 1 0
3556 1 2.908121546456791 8.380285615624372 3.4968221663816554 1 1 1
4118 1 16.348756610492565 42.95960265470306 0.0481761508004626 1 0 1
733 1 5.3989090283104515 6.4475131795642975 5.275459430005487 0 0 0
595 1 13.31137057038181 8.011362498560528 4.139344468764128 0 -1 0
4213 1 12.776074119548282 5.476043419503567 1.8958776600744203 1 0 1
4539 1 0.3268696319041703 29.38799684637218 2.7947209256416405 0 0 0
1542 1 4.9325610931130575 10.344183063397402 3.932039744564843 1 0 0
4048 1 7.541822883412518 10.775323840522647 3.784854621447939 2 1 1
962 1 12.831934397810592 12.117168611980448 5.799549322180787 -1 1 1
3529 1 2.092331324190969 32.070060991335836 0.2975411926186567 1 1 0
1034 1 15.46325384560939 10.64756987870212 3.810219388567282 0 -1 2
3684 1 14.088745128507966 15.031834128958906 0.3458215536338152 0 0 0
4187 1 2.8197832683718524 14.038853718933943 3.0819724030902274 0 0 1
1435 1 -0.2727956298488743 7.497622605527298 8.559101253257753 0 1 1
4457 1 6.980501416691589 15.588097892822766 2.711326231180012 0 0 1
1270 1 8.834797673432389 13.235176760345256 4.175483126445043 0 1 0
3742 1 12.856206016592749 14.207961167332462 4.1860011272991136 0 1 0
1267 1 0.042494211798636494 1.3889554455931787 21.499361930877786 1 -1 0
2078 1 15.11109219549331 47.86178047911092 1.1290766571068465 0 -1 1
3288 1 4.671826070441854 16.960714959027943 3.5801368358086036 0 1 0
2908 1 0.32835156097359686 39.72709784948147 20.077910160915945 0 -1 0
4224 1 0.8484632856993775 31.393717007797047 13.07467161571379 1 0 0
997 1 1.070987740406628 14.251717870804093 18.64612161648812 0 0 0
264 1 2.725696051453496 2.926647678408007 9.046378080342228 1 0 0
3296 1 2.0467660805649257 7.172027363864204 5.5824027486567 1 1 0
460 1 9.89794579534328 44.02679033197484 0.2360083789115025 0 0 1
4088 1 13.551942808681563 16.760157057201628 2.9003780027848514 1 1 1
145 1 0.8544626052165629 7.284987176990662 0.6562138832205268 1 -1 1
995 1 6.493602531600867 20.354182977941612 0.6355681080096092 -1 0 0
339 1 8.645568350608052 26.56008288429685 2.06180157656724 1 1 0
4028 1 7.6527057652947725 22.708143995045372 4.895431162775506 1 -1 0
1846 1 12.515727767264 22.550326916545256 2.3901700335022835 0 0 0
4508 1 11.987372077511292 24.255823143895924 5.012285664430919 0 0 2
3816 1 15.235782284471533 21.98178768999467 1.2226073092827479 1 0 2
61 1 0.180706916038885 14.020912869210512 8.605130827702252 -1 -1 0
2258 1 1.197275170754055 25.075614139388712 3.564478788195665 0 0 0
1666 1 5.176729681534335 26.2165485702086 1.7994536961236345 0 0 1
4307 1 -0.10510565136926653 5.3161934026872695 24.36493402197622 1 0 0
4076 1 8.53821906381292 23.821866504029483 2.0715245510173688 -2 0 2
2919 1 2.3498889109020284 50.392283769609605 9.753867420048055 0 -1 1
876 1 8.193363562201178 36.46276017806723 0.5776817799432088 0 0 1
4273 1 12.731192906255126 25.594172288181046 2.6731683827527304 1 -1 1
432 1 6.847335118236936 31.123459665364862 3.60673657552162 0 -1 0
2069 1 15.575717451091592 14.362903664923378 20.159127993749212 1 0 -1
3069 1 11.005275280133294 27.505239327714715 0.8498683303897165 2 -1 -1
407 1 3.63224577424572 28.98425111026604 5.295150446962247 0 1 -1
1805 1 8.698430943102505 17.426058988267823 1.3139570669073681 1 1 1
2875 1 7.447031007764719 32.78830249690522 5.821950361953829 -1 1 0
2346 1 15.081128382005808 29.891466747573052 2.579085953992467 0 1 0
1864 1 11.13845302071005 33.80029551945984 2.060871744319954 1 0 0
2389 1 2.9738430478551567 24.80731835270088 6.885171747211698 0 0 2
50 1 5.0271019663861205 37.545551153247075 5.293673572752044 -1 1 1
3218 1 1.4556256652579664 9.12708559722943 18.397347948828244 0 0 0
3130 1 4.235946762295409 33.75626538250394 1.3561229539418778 2 0 1
2556 1 1.2407112220689944 41.76000151569403 11.419133002132527 1 -1 1
3341 1 13.431387663591194 31.399319878858325 1.1279450835546052 1 0 0
345 1 17.460372993853717 34.96770554246443 4.691057705001097 0 0 1
267 1 3.1136789931376696 41.6856295848998 24.031171303155773 0 2 0
4527 1 4.037476019701274 39.725718248378854 4.274586026065457 2 -1 1
2117 1 7.464022940680675 36.354644474938155 3.25964916740227 1 0 -1
3270 1 10.234298603824994 39.96229669229052 3.6120878344717378 1 0 -1
1518 1 10.983048266538155 36.75143119411683 1.4269969354050636 -1 1 -1
3369 1 15.935362116191666 39.45785752817751 4.260294720448822 0 0 0
2124 1 0.07285829909716929 2.510229955826144 8.432551899773463 1 0 2
2156 1 8.33693644687377 43.29580832539031 6.243629937575407 1 0 -1
659 1 5.844504643713003 43.20009406719619 1.8195542254829513 -1 0 0
2130 1 12.39055832497123 40.77267627509339 1.3757339595641296 1 -1 1
3920 1 -0.061075569899456394 42.36744086406341 16.49460829917795 0 0 0
110 1 11.705050905922876 0.60202228664717 0.0842463735192806 0 0 0
2426 1 0.6744055008336725 29.233896428568563 25.079408367780246 0 0 0
298 1 6.415799883541056 46.9459414316657 3.5793227893476796 0 0 -1
1460 1 12.386481085294966 43.65840029647424 1.6037710849987867 -1 -1 -1
1671 1 -0.3577542546762577 27.261570764190346 4.457793469919627 1 0 0
319 1 14.023817685013821 18.36138014330708 24.13170722099894 0 0 0
2125 1 0.16895692410816343 43.20041059008365 3.0064638125104075 0 0 0
3455 1 3.90765491977486 47.54160974760494 2.2434699267073834 1 -1 -1
4450 1 0.23956279691034288 25.201859742497444 11.183398046258372 1 0 1
2106 1 3.7189129674456884 9.599659200861781 24.372053512794633 1 0 1
877 1 15.459783780807479 42.952689196780085 2.8098941310757577 0 0 0
4303 1 4.811336079205485 1.7186625489220146 3.5705267906098177 0 0 0
162 1 8.49026036513829 3.252348036713214 2.6439112430500957 0 0 0
2384 1 10.661519262360908 1.452477552123435 2.869646634969624 -1 0 0
1162 1 10.233910360408196 48.092141420525365 5.384795789192545 0 -1 1
2174 1 16.567053513435685 48.296117504198705 4.268806337505484 0 0 0
720 1 0.9023998692998068 29.19328952036838 17.454263041483784 1 -1 -1
3882 1 14.749276509578973 10.737484691979635 0.8792679241569026 1 0 1
3972 1 2.0631342327152935 50.55165815185404 3.673191289448159 1 0 1
4350 1 3.884220437601101 5.601101462197607 8.428429984087014 1 0 1
3826 1 11.733425194863644 3.5153433755991816 3.7058975034614985 1 1 1
1934 1 15.668899338012054 2.779357321540666 7.974307256474049 1 0 1
2080 1 11.768544381898613 50.598898060291404 4.843207143568255 -1 -1 0
4310 1 2.7832308862418245 49.001061730106215 24.95114447117016 1 1 1
712 1 1.0559414982784292 46.338213082324714 15.582368052249201 0 0 -1
3552 1 3.6273739968668757 8.128127474615678 7.826621244905236 0 -1 0
2250 1 7.025583028096124 4.878088391254377 6.651082570567002 0 0 1
2608 1 8.839888764386993 8.918512611015679 5.41645439085235 2 2 0
1238 1 10.392799675579292 7.125907983121322 4.312234117086327 -1 1 1
357 1 15.748442446966894 4.392251861788522 0.383710882158125 0 1 0
3991 1 16.189849857229657 19.90967343993036 24.503846169918372 2 0 0
548 1 5.881581493743684 9.132662363467361 6.25134948739145 0 1 1
2507 1 9.031097279427682 12.215760173209256 8.608473829091839 0 0 0
1903 1 14.996268994007995 11.889541235740916 7.583398023554909 0 0 -1
4015 1 17.332034063862654 10.321239330325614 6.241613484344201 0 -1 1
2231 1 9.274518869022003 21.193422331988824 1.1476481556501614 2 1 0
445 1 4.909330244670304 15.298691747063165 6.583081230409994 0 1 2
4059 1 2.528259970652295 16.45491766043993 5.960691373816652 1 1 1
3106 1 2.9290449557652054 19.046412727649017 6.132184521070059 1 1 0
551 1 10.99871867835032 15.757172127274275 5.756782012547483 -1 0 0
2152 1 15.622562908353462 13.249669681578949 3.333488628538738 1 1 0
1861 1 13.305541003397586 10.643092600665186 10.139192334714718 0 0 0
4524 1 1.0463743947847879 21.07510754635133 1.9255509023815698 0 0 1
994 1 0.8829353556782364 20.40573809424114 7.622111805551377 -1 0 1
4502 1 14.470830594293709 20.74675725824124 4.526628184070484 0 0 0
636 1 9.252003952092013 18.392824543082337 5.821326192616208 -1 0 0
3452 1 16.007208623139345 15.071404572851534 5.271040548449415 1 2 -1
4064 1 15.309079853098693 17.828731753187398 5.367003503660445 1 0 0
1328 1 2.979154502218488 20.434129115910448 3.672311478932521 1 1 -1
4554 1 5.274727209140349 19.74765436520851 2.9591862669034894 1 1 2
1031 1 10.42316182863944 21.543360270200132 6.024981955215257 0 0 1
3917 1 7.0960434842449125 20.04621901803794 5.231657672852524 1 1 1
3744 1 13.196215808944153 21.82900043886965 6.686329737613649 -1 0 0
402 1 16.898952323498712 22.091539617358347 4.9894929887033115 -1 0 0
4144 1 7.827152575138959 49.64975653546158 22.25294869865686 1 0 0
4274 1 11.015456468421464 13.247789297189135 2.604503928188463 1 1 1
527 1 5.9849109780151055 22.809696363046566 8.846455651907911 0 0 0
2215 1 7.478830819001485 24.718799012929882 10.411289229362758 0 0 -1
4243 1 9.288007369974823 24.46973601305335 6.644465836940274 1 -1 2
1298 1 5.426407361302804 23.744156564123873 5.988952551194875 0 1 1
2096 1 12.88079344154847 25.971876597552345 7.057575565046008 1 1 0
3376 1 14.87938150458672 29.444739190598924 8.910120524702837 -1 0 0
3233 1 15.45956897638645 24.240804135536543 3.265574347615833 0 0 1
227 1 17.115225144054122 19.327908432564826 22.044910702753185 0 1 1
2253 1 13.46736210198455 45.935072687454664 0.29527904784644804 0 0 2
232 1 8.420062823496503 28.878605004259548 4.204677678316994 0 0 0
1161 1 4.291743457633245 32.0772120470164 3.9164899168468916 0 1 1
2656 1 11.314823801737905 30.01647854619295 2.258477586869117 -1 0 1
1231 1 13.406186372019071 27.776903021566287 4.124446813407057 1 0 1
917 1 15.675414813077463 26.60389694654242 5.507281364359367 0 1 1
2642 1 11.057253572945081 29.359207339031524 5.114049900053867 0 0 1
282 1 9.227699025024778 34.044267441185355 4.1654193452265895 -1 0 0
966 1 13.395655151670386 33.43700285035071 3.6064017146516396 1 1 0
4476 1 1.7638216316190474 11.105976704263103 6.167766039311095 0 1 0
4323 1 -0.16159080444831087 35.373456810202484 3.4550524511744705 2 0 0
981 1 3.379532550416284 32.34928523147478 6.720589731086701 0 0 0
4131 1 3.601548963979812 35.749608122457744 6.94468688878649 1 -1 0
574 1 4.64968794612886 36.36145396741598 2.410611398873906 0 0 1
363 1 10.587227776925182 36.104558581980015 6.216113341256165 0 0 0
150 1 13.290417070130841 36.476986352776876 3.1251016430052165 0 0 1
1951 1 5.860751656446423 30.297659838120186 1.0655285066778197 1 0 0
1128 1 14.178248189811525 41.32762275393584 17.63556482983954 0 -1 1
920 1 8.270209850909751 39.326950928090355 2.1669354511060717 0 -2 0
2972 1 9.405651049477463 40.586554700371266 6.30693112347374 0 0 1
1571 1 12.24778053958317 38.51759673195674 4.608674413132977 -1 0 1
2340 1 17.338257744111043 39.283749842274716 6.576123826092957 -1 0 0
3983 1 10.955989680908482 17.70248367325008 3.365334487493267 0 0 1
1967 1 6.392208493703852 12.87632547742247 1.5738502508285406 1 1 1
1275 1 3.432639164399189 44.127678015626586 1.209708547162657 0 0 1
3280 1 2.3221034205433315 44.60689354130736 3.4394974059690533 1 -1 0
803 1 13.587938313484878 41.01956325192421 3.9777191763710116 0 0 1
2593 1 14.552570566800732 42.296568624645914 7.5293222803278725 2 -1 0
2710 1 0.25860163777978606 1.2481307058092361 5.084447425686304 1 0 0
382 1 14.07923870867769 24.96670864314061 23.01011061878567 0 0 0
4007 1 -0.15541241073898804 11.71754982550477 19.266686035203307 1 0 0
3622 1 1.875553044412158 41.02515180141697 6.052739546926003 1 -1 0
2191 1 6.357589552450893 43.803152900931096 4.3266276379681505 1 -2 1
2691 1 12.169215141505143 46.71914367631153 6.919670110777438 0 -1 -1
433 1 11.61987969943354 42.99233469647322 5.369002605195564 0 -2 0
2766 1 15.487648819350527 44.748157773352446 22.540826455778532 2 -1 0
2624 1 4.704252003030873 37.89224891615572 0.3529275947080251 1 0 1
151 1 3.6549007093630097 13.582745442721901 18.396498284341693 0 -1 -1
3351 1 4.221370572271264 49.50907774225222 5.8902141157289405 1 0 0
1894 1 8.500904812562123 50.2785691557591 3.3205392749323495 0 0 0
3024 1 9.9923212398528 45.19060920416487 3.467259372772406 -1 -1 1
1608 1 11.868087072031987 47.19672238177537 2.807594695746038 -1 -1 0
2030 1 13.188751992134547 45.40846448030902 4.652567160825009 1 -1 1
4308 1 2.807185525881967 3.214815177401666 11.730035403431472 1 -1 1
1651 1 8.22873449453962 45.355001757247706 23.25127916244048 0 -1 -1
1954 1 6.9601635005540015 1.9449330508103193 7.456562141542236 0 0 1
4045 1 13.988969610038733 2.1875022429768496 5.1847421825642925 1 1 2
3759 1 17.52303925600991 48.44071408566417 7.288556150278653 0 -1 1
1721 1 8.607347869020865 18.337799935500776 24.509140121597827 1 -1 -1
3852 1 5.7383702137432575 15.985640744299179 0.1897649341763065 2 -1 2
2563 1 9.494519518266143 49.88804163189627 8.397595960213467 1 -1 0
1312 1 5.624198697452371 5.650053227448389 10.481773911714122 0 1 0
2366 1 6.867266465146374 3.2677798042394985 11.315847995366818 1 0 2
2891 1 17.073365516342655 0.2842234776124495 6.337135788003565 0 1 2
4041 1 15.254585058351317 4.663752463443257 5.2715498481313885 1 1 1
4177 1 2.0187704407250493 32.30845790994674 20.071887393228074 0 0 1
4467 1 0.6325682651605191 7.235190344960635 11.01531789450812 1 0 1
247 1 10.457061894655263 10.859946477929151 6.614273866134204 -1 1 0
2934 1 2.9646999202747057 8.741914205304273 10.618628246370957 1 1 0
649 1 14.817703575933699 50.74041672270977 8.751174742782924 0 -1 0
4244 1 10.140399148830031 4.752003599827979 5.585394511783735 1 -1 0
2121 1 9.73256118419492 6.641695990849439 9.78201574359146 1 1 0
2779 1 13.011881579282472 6.549942366081769 6.568481071429485 0 1 1
1362 1 3.855938993247695 12.559986998691025 5.030715168601089 0 0 2
2111 1 7.487662734960577 16.309515033933597 7.229220172839233 1 1 1
2948 1 8.870257409665458 14.020402196912064 6.545308271393803 0 0 2
2247 1 11.980135649452821 8.454258751114114 8.071374568202582 0 1 0
545 1 15.561130785858758 9.03045230649045 9.622240898486183 0 0 0
112 1 16.08819069741569 7.096395981452681 7.40428687301221 1 -1 0
1201 1 11.012781994986172 12.9596724944628 10.903376049483134 0 0 1
4553 1 6.200613010784558 18.597880204276578 8.543529697752602 1 1 1
3248 1 6.434802131696015 11.099553821506426 8.104042249382427 0 0 1
3574 1 0.3473575370768177 12.68263608109624 23.49763535113379 0 0 0
3897 1 16.490258028059344 5.349993928700182 9.662920632889271 1 0 -1
2868 1 3.40449145144217 17.462974321413668 8.861039053671474 1 1 0
1597 1 5.237464462548031 20.768037529137338 7.381654356720671 0 0 0
958 1 3.7149314333718575 17.809756924417673 12.113268602646327 0 0 0
2952 1 12.483232398222308 15.697919893696206 7.888701592970489 0 0 1
1223 1 8.789842237068154 18.516440480526217 9.901470718914739 1 -1 1
3699 1 16.80760417681951 16.070131693814737 9.416539678197692 1 1 1
3208 1 15.067361311081225 14.664085112412998 7.629300632719222 0 1 0
1461 1 0.4568887606227714 21.19963948960028 11.28942888174258 -1 1 1
310 1 4.816153636641616 20.333364708703584 10.854301977347513 0 0 -1
4526 1 7.599831548905218 20.68697833577936 10.949210760407192 2 1 0
4104 1 10.807364587340397 19.588018004501087 8.038622077363614 1 0 1
2736 1 13.053650062209844 18.228398944005807 7.458161223357787 0 1 1
1107 1 15.101783509813368 19.138098482376847 9.450187750357472 0 0 0
269 1 8.834142618341964 49.04944165306523 0.9997508733550533 0 -1 0
975 1 2.629829977189797 21.450766366573795 9.146129446961957 0 1 1
758 1 3.339612495288599 24.386285144654913 9.644027302544005 0 1 1
1640 1 9.880735024367862 25.70876285437847 9.037645889731106 1 1 0
1319 1 12.417676030668652 24.902310371164198 9.814314211863255 0 0 0
2128 1 12.2952674207305 21.837358865551387 9.852150632642404 0 0 1
4488 1 15.360082641954836 24.266480648549283 8.403662005525197 1 1 2
1615 1 7.441898861116773 27.06538350979244 6.061501051569924 1 0 1
2485 1 5.310659121435894 26.737156154557102 4.7119377984996795 2 0 1
3910 1 3.4075806912036826 23.339153575645096 3.870816784023295 1 0 2
543 1 9.493601723964092 28.412670836499945 8.042779647029889 1 -1 0
3128 1 16.59111646924523 27.12752665456755 8.652086911376022 1 -1 0
3089 1 8.940734627616756 25.18265067102144 14.685360987663506 -1 1 1
4031 1 16.929166323258425 25.67784893031721 11.482335515912888 0 0 0
4390 1 7.5603909462182175 8.79760153925229 1.6169047267410364 0 0 2
4085 1 5.816183970668323 28.317104878546438 8.034592302913525 1 1 1
3784 1 9.048005128599526 31.410937884430407 1.699525864115035 0 -1 0
312 1 12.305711844181955 28.6580765539287 8.050169079075182 0 0 0
2016 1 10.585497784823074 26.851423670169865 12.934059768512252 2 1 0
3382 1 10.621354112298798 23.59372259010773 16.0600327664373 1 -1 0
3734 1 2.736108427262457 43.23105294260428 16.491725976718875 1 -1 1
6 1 1.3893563404648805 30.705508356880035 8.231941391359504 1 1 1
455 1 0.8186479580377706 18.173693890732547 9.309593517732772 1 -1 0
4500 1 9.148615948503373 31.369953903941028 7.2344540321315645 2 0 2
10 1 14.978592523372555 31.95764441015079 7.812184478320279 0 -1 1
332 1 1.782677061862437 11.026378658114687 12.638778765868294 1 0 0
361 1 -0.18387104995006437 37.595030993988075 6.909040788702509 -1 0 1
593 1 5.551961505096934 34.096409799825494 7.738856877513988 0 0 -1
3388 1 2.6446464591382974 37.33423848731934 9.09760416311099 1 0 1
4184 1 7.653034668695536 36.209829317842406 6.148047625349896 1 0 2
1446 1 14.187004571126355 33.15592328875984 10.216666685873276 -1 -1 1
2344 1 12.072492546721246 32.157213527577795 5.970552979246833 1 0 0
2631 1 17.178265807224435 33.88460830586645 7.420977370934173 1 -2 0
882 1 0.5896162799758943 38.98079058644808 4.635553645547493 1 -1 1
4158 1 3.3978272117212267 39.750983217188164 7.766775868418518 2 0 0
2692 1 1.9582519255675979 37.07242981836825 2.879432257977688 0 -1 0
4498 1 5.823617678633812 41.39924707207983 5.887642010599108 1 0 0
82 1 15.260646217949963 40.63091113380035 10.832594973222117 0 0 0
3858 1 15.100495922881146 39.57808917317735 8.414566755972823 1 -1 0
3843 1 0.9739396485637508 42.4390123918336 19.263619440987977 1 0 1
225 1 0.4456906913684542 45.29977613195567 8.196838136725207 1 -1 -1
2676 1 3.2011178379484613 43.37084888487745 8.253316153007667 0 0 1
2060 1 9.385198612064952 28.163128368266417 24.420648911744692 0 0 0
3576 1 5.232243887289264 41.777199032374384 8.747435605535742 1 0 0
2196 1 17.175374212780298 43.999820742736986 6.916749649036735 1 0 0
1468 1 14.6558355340073 44.840710553320164 11.568723178964284 -1 1 1
4387 1 6.682628271851019 27.75931131447197 0.1215147960298621 1 1 1
2955 1 0.37978304795995743 47.60669203598745 6.612080749773293 1 -1 1
2861 1 7.774545311253723 44.92786281045379 8.700360989579666 0 -2 0
2065 1 16.040532191978997 45.41493158812038 4.501621802219778 0 -1 0
2878 1 4.491449845738996 0.7886085119121717 7.8992807364876905 0 2 1
1455 1 7.380757412760901 1.811224363565971 4.824978897583398 -1 1 1
4453 1 7.349991817699232 47.73919579344093 8.115127279503481 2 0 -1
645 1 6.9723888391959665 48.72929379822412 5.5949030365371355 0 -1 0
731 1 14.373285411940325 48.281318831244505 7.069461185578119 1 -1 1
865 1 14.93112942819701 46.822113915358074 9.44341859873296 -1 -1 1
2842 1 1.6251562809181368 23.031594258893755 17.17715978988259 0 0 1
2049 1 6.042836202195985 49.50870499404023 9.701222138883068 1 0 -1
1981 1 8.215480563890395 1.1688926842700882 9.733452326437163 0 0 1
1590 1 9.765222953747976 48.579237826203425 10.539963898740051 0 0 -1
2515 1 12.975513045269679 2.3757369905347363 10.983191304339508 1 1 0
3306 1 10.209680169596524 50.9297231833824 13.698891757197995 1 -1 1
2696 1 0.07875141061509555 12.494207023999598 14.252363406287724 2 1 0
1824 1 2.6666326212027287 2.6762423461646456 5.48412744725726 0 1 1
463 1 4.787523531733351 7.148351648744178 12.640803952445976 -1 -1 0
3073 1 7.377331453277664 0.4216353252944106 14.184483627485102 1 2 0
1521 1 9.450444785864754 4.201316367031399 11.35652303838836 0 1 1
805 1 -0.3170165774086797 0.9129100137544192 0.19904678601657858 0 1 0
965 1 5.602089810938835 9.60934350583271 13.430583957908775 0 1 0
1515 1 6.868759940064824 9.649848677815182 10.582510931657614 1 0 0
156 1 7.2781032519371935 7.104505910156212 8.645295005118804 0 0 0
3046 1 8.14350833350976 11.969818528892022 11.75993076736121 0 0 1
146 1 10.669414394922601 9.328193468234389 13.362107655576313 0 1 0
2214 1 11.667486262258588 4.8580284856815235 8.145461443811206 0 1 0
2973 1 11.582018716725091 10.63550666028156 0.9448565117565587 1 1 2
3150 1 3.448369627334277 14.984352005168443 10.331459624773588 1 0 0
2388 1 2.4462036850394977 11.49490185844132 9.078663064736823 1 -1 0
1287 1 12.048814128271312 8.313313421675533 11.067375501266824 -1 1 0
3906 1 1.3068039830970584 13.418114052223691 11.07037493224747 1 0 1
4424 1 4.364007429841183 13.034573819959704 8.4280254057334 1 0 0
1366 1 8.229675486512178 10.666568594357248 14.182319980226785 0 1 1
4294 1 11.608597528434483 11.844637191285534 13.402907670528792 1 0 2
4054 1 7.614080194197783 14.517176397390838 12.307063040295251 0 1 2
3585 1 14.325081019157617 10.981728370382953 12.821395822300087 2 1 0
2575 1 -0.3362445791280323 15.381037797379047 12.109263214606923 0 0 1
1484 1 3.507229039439504 21.520731042625748 13.090289274583302 0 1 1
4189 1 5.423179840149822 16.98107007286399 14.622209140415466 0 -2 0
1600 1 9.257938903921593 16.91450334706849 12.107469200520471 0 -1 0
2254 1 8.287455960586838 16.829923027542943 14.765167066075477 1 1 0
138 1 16.49999282871572 15.458349568756537 14.273089757883671 0 -1 0
1585 1 13.568547232038274 16.544171786073825 12.50563107077141 1 1 1
4093 1 1.152326978887867 18.314312566473443 12.632202584501798 1 -1 0
2445 1 0.4365215253270309 16.86115111931569 19.19570365951158 1 1 2
682 1 5.583945609976093 22.02606743662628 14.818953890118154 0 -1 -1
2729 1 10.747442071953849 19.142710471625097 13.547149511580892 1 0 1
2788 1 11.48852188070823 15.641357734682162 10.963334715873895 -1 1 1
371 1 2.9480553952602984 27.453422985214427 8.671515821717652 0 0 0
4094 1 0.41728884088497353 26.11275855468207 25.346117503142928 1 1 0
533 1 6.945358710111817 24.27936362155481 13.13770426674942 0 -1 1
4567 1 12.120782588815896 20.949187597356556 12.334918880443645 0 0 1
534 1 14.505160219360194 19.121568806810043 12.108441046865506 1 0 -1
4102 1 6.412568940346233 27.168696719045574 10.62278393750614 1 -2 0
4156 1 2.7569119747063433 25.116793114911488 14.28522310729451 0 0 1
3628 1 3.9344756325328047 27.280700851631735 12.135647921222104 2 0 0
4305 1 6.383741930437322 27.715837579318624 13.93394966154211 1 0 2
516 1 12.92059664343158 25.580282926632943 12.272312131859751 0 1 -2
2079 1 15.189897704941973 26.033549138084926 13.466664290691376 0 1 1
383 1 2.510008983741041 29.571901823134755 10.57097710979971 1 1 -1
207 1 5.2222884913082215 30.216652005495735 10.348417494609013 0 0 0
3764 1 9.023971661217843 28.48605236432833 11.130526992081043 1 -1 0
4141 1 14.250298581180196 30.380689637238053 11.823884646368555 1 0 1
107 1 14.552837160271203 28.661233796829084 13.931887602443187 0 0 1
1317 1 11.522335531434862 30.154856836731057 10.378870046344291 0 1 2
3980 1 0.7290298223026681 4.2978732458597335 22.29480839016139 1 1 0
4573 1 0.13684060814116739 9.067654236809545 5.864166256317449 1 1 -1
2423 1 1.1871344821861762 34.78467896583204 10.706808124393334 1 0 0
3539 1 10.049788374592417 32.40663821501806 9.172288956506723 1 0 0
2029 1 11.982418237465533 34.11241734537788 8.61994983164672 0 -1 0
2091 1 6.676953645480387 2.7383809246609525 0.5453133489860572 0 2 1
3614 1 1.7724801173685556 50.40507122165715 1.1279842399211 1 -1 1
2839 1 4.050459796237331 35.666983693058 11.344204234653082 0 0 0
1369 1 4.424396133465806 37.764542274164256 12.889292763833113 1 0 0
2325 1 6.614128221573378 34.64928058074574 10.328624211302232 0 -1 1
3603 1 10.882350719731607 37.135879761962016 8.878080883238477 1 1 0
1396 1 12.054130946090941 36.36622190762097 16.221656150288347 0 -1 0
3686 1 0.3319970878922164 26.79113422604198 9.015369315998544 1 0 0
4081 1 16.758390745908397 38.07819696632873 11.63807549826349 0 0 0
1781 1 4.378412163047449 39.78302963059993 10.929112758588326 -1 -1 0
472 1 6.981162965174033 38.85789469885921 7.063430124503887 0 0 0
154 1 11.856046227722295 39.47084718704332 7.541873491297937 1 0 0
2070 1 11.901741982715487 34.53316491343091 12.599724141240058 0 0 -1
1925 1 16.735786564451843 19.694904326949672 15.93819890617528 -1 2 1
1256 1 0.26997565418314284 8.811510183207336 21.887260269574842 -1 -1 1
2337 1 4.101452874030077 44.502708877819245 5.907379531041705 1 -2 -1
410 1 7.145477260216214 39.339169193072564 9.731049308081118 -1 0 0
4223 1 11.178415989495608 41.543912916227654 9.992538562273623 1 0 0
4332 1 12.058475071304478 43.02895530044658 7.7991791645803215 1 0 1
440 1 12.34037024631991 43.26905624175953 11.935486379458402 1 0 1
1082 1 3.293174936396275 47.15148968592301 6.8202163577520825 0 0 0
1950 1 3.0684350049129017 44.00272742165183 10.998976703607045 -1 0 -2
1712 1 5.552019250337162 45.117983460099225 11.45782612573237 0 0 1
2412 1 12.492970088144961 45.41269143944484 9.124602984969894 0 -1 0
4431 1 13.48385539696526 47.411700771230045 12.509491750054023 1 -1 1
3345 1 3.793177418477808 47.72212061133527 9.702115945420738 1 -1 -1
1520 1 1.2703893095932335 46.11982724601562 10.662551123615401 1 0 1
2937 1 5.215651411511952 48.72925577686836 12.795821624533968 1 -1 2
1239 1 12.056576026885205 50.11380646112711 11.440544845766393 0 -1 1
3533 1 12.633665227943979 10.035370235703217 24.83170508775882 1 0 1
23 1 15.155228697646084 49.582015516849566 11.153718686346014 0 -1 0
732 1 15.225534988822096 31.766369499040454 4.561408529720481 0 0 -1
3655 1 0.27004945686381676 1.78776307852355 12.683247915674212 1 1 0
3414 1 5.528519697605525 2.622660090586516 13.454820643121913 2 0 0
325 1 8.275387884210573 48.81885821394303 12.605403836610718 0 -1 0
2648 1 13.663155363415582 49.887758576041335 14.508380490550655 1 -1 0
1783 1 15.998288020141711 6.786640906022625 16.175405187613837 1 0 0
4481 1 6.983869584069441 6.8905695920987124 14.862838678045868 1 1 1
1752 1 4.361051469543843 4.107547807538113 15.910383161000091 1 -1 0
2665 1 7.323522453948704 4.093949443731735 15.58766186416707 0 1 0
2744 1 10.949067075386106 2.9367370496271383 12.84838189644514 1 0 1
4249 1 13.905023608438983 4.9983266842816425 9.915746729628186 0 -1 1
2683 1 3.872955566660158 11.795551558787563 14.189471083462271 1 0 1
3708 1 4.677446609910714 41.18521361270686 20.213801989839688 0 0 -1
3641 1 2.950648618106075 6.239414943952713 14.956936916146324 1 1 0
183 1 10.349033358627137 7.272601813993473 16.46730836873472 0 1 0
3746 1 8.005374698965268 8.317948962506394 16.69933395376062 1 0 1
2678 1 10.379266164798228 4.389057025016181 15.04726962487035 0 1 0
2063 1 13.681706411722711 6.581089076356047 12.192534313061097 -1 1 0
1092 1 17.0135971701484 5.45294192098095 12.818869993079874 -1 0 -1
1598 1 3.322824447291977 30.121086227508027 2.2429131406554546 0 1 0
1397 1 3.7664673449912103 8.248456195547424 16.931327495907535 -1 1 -1
939 1 9.334820625631263 6.482542089227715 13.250670663891105 0 -1 1
1915 1 12.1074355405874 9.452858464606482 15.961483286990081 0 0 1
1288 1 16.083006359264637 7.926316020353546 12.215349570164001 -1 0 1
4100 1 16.678218748405047 10.802510285076282 16.45913977538602 1 -1 1
2115 1 0.6622124943891148 8.730853697461367 15.295441877742995 1 0 0
2778 1 4.753068626024745 14.364657221267123 13.010569870200282 0 0 0
1065 1 4.234115189115642 11.223573897385917 16.939486037021044 1 0 0
89 1 15.020374191283617 9.248066095103432 15.148383491884493 0 0 0
866 1 14.164411200267072 16.36031518397803 15.696137063641627 0 0 1
3149 1 17.640469818395328 29.154535014610648 20.76960572110484 0 0 -1
1753 1 5.583105532441307 19.487291397002156 16.596908126536565 1 1 2
3571 1 6.853130853922563 16.981877447545962 18.116168592923064 0 0 0
2241 1 0.7431390294300613 18.559009577148803 15.855872038870476 0 0 0
2790 1 6.37515192722427 33.90519581867264 25.041072399417384 2 0 0
2828 1 12.070826295045595 18.780110096717053 16.069581798264952 1 0 0
391 1 8.714284218341104 21.599014977220364 13.940049667426893 0 1 1
2307 1 10.603960827309555 17.66528489665621 18.338950715045705 0 0 1
3954 1 15.032075040031454 22.051295203882876 9.7512742590603 1 -1 1
3841 1 14.68408756061855 19.905819690784945 17.889714935862308 0 1 0
1516 1 1.364382777333343 26.711602751036867 15.7692864973688 1 1 1
3012 1 2.232198801683982 23.408737343287626 12.175544151562264 -1 0 2
1401 1 1.5843499635533478 20.939778095030213 15.077137422459845 0 0 -1
1994 1 5.386931697563457 24.76636850392751 15.983855849992477 0 0 0
765 1 12.823729754739576 23.173739975089877 13.769018211307998 0 -1 -1
4334 1 12.968339097134573 38.415285166502 18.134157065537714 1 1 0
2995 1 15.8525726472031 36.958825561236395 3.276367162177353 0 0 1
1755 1 17.53991440397191 36.87578275952755 19.441181244824893 1 1 0
989 1 2.146986417594366 29.116721376696482 14.181081942459963 1 0 0
1406 1 0.4261414984086004 15.579248271568739 4.296495443440539 0 1 1
201 1 15.294306199242856 23.180461899532244 14.505008970805315 -1 0 0
3371 1 0.28737373210502926 32.22668537832929 10.2766322291593 2 0 0
3115 1 6.2584160180640325 31.29207463806002 12.607250907850363 1 0 1
736 1 5.393046515612391 33.918252115735854 13.267179118813752 1 1 1
4513 1 8.304882925022246 29.256963979435813 16.18981454439174 1 -1 0