LAMMPS data file via write_data, version 29 Oct 2020, timestep = 100000

8507 atoms
1 atom types

0.24031014485452573 104.49714181587511 xlo xhi
-0.4364514940028741 50.662663331935946 ylo yhi
-0.4364514940028741 50.662663331935946 zlo zhi

Masses

1 18.015

Atoms # atomic

1 1 1.4222309947468994 0.672331406986806 1.9859794233403107 0 0 0
677 1 3.6152441142319858 1.9379067122550468 0.4372628240525167 0 0 0
8420 1 5.343435191948404 -0.3689501424838191 1.561649175131621 2 -1 2
3 1 8.19892632156987 -0.03315233996213118 1.547035039984342 0 0 0
4 1 14.10225982806818 0.2736123252495406 1.8291034593534503 0 0 0
750 1 20.03980684846301 1.0539183871291722 1.644175443595052 0 0 0
754 1 26.93761635091145 0.5472574117858572 2.029431484943023 0 0 0
755 1 33.354381194482016 0.3879136943766639 1.8125551319928492 0 0 0
735 1 0.37940105945581126 4.882954681268573 0.554606646122442 0 0 0
10 1 4.730970420123229 3.3642918941415556 2.234604809707617 0 0 0
83 1 6.440396642946752 4.9797519366450285 0.538030414884701 0 0 0
11 1 11.07671364849988 3.5214362383728086 1.5970017982520384 0 0 0
697 1 12.547918492914363 5.180814582927419 0.33343273043064914 0 0 0
13 1 17.215039400196446 3.748721464193996 1.467668971323837 0 0 0
760 1 23.602587155446535 3.220856794877534 1.7769683180187523 0 0 0
762 1 29.935127418369643 3.8946317211165056 1.8817085714970103 0 0 0
1142 1 31.908435267175186 5.028855655449874 0.3436933380431747 0 0 0
15 1 1.3851903740084468 6.936436116511016 1.9513841880214264 0 0 0
727 1 3.1968733227303465 8.559367039977735 0.6049457646057737 0 0 0
18 1 7.995617269697416 6.7512707310465245 2.149098956394206 0 0 0
98 1 9.463846044356355 8.633963635820413 0.489681014949476 0 0 0
20 1 14.064829653020626 6.721282504935494 2.124112092032719 0 0 0
765 1 20.13722977978267 6.704472619627808 1.5904784374498484 0 0 0
768 1 26.761264134315642 6.432184822479065 1.9553772462876995 0 0 0
842 1 28.198311327338736 8.153101791284543 0.5376771061841404 0 0 0
769 1 33.37906624629354 6.745001321062906 1.846040565029793 0 0 0
2991 1 0.2867929163095937 11.37965989481483 -0.040633677200265284 1 1 0
25 1 5.122179687042522 9.841641247132461 2.197140708444611 0 0 0
19 1 6.316074582180961 11.110517042431209 0.3819171203238675 0 0 0
27 1 11.304576320602411 9.950492338792092 1.8748888523065297 0 0 0
743 1 13.239915148109775 11.403180918201212 0.6922842638462641 0 0 0
28 1 17.28836493926236 10.066353786586909 1.6463585817228132 0 0 0
774 1 23.74369947025047 9.725380436208697 1.698182547562678 0 0 0
776 1 30.126495144103227 9.60775013136717 1.822233079544087 0 0 0
1122 1 31.495510698188173 11.575640935494468 0.618816721310719 0 0 0
30 1 1.387004479477308 13.376805414551885 1.625695406809402 0 0 0
32 1 7.656010774204066 12.91793437194849 1.9406669185049283 0 0 0
33 1 14.659651852521334 13.664929714195262 1.81727316259766 0 0 0
778 1 20.536527380121345 13.121444384890204 1.4178523718840776 0 0 0
1386 1 22.614247203998893 14.661123371333806 0.3688833640957695 0 0 0
781 1 27.127679857405386 12.66294948251781 1.7379164261983466 0 0 0
1222 1 28.56488829333635 14.516530437001883 0.5681235247396506 0 0 0
782 1 33.51586837600082 12.912493746273459 2.042371488889502 0 0 0
1327 1 34.59167541396437 14.777938426465782 0.5627501980844384 0 0 0
39 1 5.106160667895157 16.132900414014138 1.501672318847751 0 0 0
42 1 10.784072000506647 16.136846917163027 1.9316124662117415 0 0 0
145 1 12.769422437239257 17.637755380961565 0.6007860456439384 0 0 0
44 1 17.611081309230492 15.99123804383483 1.8661471617947591 0 0 0
785 1 23.9867438974392 16.065733233635573 1.9094058838708667 0 0 0
792 1 25.300324621737026 17.68929004373869 0.4752749441652864 0 0 0
788 1 30.081159870682296 15.999061585410075 2.168753396875399 0 0 0
789 1 32.93087462938679 18.715436752007307 1.4709381061172455 0 0 0
8156 1 2.304231175106623 21.11180049134744 2.753608915798428 0 0 2
47 1 1.2674822816366447 19.27411770370272 1.3742908380000807 0 0 0
50 1 7.704949735348086 19.44255560320445 1.4874635182399096 0 0 0
43 1 14.610930827926598 19.546073943286142 2.1034675325827106 0 0 0
80 1 15.808185672754812 21.014084462620936 0.29705874355808604 0 0 0
791 1 20.311101242021902 19.282000514490875 1.7331805488412435 0 0 0
1383 1 22.548817980370217 20.932797565677312 0.4609324802696687 0 0 0
794 1 27.189403389600567 19.43529377589473 1.8697517399811248 0 0 0
812 1 34.71597003351671 20.989348299907917 0.6474540050437361 0 0 0
58 1 4.494841715840526 22.954491455094402 2.040875899940281 0 0 0
38 1 12.666057843085557 23.66098169893271 0.2829653106465051 0 0 0
51 1 11.034090038501265 22.45627102308019 1.9090686472611926 0 0 0
54 1 17.66245024699244 22.51175172991608 1.961371049145717 0 0 0
798 1 24.10687376229793 22.26713331287624 1.83797544099262 0 0 0
766 1 25.342969885977308 24.14333417594282 0.4126879498959223 0 0 0
799 1 30.042340678696423 22.30041853885636 1.666030327446657 0 0 0
56 1 1.4414886863497511 25.892200988316777 1.975328623180654 0 0 0
60 1 7.9364666722381 25.252102029115235 1.610198211259914 0 0 0
61 1 14.189339703039025 25.50740601483754 1.4662645912922545 0 0 0
797 1 20.40700573779558 25.515415273991316 1.7257989124741786 0 0 0
1343 1 22.1987033280642 27.27456879819801 0.5618352620132565 0 0 0
806 1 26.961970045679966 25.564136633378663 1.9863373721805173 0 0 0
1115 1 28.63081764771884 27.086049941599736 0.3678193783813194 0 0 0
801 1 34.93473664360301 26.94396447321223 0.5108637765623227 0 0 0
808 1 33.26377925221242 25.37352796965457 1.9332094392417032 0 0 0
4373 1 0.743056297055476 28.679935315985325 2.1433062497098474 2 3 0
64 1 4.96120168730041 28.410759430206305 1.5685374542687782 0 0 0
66 1 11.062649267492686 28.75277901669016 1.9109213158665912 0 0 0
63 1 12.838951786413121 30.646294130924733 0.46841380010944333 0 0 0
68 1 17.426891732739453 28.927554952429553 1.9811941977163672 0 0 0
805 1 23.955550895830164 28.661867606278786 2.090394054005144 0 0 0
803 1 25.349740590737312 29.933354852459335 0.36976321776272836 0 0 0
807 1 30.108593044938917 28.766864216682837 1.7520058960653992 0 0 0
71 1 1.5966862111111986 31.524864251703832 1.7493060076977964 0 0 0
46 1 3.2444012423902002 33.14636605230152 0.3446407413443191 0 0 0
74 1 8.113511220852708 31.890485526919058 2.025795690735117 0 0 0
733 1 9.692085967499102 33.521120397103125 0.37885669435838343 0 0 0
76 1 14.531778596029016 31.886690956168323 1.928944000943384 0 0 0
810 1 20.311020110621893 32.06141801317395 1.6842682569803955 0 0 0
786 1 21.98770694627575 33.88979668652995 0.5038833375114494 0 0 0
813 1 27.146892004917333 31.81364055133526 1.7847783914870328 0 0 0
815 1 33.1331512550758 31.58031481776746 1.7755071933869626 0 0 0
1385 1 34.76890633929917 33.476163833815036 0.4820365165666227 0 0 0
81 1 4.548696912814725 35.078008405164766 1.9098694804048257 0 0 0
84 1 11.38266375560753 35.06303766841882 1.9804927300852477 0 0 0
217 1 13.141936708519466 36.62441610176479 0.6461499593571469 0 0 0
86 1 17.62645490673856 34.9211154321603 2.238603466975559 0 0 0
70 1 18.992283664544072 36.26219814221895 0.5644656722012815 0 0 0
818 1 23.455058504654634 35.13102537661194 2.033104139177277 0 0 0
817 1 25.326109961381587 36.755482940913886 0.9162451317127867 0 0 0
820 1 30.22726983145102 34.82410433669543 1.7135244980753694 0 0 0
1006 1 31.625644032268482 36.832644314176136 0.7094031133358916 0 0 0
90 1 1.7328096405545037 38.288040162616134 1.787373819664678 0 0 0
93 1 8.061380514979035 38.35545083533807 1.872429036044585 0 0 0
95 1 14.420580114949455 38.21491845058349 1.9705388768899974 0 0 0
104 1 17.891615084052223 40.97411177823985 1.3746619994158213 0 0 0
823 1 20.366703211177942 38.35490906399961 2.060729254405022 0 0 0
908 1 22.311504723235696 39.6358789115054 0.5335226240024283 0 0 0
752 1 28.62491625933406 39.586757804833915 0.676835046830983 0 0 0
825 1 27.392878853446316 38.348066093819995 2.3087996709157936 0 0 0
827 1 33.601269981426995 38.22697454959386 2.3071628555648016 0 0 0
101 1 5.083835304087347 41.49766461439975 1.9378418496215826 0 0 0
102 1 11.210198937714319 41.517616332692015 1.968329007706119 0 0 0
335 1 12.89998691896334 42.6775087595727 0.5039545771995503 0 0 0
829 1 23.865052891282303 41.5602094679986 1.8090986050886295 0 0 0
933 1 25.47444899545511 42.85432833009252 0.674610871368206 0 0 0
831 1 30.4320757867148 41.390510224402014 2.0465584724143633 0 0 0
795 1 31.607074310689498 43.22897927829846 0.34416979546064264 0 0 0
105 1 1.516423060464583 44.65951913921306 1.9138651828295883 0 0 0
89 1 2.9586021661919846 46.2293217685944 0.29043303115841834 0 0 0
108 1 7.9845263134770725 44.54086822162143 1.7337926911848296 0 0 0
110 1 14.416529153716212 44.470217430981855 2.0852198065465664 0 0 0
681 1 15.85058444425244 46.024474280249535 0.43153784888607516 0 0 0
836 1 20.808447664075178 44.81492413030249 1.6948032479675645 0 0 0
1384 1 22.308194954022113 46.1755299049585 0.3046605566676872 0 0 0
838 1 26.457457865001007 44.81026638638179 2.1501446008165535 0 0 0
1170 1 28.265904789898965 46.31362810112199 0.609558545923899 0 0 0
847 1 34.90318287683714 46.03528587880908 0.5350881258279442 0 0 0
840 1 33.35625734785618 44.456930828823104 2.4839279702905848 0 0 0
112 1 4.519468723764282 47.87603310121848 1.7866276846715516 0 0 0
114 1 11.310818469302992 47.65101298106899 1.6407790251867738 0 0 0
117 1 17.19882590155528 47.86956272439958 1.713032505283254 0 0 0
1382 1 24.94895728223851 50.09482512402979 0.3312458880904031 0 -1 0
844 1 23.329599708025373 47.88799617235571 1.970723758811788 0 0 0
846 1 30.133868784593954 47.65343953732638 1.816331540597338 0 0 0
1250 1 31.732375239934633 49.07681973676303 0.29569081621313575 0 -1 0
4655 1 1.2635898641540873 -0.32166639409711234 5.434684342591675 1 -1 1
120 1 5.17066796199887 0.5531461926232001 4.906924779271963 0 0 0
9 1 6.9045842535391415 2.0384768210876523 3.523433259225928 0 0 0
122 1 11.188053994782422 0.6386219539731113 5.1543704361204945 0 0 0
5 1 12.471853920315683 1.8720723168263804 3.4518446319390153 0 0 0
124 1 17.051803837759756 0.532009057790986 4.92376636519263 0 0 0
426 1 18.643124435315293 2.2139309719691735 3.3644667465269866 0 0 0
850 1 23.332177570117945 0.4808312491869765 4.8564388539932555 0 0 0
753 1 25.163359508109487 2.1362514807923825 3.788977191281762 0 0 0
851 1 30.398210804892436 0.5059989482502254 4.894173120999968 0 0 0
756 1 31.6127148069767 2.176798500884765 3.350335167139527 0 0 0
125 1 1.6165557963766266 3.310561525394996 4.839535895780036 0 0 0
6 1 2.81411619328152 5.356603898383888 3.545712332180876 0 0 0
128 1 7.903717048747185 3.915335981361773 5.166205071800278 0 0 0
12 1 9.91342110643399 5.174235176598214 3.4627038876417755 0 0 0
129 1 13.906397142700683 3.6227422235792632 4.632153996806893 0 0 0
14 1 15.798385030460286 5.368995765343514 3.315156131120504 0 0 0
854 1 20.162322495415193 4.1422281790796625 4.757370541719654 0 0 0
759 1 22.106746033653437 5.236306594813947 3.1172746879559896 0 0 0
856 1 26.793291086704542 3.6223562950534394 5.4137568608976085 0 0 0
763 1 28.271702724018652 5.191641374044315 3.7092476554743117 0 0 0
857 1 33.527803713141836 3.6596629616152807 4.83319384079977 0 0 0
135 1 4.620615584987944 6.401339474524416 5.301529112411557 0 0 0
17 1 6.426925504959355 7.924057746093686 3.855830604248929 0 0 0
137 1 11.072731765752284 6.566462720019406 5.058429094594134 0 0 0
21 1 12.679296248781917 8.205553032089327 3.490272772255145 0 0 0
139 1 17.076704718101457 6.924617488991969 4.674848282315433 0 0 0
265 1 18.996551373166913 8.336750444534244 3.141184358809926 0 0 0
860 1 23.64048591081227 6.7416429966906115 4.866278436427609 0 0 0
767 1 25.338049639485465 8.232475476171615 3.1555506674807257 0 0 0
861 1 29.93663577689898 6.95495498769898 5.002387352004489 0 0 0
770 1 31.90279021091185 8.104747044658655 3.3340548292253844 0 0 0
23 1 2.9008968922979554 11.408769388144355 2.9528044869659604 0 0 0
140 1 1.8640973959904132 10.132977289104925 5.367898156341724 0 0 0
142 1 7.9195995154842365 9.844271984585752 5.239431880202362 0 0 0
26 1 9.278028810254197 11.324126126898667 3.377827650070937 0 0 0
143 1 14.039033586514496 10.14564477881479 5.300914505242258 0 0 0
29 1 15.724329792791863 11.55682406340091 3.7583586491796916 0 0 0
863 1 20.281269647575748 9.887909702488107 4.78463804661741 0 0 0
773 1 21.987335599861822 11.432410592763139 3.2726304750302284 0 0 0
865 1 26.891330191634264 9.590378483132463 4.735186599919037 0 0 0
775 1 28.629240829793748 11.08919952125328 3.1455789299094197 0 0 0
866 1 33.251236778896256 9.752298420386193 5.270537861656127 0 0 0
777 1 34.830499278397035 11.347761093607073 3.78960336145834 0 0 0
147 1 4.482811470233226 13.133043647133354 4.781964899016456 0 0 0
31 1 6.240419799424413 14.512512855404967 3.560768441023733 0 0 0
149 1 10.631606395155483 13.507442046758054 4.5697771067476 0 0 0
34 1 12.812094060855234 14.79420943621729 3.8284331930179736 0 0 0
150 1 17.54426732378418 13.602890265563737 4.889128005264247 0 0 0
1273 1 19.4427159135839 14.611266839299319 3.2659740860626982 0 0 0
869 1 23.7750682331915 13.119815015915274 4.625740315417731 0 0 0
779 1 25.584775290866858 14.506311266458434 3.308676319806312 0 0 0
871 1 30.28160317176563 12.865299261452195 4.660260171790499 0 0 0
783 1 31.97780027717413 14.573465809539796 3.567537970966778 0 0 0
152 1 1.5373580822837163 16.544781808035015 4.880407332317613 0 0 0
37 1 3.3906924914277443 17.830857350397558 3.2752502253867357 0 0 0
154 1 7.6928745459703896 16.035340871447946 5.054712939066994 0 0 0
41 1 8.9365833009047 17.70179677478089 3.3578881293899423 0 0 0
155 1 14.302487245510594 16.529489891741317 5.393026926410091 0 0 0
45 1 15.9554035713564 17.51991971975702 3.4619281439153364 0 0 0
873 1 20.702051216130297 16.255189381897406 5.033036632830491 0 0 0
784 1 22.401061647335723 18.065445449241267 3.737006179119379 0 0 0
875 1 26.914394237280856 15.89803207512032 4.65563133090682 0 0 0
787 1 28.559455850230638 17.622465162236672 3.3309939248403446 0 0 0
876 1 33.267899705483266 16.36301791377914 4.96349700400931 0 0 0
790 1 34.64950114330049 17.794982922064612 3.539442073679001 0 0 0
161 1 4.825905430681242 19.414034754934175 4.967073986901279 0 0 0
49 1 6.077850304363212 20.981977844181454 3.2492851962853204 0 0 0
162 1 10.694688271858142 19.218683117767704 5.058005330062882 0 0 0
53 1 12.389553144816103 20.655332002838918 3.4757102678148826 0 0 0
157 1 17.32521767581223 19.370044030147337 4.788434162087278 0 0 0
1035 1 19.11612878692405 20.945730273270065 3.4261474410244213 0 0 0
879 1 23.95916469915617 19.70900093143459 4.99447250446375 0 0 0
793 1 25.354722473584467 20.904141873870984 3.2980054148717337 0 0 0
880 1 29.9450219820915 19.237258770432543 5.001351097772269 0 0 0
796 1 31.39078445316659 20.68480865974653 3.373976490096896 0 0 0
160 1 1.6295093620241015 22.35014236540416 4.8933523767110305 0 0 0
55 1 3.0189725912668193 24.407068200265826 3.315323110578143 0 0 0
168 1 7.521313503907178 22.613896839538093 4.653391888419601 0 0 0
59 1 9.729190512248053 23.953548134334387 3.7528977336900287 0 0 0
164 1 14.157928490509493 22.20833100249578 4.809562544669953 0 0 0
62 1 15.87649023177089 23.969006011045636 3.183561660036119 0 0 0
885 1 20.48233537556249 22.50676303836108 5.190143054323512 0 0 0
884 1 22.04685814467115 23.83525849481573 3.2669001066410517 0 0 0
889 1 26.86125939142276 22.64071235323854 5.203007661563007 0 0 0
800 1 28.539045456617316 24.157438886818998 3.5160357675236713 0 0 0
882 1 33.10041276276285 22.065882665601503 5.178119962708143 0 0 0
802 1 34.67937367188683 23.62778700122811 3.4433172011002133 0 0 0
167 1 4.953152746596084 25.698422288477445 4.451237734304492 0 0 0
65 1 6.819540430049885 26.912154919842255 3.0919246112551337 0 0 0
169 1 11.10230128465077 25.68047241730361 5.193748833689807 0 0 0
67 1 12.6887788173169 27.101537656735495 3.465818696046968 0 0 0
171 1 17.892945829225166 25.59732396255037 5.0457408500687615 0 0 0
667 1 19.034545975203542 27.168591154348587 3.1293446678032137 0 0 0
888 1 23.522629132291264 25.483864919011125 4.8508359256991955 0 0 0
804 1 25.34111031763463 26.99127907017536 3.3679686724218962 0 0 0
893 1 30.38695463479024 25.706631106893735 5.038838345636188 0 0 0
809 1 31.563352908359125 26.99682853172187 3.1063690442181446 0 0 0
173 1 1.3383813605286958 29.245389029818487 4.756041319874732 0 0 0
72 1 3.8812428047372194 29.96297714733105 3.6365440811283856 0 0 0
175 1 8.048873388577501 28.694368802296236 4.580129362597151 0 0 0
75 1 9.829246742442697 30.33205016049851 3.7306662651485194 0 0 0
176 1 14.478359915821903 28.73999223541397 4.988399682468064 0 0 0
78 1 16.15636076718967 30.27831015754526 3.558698780751609 0 0 0
182 1 17.939343865996133 31.31701554702985 5.394603374660618 0 0 0
892 1 20.824591560163196 28.55359317029631 4.779236567162622 0 0 0
811 1 21.935182626501653 30.24879136905142 3.3971242625417624 0 0 0
894 1 26.765576133764345 28.682149610795673 4.8873524332773135 0 0 0
814 1 28.46112830534196 30.316381735451333 3.496417170716679 0 0 0
896 1 32.81204376832296 28.3596727356704 4.870444021616988 0 0 0
816 1 34.86220820220725 29.985507600846685 3.7731972754663774 0 0 0
184 1 1.6901632060206693 34.55935489372248 4.800187812529098 0 0 0
8342 1 0.24604451784773226 32.161194807061165 3.9857600685103316 1 0 1
179 1 5.465572791281491 31.85232762344038 5.210601021834757 0 0 0
82 1 6.684860839643248 33.584305272516474 3.4399090499325067 0 0 0
180 1 11.595366034874884 32.04219659597981 5.379536642274282 0 0 0
85 1 12.97345136971501 33.696297467284175 3.728124315914097 0 0 0
216 1 18.99687442837703 32.99203659670313 3.7381824888495654 0 0 0
899 1 23.808590743461785 31.893587362082663 4.890528505240264 0 0 0
819 1 25.53897232035036 33.264920400866615 3.052542530010882 0 0 0
900 1 30.02168586042768 31.830002876049882 4.953665864776842 0 0 0
821 1 31.97421919500154 33.365250994317925 3.5955252788452894 0 0 0
91 1 3.1875176990501233 36.462762942310135 3.448183874770057 0 0 0
186 1 8.371012497193483 35.06456928540127 4.973039208142536 0 0 0
94 1 9.614819619806969 36.76665295580953 3.1593665701682596 0 0 0
188 1 14.535366579456701 35.147727488265545 5.389756352441426 0 0 0
96 1 15.945598764443403 36.74795138694965 4.1450653103112725 0 0 0
902 1 20.627698531015696 34.6943634788968 5.171593140217955 0 0 0
824 1 22.146807187879467 36.59646251034239 3.573105426528813 0 0 0
904 1 26.988683722016194 34.90940409423796 5.0185717918373465 0 0 0
826 1 28.846133492946727 36.38127047455488 3.4854928271039185 0 0 0
906 1 33.27054192679015 34.850954003518616 5.263865478921824 0 0 0
828 1 34.914059798696414 36.36724427606174 3.883709148241736 0 0 0
579 1 0.2903411261848139 39.49568765728327 3.7703172916956014 0 0 0
190 1 4.800651340016171 37.91230964546209 4.863264797266601 0 0 0
100 1 6.270921563322683 39.50071637289903 3.454763520898725 0 0 0
192 1 11.360988957405507 38.187038885617405 5.132973311161061 0 0 0
103 1 12.721118109090138 39.87714301107705 3.4631711068702216 0 0 0
741 1 18.890584567142508 39.74743415487153 3.686870655678491 0 0 0
194 1 17.097048139078975 38.5295727314717 5.48996403177441 0 0 0
909 1 24.102000579823148 38.371794150064936 4.786028965951446 0 0 0
830 1 25.796592751972877 40.042360742703835 3.5170574972802995 0 0 0
911 1 30.473243060931118 38.176057866909886 4.8997282481373645 0 0 0
832 1 31.993293059453194 40.159390504067716 3.4418684418101226 0 0 0
197 1 1.8374485624717953 41.17211061068537 5.461869234241563 0 0 0
106 1 3.21789503080422 43.19306367525206 3.5449088866821654 0 0 0
4255 1 0.26829002572613647 43.76645968905945 5.357167491161413 2 -1 0
198 1 7.882088318063475 41.21698056678063 4.811387552153054 0 0 0
109 1 9.346449322338414 42.94488997085887 3.358334537001629 0 0 0
200 1 14.076803567288461 41.4234443933322 4.905222353994136 0 0 0
111 1 16.053608833487488 42.42460921184149 3.0537468021521033 0 0 0
207 1 17.48359625418264 43.90680863418877 5.000016081550822 0 0 0
915 1 20.398245583739914 41.48768293359914 5.1264289842959 0 0 0
835 1 22.162145111962293 43.29741447307365 3.506398881544649 0 0 0
916 1 27.04381317162069 41.67307115107646 5.298105100787058 0 0 0
839 1 28.406048381939144 43.276143142153174 3.296134314734082 0 0 0
918 1 33.3279485665136 41.526892361010844 5.500556064108621 0 0 0
57 1 0.24405429170742896 46.0145610134266 3.5143637114314292 0 0 0
204 1 5.209101733936049 44.27727263560045 4.5993821001991 0 0 0
107 1 6.673322420197331 46.17904425064857 3.199034590919239 0 0 0
212 1 7.829547608821203 47.45300000866012 5.186615200044381 0 0 0
205 1 11.25157570444577 44.6507122802166 4.922300311561972 0 0 0
115 1 12.87399672363564 46.252130593305495 3.2064255058688618 0 0 0
749 1 18.83118908037189 46.347324727908806 3.2787686265427873 0 0 0
921 1 23.587163722831654 44.80741756047278 5.091043474601562 0 0 0
837 1 24.947454748198425 46.57804353877939 3.4051049768672494 0 0 0
841 1 31.245759895956557 45.98950549298491 3.9093720518014097 0 0 0
922 1 29.503409404906975 44.65598196971942 5.296049712274635 0 0 0
930 1 33.50520875761649 47.244501433852044 4.957878475965684 0 0 0
2 1 3.36493153053756 50.298330298858154 3.613199968769262 0 -1 0
210 1 1.6385033279535743 47.83471449750084 4.750751704445213 0 0 0
113 1 9.77015189984257 49.07068189217194 3.5151149258991583 0 -1 0
116 1 15.590273117601686 50.25357412521309 3.4495260456187293 0 -1 0
214 1 14.615833737008007 47.71678605755272 5.206503948721515 0 0 0
751 1 21.625690885113517 50.495352751140096 3.1409456483052884 0 -1 0
925 1 20.37295416178092 48.24108758454181 5.038280055212952 0 0 0
845 1 28.63536319762145 49.9755103864009 3.290833417448344 0 -1 0
927 1 26.732885033830406 48.02497549851877 5.0346932344818995 0 0 0
931 1 34.881287900744574 50.06852388102408 3.5506271095606845 0 -1 0
218 1 1.9127298842989269 0.188063363736225 8.234118987439166 0 0 0
119 1 3.4826600085028336 1.9885996666115977 6.397049199562516 0 0 0
221 1 8.46908023897452 0.5121763387377695 8.374136202728588 0 0 0
127 1 9.406526138144793 2.112597380473305 6.450555194651595 0 0 0
222 1 14.043918649411077 0.42704211612391474 7.8934352142838 0 0 0
131 1 15.31730695483692 2.1867966997179193 6.416880184659781 0 0 0
849 1 21.46645106614813 2.1395375278309867 6.0623939764434915 0 0 0
934 1 20.655522687353987 0.6945782966678307 8.106846150950592 0 0 0
936 1 26.851126829348832 0.6209163894606804 8.215777399928006 0 0 0
852 1 28.581935633775238 2.056877280288923 6.73495316856724 0 0 0
937 1 33.0757730334534 0.4906213651610346 8.351898649591972 0 0 0
853 1 34.868839704545174 2.2678884981185488 6.875850775937516 0 0 0
195 1 0.5457426775229067 4.894080842949303 6.351879707933802 0 0 0
226 1 4.64443385111767 3.246991116346442 8.491451325315355 0 0 0
126 1 6.192683139598554 5.029583792787768 6.760882527475999 0 0 0
229 1 10.72373636128773 3.8520818933256153 8.047166621273858 0 0 0
130 1 12.418700154072688 5.071520417577765 6.511680470689328 0 0 0
230 1 17.47761308682168 3.7275373539606065 7.665731652949384 0 0 0
670 1 18.6761450877228 5.633708147224611 6.185693993424864 0 0 0
941 1 23.141570753540705 3.8786444901927437 7.94361377028882 0 0 0
855 1 24.9006655825986 5.279994987386427 6.804082163885529 0 0 0
942 1 30.30829495896082 3.821548395936115 8.16260710717677 0 0 0
858 1 31.71500473542438 5.35586812568024 6.480859181634336 0 0 0
232 1 1.790174595788767 6.702867952647897 8.193400547525693 0 0 0
134 1 3.3378611519266683 8.285376815164037 6.940829971476157 0 0 0
235 1 7.664565958759716 6.647028952770392 7.72478647970164 0 0 0
136 1 9.472307490494146 8.300883145089031 6.73409455494457 0 0 0
236 1 14.061758097822208 6.814863566888856 7.628034019336541 0 0 0
138 1 15.836531491000416 8.513593980400923 6.480720591622717 0 0 0
859 1 22.11159217591573 8.46405351780591 6.135199040824128 0 0 0
944 1 20.208883396266263 7.288254309359552 7.687052993353955 0 0 0
946 1 26.954624149722214 6.725044463957659 7.989230462706992 0 0 0
862 1 28.400117184627817 8.39840096265465 6.434400901112792 0 0 0
947 1 33.40972901377955 6.35683163706933 8.08180744390063 0 0 0
240 1 4.986642609810951 9.510317586305183 8.449518730178982 0 0 0
141 1 6.208078182726349 11.36965402826534 6.519520238452548 0 0 0
242 1 11.03914240237736 10.39065228954501 7.9954438253605 0 0 0
144 1 12.173356735134085 11.915833191732395 6.299128204804769 0 0 0
245 1 17.031306245278202 10.163456133639967 7.995583357021792 0 0 0
746 1 18.897124622847684 11.645757752307263 6.524089957796416 0 0 0
864 1 24.76523466132991 11.229834762378646 6.136728387001452 0 0 0
950 1 23.3573838335623 9.70422863426854 7.927686797001799 0 0 0
952 1 29.894223699895992 9.835140201407011 8.146373641879531 0 0 0
867 1 31.63447252671027 11.522655248425568 6.495718765104722 0 0 0
246 1 1.686841429973091 12.754689770193682 7.918186150665875 0 0 0
146 1 2.618342015458511 14.50173859599658 6.156807783440403 0 0 0
248 1 7.738605093109284 12.84002197791788 8.052103231246937 0 0 0
148 1 9.51585249149035 14.721236518178191 6.504087304068109 0 0 0
249 1 14.368486716865307 13.153507094335058 8.26258068429413 0 0 0
151 1 15.876287657909543 14.843188127491983 6.64599430259425 0 0 0
956 1 20.742361141851205 13.054577064310829 7.778050936364302 0 0 0
868 1 22.448422592465747 14.67520427402493 6.253778950802424 0 0 0
870 1 28.30971412519206 14.145557026589783 6.074287393098264 0 0 0
958 1 26.580680442385646 12.845922367497437 7.742725361901938 0 0 0
959 1 33.31443969074666 13.166122547414517 8.076620633814912 0 0 0
872 1 34.788834164800086 14.521517917985706 6.28246372508053 0 0 0
3073 1 0.30912309984183306 16.58859937407552 7.634031456110156 2 0 2
253 1 4.8934148150559755 16.07658384753945 8.365348045906742 0 0 0
153 1 6.40141328096432 17.645750070931392 6.699634243178081 0 0 0
255 1 10.727085999536245 16.338816034833737 8.242490666071962 0 0 0
156 1 12.391490944984728 17.881973223825334 6.739346584152656 0 0 0
256 1 17.513346108882033 16.532200314935167 7.9393429341819015 0 0 0
1299 1 19.241830860527667 18.264224527260318 6.610270616309027 0 0 0
963 1 23.778949071952383 16.43802524503249 8.163037689632812 0 0 0
874 1 25.745629836764703 17.797174935639443 6.413332854295803 0 0 0
965 1 30.17517843034073 16.033240935079636 8.003291810794646 0 0 0
877 1 31.600150608366913 17.575921860461047 6.501691339086642 0 0 0
258 1 1.5877496132512066 19.143592687873735 7.967205246610877 0 0 0
159 1 3.171542943733916 20.795721595175323 6.730902751596072 0 0 0
7902 1 0.5927906872948503 21.1561167207233 9.076679131838361 0 0 -1
260 1 7.921118809169607 19.193372282705337 8.245033894669525 0 0 0
163 1 9.067199533863553 21.352046559149354 6.584008219542824 0 0 0
262 1 14.291783232029038 19.223391148508306 8.375648143487744 0 0 0
165 1 15.648071983256585 20.747615356395634 6.739659692988634 0 0 0
966 1 21.037698210035618 19.605591590173763 8.313188441911016 0 0 0
878 1 22.278335160590824 21.187769566768292 6.507927773472147 0 0 0
969 1 27.016459483810635 19.607713999341115 8.535988721971393 0 0 0
881 1 28.52010251336135 20.91951017061086 6.626141199155855 0 0 0
971 1 32.91129573318726 19.150620105862206 8.148458997766475 0 0 0
883 1 34.744178428702874 20.867104589540705 6.773658614833632 0 0 0
3551 1 0.33351145131680937 22.70312726756371 6.850051363370568 1 0 3
270 1 4.695045678471214 22.397790068264673 8.464624016778421 0 0 0
166 1 6.4115329762573925 24.125392183396524 6.408427217272255 0 0 0
261 1 10.94066014873018 22.654735281467836 8.152811622531287 0 0 0
170 1 12.727838278323942 24.073562382008333 6.463335961555321 0 0 0
266 1 17.193606255992382 22.465513708977287 8.260642043709174 0 0 0
834 1 19.137725926915742 23.928578810696777 7.06119961220877 0 0 0
968 1 23.746202921144572 22.637837762284576 8.36951741875614 0 0 0
887 1 25.037112700266164 24.48814892399899 6.733234507005934 0 0 0
970 1 30.02566129757459 22.634543071376534 7.951344491898766 0 0 0
890 1 31.808781968698636 24.24585382318091 6.8920730385182845 0 0 0
172 1 3.152486302068091 27.277091696274308 6.104967924420247 0 0 0
269 1 1.6180268904610553 25.48118379132427 7.7634451159595255 0 0 0
4314 1 0.6665282921263999 27.803027999988455 9.057794585956897 1 0 0
273 1 8.145103768730783 25.595247464154763 8.257292807555066 0 0 0
174 1 9.462102988306807 27.26705471967241 6.603044058295759 0 0 0
274 1 14.431364718293176 25.457048877818938 7.843354377461752 0 0 0
177 1 16.251740359368647 27.17427647004377 6.21194327473039 0 0 0
974 1 21.040474939896335 25.55658508984156 8.454391199498328 0 0 0
891 1 22.545531505113434 27.15389050315139 6.623492331318969 0 0 0
977 1 26.813401297981887 26.088714512721182 8.375164669666786 0 0 0
895 1 28.465585156600305 27.117760002780294 6.5978778116122765 0 0 0
979 1 33.298780616829646 25.93356229807028 8.44955833875299 0 0 0
897 1 34.85477252194572 26.966729491779457 6.487065588985785 0 0 0
277 1 4.598830565666446 28.48871645858286 8.04783796284581 0 0 0
178 1 6.746842080915893 30.103940310055513 6.4686420033468774 0 0 0
285 1 8.29399379164013 31.378385080918996 8.087142722492024 0 0 0
278 1 11.31906753827436 28.443450986859197 7.980399694775057 0 0 0
181 1 12.81365465680095 30.026429968656036 6.269714971297489 0 0 0
287 1 14.31500579802869 31.482449001113242 7.91981150135762 0 0 0
280 1 17.50407142118404 28.37813461106478 8.48806303900326 0 0 0
961 1 19.59627923296334 29.467442564295258 6.748906183592592 0 0 0
982 1 24.041529388678217 29.35578544685923 8.042913620654893 0 0 0
898 1 25.51202894443731 30.470277367263712 6.330948356080088 0 0 0
983 1 30.44080451816549 28.46933169741123 8.105470274764356 0 0 0
901 1 31.760725911666558 30.157241588144547 6.389314154949464 0 0 0
8051 1 0.28959131380685055 34.56084365994959 8.66928063647867 1 3 2
283 1 1.6978525612938034 31.978694180686922 8.385867472642019 0 0 0
185 1 3.6357029758405193 33.55318271350845 6.6221164524119684 0 0 0
187 1 9.748461812147617 33.35048216096597 6.76715678082799 0 0 0
189 1 16.006909825730283 33.26108147765416 6.764744453944199 0 0 0
986 1 20.60998333798474 31.6065640935757 8.098267706303124 0 0 0
903 1 22.201313248726667 33.160025516330535 6.624807708408439 0 0 0
987 1 27.20395602825385 31.78935498052983 8.053942258457548 0 0 0
905 1 28.890469089193775 33.24125380774247 6.936437207984805 0 0 0