LAMMPS data file via write_data, version 29 Oct 2020, timestep = 0

9216 atoms
1 atom types

0.3830108411599369 104.35444111956753 xlo xhi
-0.36650999329263506 50.59272183122661 ylo yhi
-0.36650999329263506 50.59272183122661 zlo zhi

Masses

1 18.015

Atoms # atomic

5 1 1.6015773570618816 2.168083061579103 2.043833814644538 0 0 0
3 1 3.5389597815165716 0.698999758587374 3.666599870115227 0 0 0
13 1 8.35972158989366 1.4645305649911171 1.606091034447701 0 0 0
21 1 14.246894816276033 1.7704554668871293 1.887387296074883 0 0 0
18 1 12.620952118359783 3.3645397000569526 3.505686240912965 0 0 0
27 1 2.989652292348901 6.839532432695965 3.5992969798419927 0 0 0
458 1 0.7541169586374374 22.193207251847618 15.845092565723524 0 0 0
506 1 0.8828885349944107 34.61839314370987 15.87505548891406 0 0 0
10 1 7.068922762365904 3.530488674675222 3.5770788954891404 0 0 0
8 1 4.901259161707952 4.852674350383511 2.2917785930326824 0 0 0
16 1 11.229631020501373 5.009388514510395 1.6559210095217636 0 0 0
35 1 10.069522972979133 6.657662942340529 3.516515769578812 0 0 0
24 1 17.351153204607137 5.236051550697496 1.5269422291182937 0 0 0
43 1 15.938376903324444 6.851890377119749 3.3693719226576153 0 0 0
29 1 1.5646381344242901 8.415039885645397 2.00933328322329 0 0 0
762 1 12.800551482284243 47.3788697355149 22.315507581378526 0 0 0
34 1 6.592571596894543 9.399957916970482 3.908566308149572 0 0 0
37 1 8.156969093266515 8.230381387432583 2.2065068106116037 0 0 0
57 1 6.482024126726847 12.577694332455858 0.44416260627134685 0 0 0
45 1 14.209567105727428 8.200475253606395 2.1815883473877173 0 0 0
42 1 12.827826576802577 9.680682614167834 3.54400918481606 0 0 0
650 1 0.3886004059166853 22.2752675682928 22.502235766238847 0 0 0
51 1 3.0761954306036605 12.875130217190273 3.0080122102758238 0 0 0
530 1 0.5912196994965392 40.84480956139435 16.30583346766089 0 0 0
32 1 5.291397499578265 11.312292064150206 2.2544170491419 0 0 0
59 1 9.43587005294593 12.790718665505114 3.431871879337392 0 0 0
40 1 11.456869922220228 11.420845177704786 1.9330473522543954 0 0 0
48 1 17.42427801619532 11.5363894566577 1.705142679594922 0 0 0
67 1 15.864524390673182 13.022779595164788 3.811361180982734 0 0 0
53 1 1.5664472738088588 14.837778776765806 1.6845360697890812 0 0 0
58 1 6.40657644771591 15.97037723684467 3.6143118728300383 0 0 0
61 1 7.818292265068424 14.380163886229173 1.9986453520590752 0 0 0
69 1 14.802760989065566 15.125114340793 1.8755893845653613 0 0 0
66 1 12.960260857010404 16.251302677817876 3.881243896889237 0 0 0
722 1 0.4145687320936764 41.15306532935289 22.419968755208053 0 0 0
766 1 14.287175171121559 49.59650195846471 23.59482748471862 0 0 0
75 1 3.5646502221925616 19.279637817385165 3.3295752586962353 0 0 0
113 1 12.814624411028076 25.09380229469125 0.3454816755757193 0 0 0
56 1 5.275422332237324 17.58632901068706 1.560852493027499 0 0 0
409 1 0.6025589713509589 6.2565536409119575 13.049074630843181 0 0 0
83 1 9.095359245162921 19.150930543009 3.4119869427723617 0 0 0
64 1 10.937790474292346 17.590264710347526 1.9896156861830576 0 0 0
93 1 14.75417333748881 20.990159032556292 2.1610003020856476 0 0 0
72 1 17.746110955311597 17.445054438958547 1.9243295919793413 0 0 0
91 1 16.09496560850153 18.969551373484784 3.5157421494382612 0 0 0
124 1 3.4187594430861483 34.55322056161249 0.4069882707771744 0 0 0
77 1 1.4472522660539935 20.71894726878615 1.433819716926073 0 0 0
577 1 0.46808349556748396 0.36646079128042935 19.307253270322626 0 0 0
82 1 6.2444519840210795 22.422132169716658 3.3036813084427545 0 0 0
85 1 7.867097256596459 20.886924072259863 1.5466825887817108 0 0 0
88 1 11.18712409194706 23.89238949485226 1.9671335805727115 0 0 0
625 1 0.5365973477953787 12.401706545349459 18.86323835060972 0 0 0
90 1 12.53887663990316 22.096380516089003 3.5294865449964705 0 0 0
96 1 17.797339271437494 23.94771832415066 2.0192928054768506 0 0 0
99 1 3.193947899253917 25.837846396277666 3.369538445011783 0 0 0
101 1 1.6207823310449938 27.31891365731078 2.033212170878241 0 0 0
170 1 0.42662589371717985 47.38618904689445 3.568034175435181 0 0 0
80 1 4.665776855938976 24.38924605648344 2.0985800130265506 0 0 0
107 1 9.88579670706813 25.385567834201368 3.805915214661027 0 0 0
109 1 8.097980419611986 26.68056695867061 1.6690812975622626 0 0 0
117 1 14.33373631149503 26.93517205385663 1.5255416935543824 0 0 0
115 1 16.016268292908514 25.40098339522429 3.2381376893123126 0 0 0
137 1 12.987045059978243 32.059992546735515 0.5304225027938355 0 0 0
104 1 5.130860174510111 29.830577586149104 1.62753458622066 0 0 0
106 1 6.984111744969436 28.336075481423617 3.146751495472379 0 0 0
112 1 11.215605140510432 30.17166089953891 1.968981177527451 0 0 0
114 1 12.837283186959459 28.524939786136464 3.5196220512465324 0 0 0
120 1 17.5624255948122 30.34595838897894 2.039061688498345 0 0 0
385 1 1.1426580531671175 0.35248393990375165 12.824957765520294 0 0 0
1681 1 19.12353229148962 37.66052311151667 0.6262114344367675 0 0 0
125 1 1.7755550050892783 32.93615759600239 1.8078082886545759 0 0 0
123 1 4.0538576619431925 31.37854613234859 3.6898800783438785 0 0 0
626 1 0.39814767264565 16.040634310278428 22.315640218521438 0 0 0
133 1 8.274540311634928 33.30077798887935 2.0835410856506185 0 0 0
131 1 9.985579034948795 31.746608814103432 3.78374460440539 0 0 0
141 1 14.675237783547031 33.29699380570493 1.9869545257952408 0 0 0
337 1 0.6135362916866314 37.93968903085428 6.531791285586586 0 0 0
139 1 16.295372687256062 31.693015923539782 3.6122478782192897 0 0 0
434 1 0.6585209549954519 15.756389651389126 15.7169229385038 0 0 0
92 1 15.948150716519 22.454150896806617 0.3595365279417919 0 0 0
128 1 4.71948462518147 36.47957507473733 1.9679322214484123 0 0 0
130 1 6.849800837766187 34.98996093028643 3.4937833323699796 0 0 0
33 1 6.606005857859359 6.46371209711503 0.599848543210107 0 0 0
136 1 11.534743594133575 36.464645320141564 2.0383621411235495 0 0 0
138 1 13.121176452843386 35.1016465482309 3.7812096137159266 0 0 0
144 1 17.761442467845125 36.32311159371109 2.2957663040410123 0 0 0
674 1 0.41195649920557037 28.39279933005194 22.172958579655273 0 0 0
505 1 0.39133981063507817 31.629457874509402 12.925950015056236 0 0 0
172 1 3.1337427372424296 47.60036189796437 0.35292895332392504 0 0 0
149 1 1.9113057988433717 39.68081942210516 1.8457718906007223 0 0 0
147 1 3.3620316175271436 37.86053886870853 3.502035505007866 0 0 0
242 1 0.40934719072542725 16.021579409804318 9.651053021983724 0 0 0
157 1 8.222552312726428 39.74804555920122 1.930594269699911 0 0 0
155 1 9.771738903097553 38.16359698820223 3.2140088331119063 0 0 0
165 1 14.564343706512787 39.60789787957718 2.0284355364408535 0 0 0
163 1 16.085187642088187 38.14494661458274 4.1970092388762374 0 0 0
673 1 0.5690419571776908 25.281951181913414 19.130483166618163 0 0 0
36 1 9.621178615371264 10.107920450790855 0.5516314989767521 0 0 0
745 1 0.5710747115981429 44.30354967289785 18.926889230615224 0 0 0
154 1 6.436994713528308 40.89017595085443 3.5085971394616626 0 0 0
152 1 5.253158083752015 42.881657578799185 1.995828016756362 0 0 0
160 1 11.362750895893093 42.9015546795844 2.0262317167381303 0 0 0
162 1 12.86953395044415 41.265572127188584 3.5169817098024296 0 0 0
168 1 18.025876773456353 42.35953796006893 1.4341898622937308 0 0 0
173 1 1.6955115735211252 46.034856577922895 1.9719169857022176 0 0 0
171 1 3.392325791826218 44.572415512110126 3.598495733762205 0 0 0
178 1 6.838294004557244 47.550222013911856 3.2535682632972147 0 0 0
181 1 8.145908498359475 45.91653046530565 1.792337439594638 0 0 0
179 1 9.504103264983318 44.324921179220965 3.41243212835031 0 0 0
189 1 14.560303834721598 45.84607308006427 2.1428025289047348 0 0 0
187 1 16.192902035313857 43.806064680378746 3.108678197504883 0 0 0
176 1 4.690336447826513 49.242565384915196 1.8450277981404408 0 0 0
11 1 9.926645963525813 50.43394384410095 3.5687833334654897 0 -1 0
184 1 11.463094983140179 49.01816125370812 1.6995783970048945 0 0 0
186 1 13.02199406225209 47.62310828388657 3.2609389457360702 0 0 0
19 1 15.730834693465514 0.6543661042448261 3.5033740016854114 0 0 0
192 1 17.334984090156734 49.23611272064982 1.7716340843670293 0 0 0
386 1 0.5985480520305444 3.39262304238748 16.393507495483817 0 0 0
196 1 3.656365979674972 3.480748058102635 6.442828358607027 0 0 0
7 1 5.339753038665119 2.0492241148144643 4.9567831298467615 0 0 0
201 1 6.804329131475882 50.54255351757546 6.934861469963597 0 -1 0
15 1 11.340666574385262 2.1344658876471776 5.203551408206715 0 0 0
209 1 12.770617970588983 50.42570511683692 6.429656227294987 0 -1 0
23 1 17.18836449688595 2.0281448425483246 4.973578612198425 0 0 0
6 1 1.7953701976861165 4.799091067653195 4.88957872233532 0 0 0
225 1 6.35897046622499 6.513407539356599 6.805665698662497 0 0 0
204 1 9.564015621476937 3.604406330226625 6.496187881898868 0 0 0
14 1 8.065320447686407 5.402209963315823 5.215353646762824 0 0 0
22 1 14.051568301845558 5.1104171762182125 4.682764527960889 0 0 0
233 1 12.567943859692607 6.555229363312924 6.557145828481218 0 0 0
212 1 15.458615771161966 3.6784025300349494 6.46260505670341 0 0 0
721 1 0.5274491792680496 37.78939828209803 19.42404969103466 0 0 0
746 1 0.49031826873240525 47.45081072160939 22.529090397780983 0 0 0
220 1 3.511963507629882 9.760287880925626 6.985120539441489 0 0 0
31 1 4.791206421151526 7.881408062072741 5.350307239998822 0 0 0
228 1 9.629616898437103 9.77575176252296 6.778951057773715 0 0 0
39 1 11.225660038094023 8.046079285350388 5.107872704553321 0 0 0
236 1 15.97641893854486 9.987880305359432 6.526270701583097 0 0 0
47 1 17.21319721146963 8.403253611428136 4.725341938551962 0 0 0
30 1 2.042234156169558 11.602830578413815 5.416494599743042 0 0 0
249 1 6.374323365671002 12.836121934977717 6.564964135006838 0 0 0
38 1 8.081159436427235 11.314915600002294 5.288379997959918 0 0 0
46 1 14.183841655536563 11.615463391074849 5.349694315306858 0 0 0
257 1 12.323272064401035 13.380805941806903 6.345175420991451 0 0 0
89 1 12.917706046274176 19.087064461470653 0.6624323814443678 0 0 0
244 1 2.7944140431751956 15.95963247179713 6.2032445994815175 0 0 0
55 1 4.65377954293485 14.594684303248286 4.8321653252452474 0 0 0
252 1 9.673042695696314 16.178529521963174 6.5495734480309595 0 0 0
63 1 10.785742241073677 14.968057793301313 4.620558393629956 0 0 0
71 1 17.679479872070942 15.063244724149579 4.939035074220795 0 0 0
260 1 16.01606627358926 16.30014729071654 6.691091978441061 0 0 0
54 1 1.7163892860562264 17.997082886044314 4.930338273975156 0 0 0
273 1 6.567129212200855 19.095037266105855 6.744585080553919 0 0 0
62 1 7.855055122854869 17.489036535793403 5.104166721941655 0 0 0
70 1 14.446574114397334 17.981832831124823 5.441554580209507 0 0 0
281 1 12.540809135375506 19.33061376193447 6.784188709636722 0 0 0
95 1 17.46102986897381 20.81461099846114 4.8386168788126644 0 0 0
1993 1 19.198392066196256 19.429083430375986 12.658989293370198 0 0 0
268 1 3.3461005928455068 22.23638579418419 6.775767991935099 0 0 0
78 1 1.8082883031568489 23.786551362662756 4.943247881518835 0 0 0
79 1 4.995934289208099 20.85848129934883 5.016767679992101 0 0 0
87 1 10.84865143215751 20.663664434134624 5.107450100070701 0 0 0
276 1 9.225617918293581 22.791187827555014 6.629275581290707 0 0 0
94 1 14.302411086652599 23.64512820606913 4.8596874227895945 0 0 0
284 1 15.78847533565862 22.188411245457523 6.784500961342124 0 0 0
297 1 6.577221204991276 25.556941462954914 6.454175229177263 0 0 0
103 1 5.122833267650975 27.125665423532695 4.502343520804409 0 0 0
86 1 7.683963726373178 24.049583813184856 4.7039442811883765 0 0 0
111 1 11.255148610911563 27.107764689841485 5.242822008049133 0 0 0
305 1 12.876235723322825 25.50525354481088 6.508933661660107 0 0 0
119 1 18.027203875737573 27.024843852640764 5.095219193892227 0 0 0
292 1 3.327096118428442 28.700013249324897 6.1515466512381485 0 0 0
102 1 1.5179572598628135 30.66292240071486 4.806312711482087 0 0 0
300 1 9.619440330910015 28.690003748785696 6.64825930974245 0 0 0
110 1 8.210079424381714 30.113410582164295 4.630882310346401 0 0 0
118 1 14.621965336115261 30.15890912187019 5.03803499681172 0 0 0
308 1 16.39049117934484 28.5974794781171 6.258229158254569 0 0 0
321 1 6.9116124063919555 31.519123410692494 6.51422517824777 0 0 0
127 1 5.633850570741358 33.26272454204571 5.259628063601054 0 0 0
135 1 11.746863604346792 33.452073751340826 5.42810122550839 0 0 0
329 1 12.96181718084948 31.441825252600406 6.315842705735338 0 0 0
143 1 18.073474898631527 32.72887787379765 5.443126712958435 0 0 0
758 1 8.40652800344291 48.940919899782465 23.944874664500315 0 0 0
126 1 1.868776108235255 35.9623413689044 4.850338353826077 0 0 0
316 1 3.808989994362127 34.95892356878218 6.667279493487574 0 0 0
134 1 8.531336682390982 36.46617274434586 5.022716571536157 0 0 0
324 1 9.905015252096012 34.75677790572622 6.811922776347446 0 0 0
142 1 14.678815944928726 36.54910330297513 5.438292959384327 0 0 0
332 1 16.146330865336026 34.66762195534279 6.809517053169636 0 0 0
151 1 4.970749331208233 39.30611746117288 4.91324266633697 0 0 0
345 1 6.678648114987383 38.02925768952664 6.459653214583545 0 0 0
159 1 11.513128130341356 39.580094634470406 5.182212857531629 0 0 0
353 1 12.679173006022724 37.72841486976319 6.431461582589546 0 0 0
167 1 17.233484942661175 39.921690799455426 5.538226321813982 0 0 0
217 1 0.7274884124480394 6.378275526654688 6.3977825177326455 0 0 0
340 1 3.6309673482183467 40.92144244910115 6.865845647924775 0 0 0
150 1 2.0156582734022477 42.556994773907505 5.510208433335662 0 0 0
158 1 8.043750925303772 42.60174189922345 4.8615074343444284 0 0 0
348 1 9.749212707219234 40.8890203887634 6.739824481059943 0 0 0
166 1 14.22150824159899 42.80764053439083 4.955085364930928 0 0 0
356 1 15.291422346721339 41.26191168581952 7.286831021183575 0 0 0
194 1 0.8058216041183575 2.928984688326116 9.895474947835122 0 0 0
369 1 6.510088544936958 44.03516024556223 6.503933980687672 0 0 0
175 1 5.3780815987722335 45.65365646794212 4.650082343890448 0 0 0
183 1 11.404014394394093 46.026073827564844 4.9721165718655636 0 0 0
377 1 12.427388458177548 44.17816393564189 6.815282988821824 0 0 0
191 1 17.618974888542766 45.284206605750455 5.049619596189346 0 0 0
2041 1 19.06053823829736 31.510779558254907 12.600938587840934 0 0 0
364 1 3.9247784030280943 47.37952321677101 6.205078550426352 0 0 0
174 1 1.8172576482498468 49.20135989020939 4.801037576289601 0 0 0
587 1 9.662205056078951 50.392273421091346 21.967789322301794 0 -1 0
182 1 7.991354045403899 48.82069033861377 5.235707902610344 0 0 0
372 1 9.502498818025002 47.075870586340834 6.655669073943881 0 0 0
190 1 14.759062824934992 49.08375427745911 5.255542206159178 0 0 0
380 1 16.088254146574876 47.22179284843795 6.608569097798615 0 0 0
1658 1 19.12811048817973 34.39931358040479 3.7912402525658546 0 0 0
161 1 13.289200565754886 38.021749505247634 0.707672112176879 0 0 0
197 1 2.090733513826787 1.685140694275226 8.274869197614272 0 0 0
202 1 6.716168539606355 2.850246009803403 9.56379233655654 0 0 0
199 1 5.224314857922974 1.3893986041239241 11.182219814272672 0 0 0
205 1 8.62913596531278 2.0083664152420546 8.414503118038734 0 0 0
213 1 14.188713345653362 1.9234652461881236 7.93511804078483 0 0 0
210 1 12.543364036114163 3.8516723684403296 9.376601619447126 0 0 0
2258 1 18.64107955107422 41.22018747717413 22.366387310911975 0 0 0
219 1 3.6050815634375826 6.493824679947586 9.906348771993747 0 0 0
200 1 4.81495948516228 4.735694681573042 8.531497092372549 0 0 0
227 1 9.537133314545386 6.948390172151694 9.893074593502929 0 0 0
206 1 8.426541243108986 4.946632302404801 11.117238788278302 0 0 0
208 1 10.877620002911943 5.339129032324816 8.088428610531693 0 0 0
216 1 17.61300810000498 5.214925431623423 7.7080378142714485 0 0 0
235 1 15.817705278073078 6.6284406296456675 9.401553177753083 0 0 0
221 1 1.9685137184393255 8.182111110857942 8.23426222377267 0 0 0
226 1 6.681804151568163 9.34594303129002 9.72919216969612 0 0 0
223 1 5.0903086870144065 8.072831140416753 11.268961775446154 0 0 0
229 1 7.826824029944414 8.126424969340668 7.7669309793892145 0 0 0
237 1 14.206503958861543 8.293800138913692 7.67044337732187 0 0 0
234 1 12.77352424249635 10.248227702847354 9.372177783137104 0 0 0
956 1 16.189270985403873 47.60367805132761 24.883992598516592 0 0 0
243 1 3.2331903501153514 12.350111798377347 9.675353397350834 0 0 0
224 1 5.156231452906227 10.981875396492564 8.48967928703779 0 0 0
251 1 9.581782732746387 12.953204499373804 9.888339234084167 0 0 0
232 1 11.192162625058797 11.859800197702432 8.03684740493638 0 0 0
238 1 14.265918423080272 11.478993528067775 11.326474687960918 0 0 0
259 1 15.884312825833893 12.943291462160797 9.90353399284903 0 0 0
240 1 17.167923016232336 11.633225987604 8.036986554632431 0 0 0
245 1 1.8654634254959608 14.217366163935326 7.959801221878098 0 0 0
250 1 6.50779365067415 15.723812740841089 9.567888172526025 0 0 0
253 1 7.9006604833595935 14.30246477611875 8.093351706615074 0 0 0
261 1 14.512392913265305 14.615091732092935 8.303252981034374 0 0 0
258 1 12.638571302523307 16.104502777628596 9.605160768387275 0 0 0
2090 1 18.94336560722472 47.43450951326344 16.25582620428106 0 0 0
267 1 3.4562421562014345 19.448002630123366 9.579163036161818 0 0 0
248 1 5.063258867733445 17.530166609903294 8.405739018654184 0 0 0
275 1 9.66786440618143 19.164929722466983 9.824338799044808 0 0 0
256 1 10.880960471580098 17.791680940820573 8.28321795891186 0 0 0
264 1 17.648643303496375 17.984535834579976 7.980900089040794 0 0 0
283 1 15.988354813672306 19.18335861000642 9.902449369434878 0 0 0
269 1 1.766642871021619 20.588779563080443 8.008686128840054 0 0 0
274 1 6.551907956295126 22.422306385552712 9.774189292224593 0 0 0
277 1 8.082674571070514 20.638422887074686 8.28575422546283 0 0 0
280 1 11.093949964989976 24.090310460539673 8.193784410304218 0 0 0
285 1 14.435899402979759 20.668359576717098 8.416010919884728 0 0 0
282 1 12.959098122932682 22.45462443033366 9.83349025786069 0 0 0
286 1 14.483159284228554 23.800252845520095 11.37182965422052 0 0 0
1562 1 19.127788317329042 9.81152087581488 3.1958763952637304 0 0 0
288 1 17.329778733288702 23.90160687904717 8.30131964744691 0 0 0
270 1 1.7419884422654923 24.15431490968339 11.00886659366067 0 0 0
291 1 3.391168726274562 25.443874035114174 9.662402198094576 0 0 0
293 1 1.7968372646741833 26.909021613254616 7.805483788254952 0 0 0
272 1 4.865432763456087 23.834068630707534 8.504743223158986 0 0 0
295 1 5.165492440597836 26.928418729375885 11.201072624945471 0 0 0
299 1 9.534767251113202 25.342992195973643 9.830318212343432 0 0 0
301 1 8.306046375423588 27.022773038625214 8.29797957977176 0 0 0
309 1 14.575098787180076 26.884952768686787 7.885174299445182 0 0 0
307 1 15.895133023669471 25.46009196259037 9.895561435231558 0 0 0
298 1 6.567110697972252 28.662708606781116 9.792514529146398 0 0 0
296 1 4.769481037968155 29.908321208418872 8.089098114316933 0 0 0
304 1 11.471321470417822 29.863179650193832 8.021844457415755 0 0 0
306 1 12.875100470032887 28.100542494060335 9.50686081319065 0 0 0
312 1 17.639394005106407 29.79804207692335 8.528118081439679 0 0 0
338 1 0.3984797036259097 40.950207526587675 9.76315961217739 0 0 0
315 1 3.2437728414267313 31.36199407818502 9.819578291541573 0 0 0
317 1 1.8764444140225558 33.38874517288203 8.426202273790134 0 0 0
319 1 4.998868383207358 32.91648558432802 11.490937890059561 0 0 0
325 1 8.454528814299772 32.790079409580876 8.128295277818431 0 0 0
323 1 10.075597476510888 31.518438043019156 9.766483560775432 0 0 0
333 1 14.459058397579737 32.89385845647426 7.9614221231984805 0 0 0
331 1 15.790939764595972 31.441305000463775 10.031002018345552 0 0 0
335 1 17.66889113841431 33.22108049169052 11.342060043957444 0 0 0
318 1 1.7518417656853786 36.52748765555364 11.5084176852607 0 0 0
320 1 5.404086858371122 36.1576542940713 8.241778117382447 0 0 0
322 1 7.030267681294869 34.256529297228965 9.869243591549717 0 0 0
328 1 11.643236414540766 36.35378407168909 8.422441518938081 0 0 0
330 1 13.193725260326469 34.68324449733246 9.657102203030663 0 0 0
334 1 14.524211558588883 35.993617942614115 11.484004983139288 0 0 0
336 1 17.91858394568159 36.53630259748782 8.276043163587612 0 0 0
341 1 2.2067172001197743 39.16121334693305 8.494281350341884 0 0 0
339 1 3.7266588920313395 37.643957929720706 9.88497666106687 0 0 0
349 1 8.102917919684208 39.43394022892563 8.164713173935919 0 0 0
347 1 9.675409429651722 38.09949235523287 9.605169937047952 0 0 0
357 1 14.2948929165711 39.016800137254805 8.312611683138897 0 0 0
355 1 16.27607976827447 37.81783748517212 9.830437410729758 0 0 0
601 1 0.5020400444805543 6.37676252990441 18.789085998777242 0 0 0
342 1 1.9636882600797727 42.57101975292757 11.181902281415002 0 0 0
346 1 6.719195277243081 40.721480173358316 9.77377326866605 0 0 0
344 1 5.08166887869146 42.41855860271333 8.317898218592532 0 0 0
352 1 11.215765174026133 42.26059597645628 8.065592024618692 0 0 0
354 1 12.958065166615242 40.68381125520265 9.789906036599623 0 0 0
360 1 17.22708898322103 42.906417790654615 8.675905350839466 0 0 0
379 1 15.74860227100126 44.42755446736137 10.325416686418324 0 0 0
754 1 6.634882561825231 47.250103148429325 22.587641302226217 0 0 0
365 1 1.971250100509735 46.16109347501408 8.09374630673592 0 0 0
363 1 3.5785725241426847 44.17137859380768 9.654658443058958 0 0 0
371 1 10.097284401612848 43.67087728144889 9.822456218111652 0 0 0
373 1 8.276525183005312 45.23637743642266 8.221548197404301 0 0 0
381 1 14.622649628767448 45.397401460799536 8.004159863201208 0 0 0
378 1 13.342798685168871 47.39654237683372 9.600519861182395 0 0 0
578 1 0.7910966747758879 3.5651615070861498 22.2533411592761 0 0 0
195 1 3.6490821676155374 50.2919862336244 9.301922623885574 0 -1 0
370 1 6.879151695036963 47.35120544462721 9.616005272145705 0 0 0
368 1 5.148470345217863 48.63140233207512 7.944897252700356 0 0 0
203 1 10.102712606393172 50.46531839714432 9.8131923140853 0 -1 0
376 1 11.256047947588895 48.85140647388293 8.14139870929795 0 0 0
211 1 16.061275141886036 0.5041957160535238 9.765371143224401 0 0 0
384 1 17.539554641944267 48.77507553263389 8.184819071749224 0 0 0
698 1 0.4731919424338113 35.066862150838524 22.939028026577 0 0 0
389 1 2.0607437284463206 1.741972919701891 15.014864611769253 0 0 0
388 1 3.8258897562713443 2.946845496131675 12.942830296383521 0 0 0
393 1 6.528271467678468 50.26816895729506 12.760469164235152 0 -1 0
207 1 11.469044860540688 2.338698904251684 11.738317688029088 0 0 0
396 1 9.455856819038631 3.2716769727817274 13.014586634283651 0 0 0
397 1 7.950877594944002 1.4032524528542083 14.574609292510997 0 0 0
215 1 17.969882464585556 2.058135270398206 11.176662952706467 0 0 0
404 1 16.071437514274944 3.4973463853945135 12.685991345143501 0 0 0
185 1 13.047913109838682 44.0582719196867 0.5658659875799953 0 0 0
198 1 2.136698276477103 4.729484245905361 11.47867876912097 0 0 0
392 1 5.509691276763043 5.03053361761822 14.307467193529394 0 0 0
400 1 11.586403451621662 5.029197520468819 14.28688142277381 0 0 0
214 1 14.438763785125197 5.227361657628037 11.267408019019726 0 0 0
425 1 12.813593070516916 6.888677081493088 12.524094259105341 0 0 0
408 1 17.752114197604932 5.102836826365685 14.24558844163292 0 0 0
2210 1 19.148507076377367 28.776018494528106 22.393689128901883 0 0 0
413 1 2.222690552153754 7.984220758543494 14.215813610326032 0 0 0
412 1 3.7193675747973725 9.577171780838283 12.469567667573468 0 0 0
417 1 6.888785988009966 6.766989104620412 12.561063104718857 0 0 0
231 1 11.162576666501852 8.310876587270155 11.269598166831619 0 0 0
420 1 9.664382003836971 9.52764447772952 12.96582185930808 0 0 0
421 1 7.711067142571005 8.307217068864624 14.47687735819911 0 0 0
429 1 14.667244845110186 8.105814845865595 14.007651106234793 0 0 0
239 1 17.282738459827037 8.224923595369273 11.050961853193325 0 0 0
428 1 16.066862699905016 9.796424182495794 12.622936175805613 0 0 0
222 1 1.5930713328532895 10.818145406913954 11.211287130262274 0 0 0
2185 1 19.07054269262979 19.22980083131661 19.469837352819653 0 0 0
441 1 6.696576679124128 12.808869181568882 12.725414704528276 0 0 0
416 1 5.22568400751636 11.203894613988874 13.864241321123474 0 0 0
230 1 8.249528759941102 11.058187117051618 11.31105526486654 0 0 0
449 1 12.777078412276618 12.986855669045035 12.918757109465352 0 0 0
432 1 17.62253853120448 11.46959395182651 14.019615353309511 0 0 0
436 1 3.6829640853695085 15.734888741637022 12.717009929170723 0 0 0
437 1 2.237121309714912 14.046156065552262 14.21067812981377 0 0 0
247 1 4.99637734557437 14.173691074461159 11.104653624376214 0 0 0
444 1 9.8564809078773 15.924195129104739 12.748639227527086 0 0 0
255 1 11.294669972718523 14.48457202838744 11.390585727047622 0 0 0
445 1 8.45735614314263 14.43224569565289 14.36576638681171 0 0 0
263 1 18.03052187560685 14.61773754430531 11.210495294438259 0 0 0
452 1 16.03095047488608 15.997920363688044 12.477093065238046 0 0 0
246 1 2.101801575624659 17.559205299687385 11.03727649845378 0 0 0
465 1 6.640992135077826 19.09995337921354 12.798304666637419 0 0 0
440 1 4.964221358945074 17.610956911705113 14.073469265721496 0 0 0
254 1 8.0802393061111 17.352725418232115 11.18409052149095 0 0 0
448 1 11.205858689484925 17.368281412771598 14.41850062024629 0 0 0
262 1 14.409745618932336 17.285538549273348 11.24439316256881 0 0 0
473 1 12.871411693477551 18.948215463396878 12.911741890080803 0 0 0
477 1 14.43652945748524 20.469615653267244 14.681700449612947 0 0 0
456 1 17.888235512687164 17.548294203762893 14.345522885404279 0 0 0
2066 1 19.00827887164966 40.99225741375712 15.888096652475765 0 0 0
461 1 1.8886423375644517 20.719732668681633 14.031070745595047 0 0 0
460 1 3.2515224127571414 22.649590003003127 12.628224919479214 0 0 0
271 1 4.931162286509827 20.912142118404436 11.236116430189796 0 0 0
279 1 11.457145723837463 20.534119413451066 11.197155755417077 0 0 0
469 1 8.117930077810266 20.496233447731143 14.551766568504943 0 0 0
468 1 9.876164305091113 21.80560017663082 13.055593263327276 0 0 0
287 1 17.443688088867805 21.15411461721619 11.356390600435926 0 0 0
476 1 16.074354113741137 22.44279394331091 13.496276044472696 0 0 0
480 1 17.880728494337717 23.72909442831977 14.748786154839697 0 0 0
464 1 5.146116598577436 23.862216933170842 14.205949696711578 0 0 0
489 1 6.780291455291791 25.52697803954329 12.924592866680278 0 0 0
472 1 11.203828839596293 23.776515001752106 14.333048926605866 0 0 0
278 1 8.211827263780172 23.64888774533295 11.372276416262137 0 0 0
303 1 11.286985568143129 26.460951573033718 11.313158660313569 0 0 0
497 1 12.877970321792114 25.17668933019985 13.051891339057782 0 0 0
501 1 14.44426625875036 26.999990669319242 14.651891205253095 0 0 0
311 1 17.733813249780223 26.969169252136187 11.272209460961049 0 0 0
723 1 3.707223420871371 38.158148646072 22.034839771014305 0 0 0
485 1 1.7938441149972226 27.08402314303179 14.121987450462 0 0 0
484 1 3.6623116719675375 28.805410812609964 12.785653828767916 0 0 0
294 1 1.673523638270054 30.0050409112992 11.405984254364563 0 0 0
488 1 5.234537330300611 30.02259118770905 14.552714959018354 0 0 0
492 1 9.82541084677827 28.41520329312847 13.250106969423955 0 0 0
302 1 8.13377831181069 29.87999344107437 11.211614408516548 0 0 0
496 1 11.640635143138155 30.062172798391884 14.461467958774739 0 0 0
310 1 14.29244658166236 29.52125644717856 11.368917614800711 0 0 0
500 1 16.200411978928717 28.059916840028283 12.974050761174603 0 0 0
504 1 17.64723502052758 30.114783437042917 14.359953233164042 0 0 0
2114 1 19.039029434520277 3.5455505388850073 22.228036681828492 0 0 0
509 1 2.3676376838484035 32.78964979695829 14.40582364292719 0 0 0
513 1 6.832177561727686 31.40888584379039 12.929610476355808 0 0 0
327 1 11.25328902608829 33.37270732417694 11.4087477781019 0 0 0
517 1 8.34023053169506 33.30409901700368 14.428669065585323 0 0 0
521 1 12.817684443676646 31.750205783398197 12.798963016694849 0 0 0
525 1 14.711574033092289 32.956986702669774 14.606227638210509 0 0 0
508 1 3.519409730564648 34.76356313977721 12.962255278347097 0 0 0
512 1 5.1182331426120555 36.44951940739388 14.457912607291416 0 0 0
326 1 8.318157844315122 36.16927397468154 11.532117492541126 0 0 0
516 1 9.846765917667854 34.989701155972334 12.904848115975364 0 0 0
520 1 11.47225628463639 36.39115649224767 14.244226544927418 0 0 0
524 1 16.27744852348561 34.54716006117746 12.984691986696477 0 0 0
528 1 18.115428221894305 36.268596094568785 14.26915138439404 0 0 0
533 1 2.002645086453242 39.37658368106525 14.692245954274885 0 0 0
343 1 5.027412989642637 39.18425320980512 11.354435262401813 0 0 0
537 1 6.871968192636623 37.691305194822874 13.076603325588584 0 0 0
351 1 11.062515237663934 39.52541356323113 11.245223721128584 0 0 0
541 1 8.220494301671744 39.383296667901945 14.347399563131887 0 0 0
545 1 13.015898680873722 37.99992673938223 12.634683051450565 0 0 0
359 1 17.522630692714408 39.367903010866776 11.492701801631103 0 0 0
1538 1 18.775328880012147 3.705462522654154 3.4185475510511414 0 0 0
532 1 3.4002041650704133 41.10446264971272 12.85893817973103 0 0 0
536 1 5.181827853233348 42.57569675973968 14.50668715939226 0 0 0
350 1 8.10579022529375 42.279251387305315 10.794169368399462 0 0 0
540 1 9.430582459309793 40.780577394166954 12.679470537106793 0 0 0
544 1 11.067557240811421 42.15930436039484 14.32920262803232 0 0 0
358 1 14.060772554581108 42.57808296242043 11.672365401172815 0 0 0
569 1 12.720339924710142 44.272288154750505 13.18200263205083 0 0 0
548 1 15.63003828852079 40.738721195997165 13.068585098684368 0 0 0
552 1 17.19468534312137 42.72270180129984 14.463638007207413 0 0 0
718 1 14.499961526923803 36.19921393496305 23.911963443574706 0 0 0
557 1 1.976363557884585 45.74371080348785 14.445000288748762 0 0 0
367 1 5.1879041303683415 45.88020090224315 10.981553970948045 0 0 0
561 1 6.62248962735423 43.98398414409124 12.491214882095544 0 0 0
375 1 11.594285912944317 46.001092684194845 11.345581401966072 0 0 0
565 1 8.383735014717084 45.41579301800295 14.065262386548183 0 0 0
564 1 9.95460368160845 47.23538119432012 12.986105184363947 0 0 0
383 1 17.85476107079899 45.572299159421924 11.56975831962669 0 0 0