
# Set production fixes - Nose/Hoover
#
fix                 2 all nph iso ${PRES} ${PRES} ${PCOUPL}
fix                 2 all nph iso -1000 ${PRES} ${PCOUPL}
fix                 2 all nph iso -1000 -1000 ${PCOUPL}
fix                 2 all nph iso -1000 -1000 10000.0
fix                 3 all temp/csvr ${TEMP} ${TEMP} ${TCOUPL} 837492
fix                 3 all temp/csvr 279 ${TEMP} ${TCOUPL} 837492
fix                 3 all temp/csvr 279 279 ${TCOUPL} 837492
fix                 3 all temp/csvr 279 279 5000.0 837492

# Define Order parameter
#
compute             2 all orientorder/atom nnn NULL cutoff 3.5
thermo              200
thermo_style        custom step temp press vol etotal ke pe c_1[4]

# Run 1ns simulation
dump		    1 all custom 400 prod.${NAME}.dump id type x y z vx vy vz c_2[*]
dump		    1 all custom 400 prod.ice_279K_-1000atm_mW.dump id type x y z vx vy vz c_2[*]
run                 200000
Neighbor list info ...
  update every 1 steps, delay 0 steps, check yes
  max neighbors/atom: 2000, page size: 100000
  master list distance cutoff = 6.3065
  ghost atom cutoff = 6.3065
  binsize = 3.15325, bins = 18 16 16
  2 neighbor lists, perpetual/occasional/extra = 1 1 0
  (1) pair sw, perpetual
      attributes: full, newton on
      pair build: full/bin/atomonly
      stencil: full/bin/3d
      bin: standard
  (2) compute orientorder/atom, occasional, copy from (1)
      attributes: full, newton on
      pair build: copy
      stencil: none
      bin: none
Per MPI rank memory allocation (min/avg/max) = 5.838 | 5.839 | 5.840 Mbytes
Step Temp Press Volume TotEng KinEng PotEng c_1[4] 
       0    277.06202    -993.9523    142845.46   -48861.557    3804.7796   -52666.336   0.27643145 
     200    283.10718   -1011.2611    142849.73   -48852.454    3887.7953   -52740.249   0.28254776 
     400    277.12289    -1034.656    142878.49   -48845.373    3805.6156   -52650.989    0.2768388 
     600    282.36697   -1004.2921    142861.92   -48882.711    3877.6304   -52760.342   0.27597394 
     800    273.40156   -978.60831     142819.2   -48897.785    3754.5121   -52652.297   0.28820685 
    1000    279.92883   -1021.9726    142812.32   -48911.383    3844.1483   -52755.531   0.27510508 
    1200    278.70018   -1057.3568     142840.4   -48935.207    3827.2758   -52762.483   0.26892331 
    1400     279.1303   -998.21985    142820.01   -48926.536    3833.1825   -52759.719   0.29008381 
    1600    274.83335   -978.02661    142779.83   -48930.426    3774.1742   -52704.601   0.27378304 
    1800    277.11071   -989.84337    142785.22   -48936.855    3805.4482   -52742.303    0.2715009 
    2000    279.45042   -1027.7403     142852.4   -48892.162    3837.5786   -52729.741   0.28190407 
    2200    277.84103    -993.5741    142869.29   -48860.742    3815.4774   -52676.219   0.27048506 
    2400    276.37332   -1009.8444    142835.72   -48878.638    3795.3221    -52673.96   0.27574696 
    2600    277.72499   -952.82764     142789.8   -48922.616    3813.8839     -52736.5   0.28163834 
    2800     274.0669   -982.65253    142765.62   -48938.906    3763.6489   -52702.555   0.28034783 
    3000    273.76044   -999.68296     142767.4   -48949.685    3759.4404   -52709.126   0.27844924 
    3200    276.86923   -998.55516    142812.49   -48897.324    3802.1322   -52699.456   0.27978892 
    3400    275.94506   -1032.1594    142888.21   -48933.868    3789.4408   -52723.309   0.26768503 
    3600    273.04129   -1004.6375    142858.35   -48962.499    3749.5646   -52712.063   0.26713967 
    3800    279.03537   -977.37546    142778.35   -48893.542    3831.8789   -52725.421   0.29540871 
    4000    280.27405   -959.56831    142822.25   -48887.829    3848.8891   -52736.718   0.26836459 
    4200    277.65815   -1039.9612     142936.9   -48902.145    3812.9661   -52715.111    0.2647421 
    4400    275.82089   -1050.0248    142889.92   -48889.841    3787.7357   -52677.577   0.28807605 
    4600    279.64699   -948.34387    142733.86   -48872.823     3840.278   -52713.101   0.26436074 
    4800    276.12208   -964.09343    142754.57     -48863.1    3791.8719   -52654.972   0.28271186 
    5000    276.32048   -1039.8592     142904.9   -48840.036    3794.5964   -52634.633     0.286019 
    5200    279.18498   -1054.6376    142907.42   -48841.885    3833.9334   -52675.818   0.26259535 
    5400    278.39355   -938.00184    142758.53   -48804.454    3823.0651   -52627.519   0.28065338 
    5600    280.40316    -929.1636    142741.93   -48789.638    3850.6621     -52640.3   0.29221879 
    5800    279.70411   -1044.3348    142926.73    -48775.16    3841.0624   -52616.223   0.27681911 
    6000    277.10503     -1114.99    143033.63   -48760.019    3805.3703   -52565.389   0.26230347 
    6200    280.18244   -965.59643    142867.08    -48755.74    3847.6311   -52603.371   0.28818873 
    6400    281.62669   -928.58598    142715.04   -48726.494    3867.4644   -52593.959   0.28076743 
    6600    283.74299   -956.29107    142865.37   -48763.233    3896.5267    -52659.76   0.26748387 
    6800    276.39783   -1153.4455    143084.95   -48796.419    3795.6585   -52592.077   0.28126819 
    7000    279.09448   -1056.1452    142971.93   -48802.654    3832.6906   -52635.345   0.27166424 
    7200    283.26001   -898.37896    142686.45   -48757.908    3889.8941   -52647.802   0.28836115 
    7400    282.00224   -900.69208    142696.14   -48743.231    3872.6217   -52615.853   0.29958986 
    7600    281.48292   -1094.2277    143013.96   -48771.025    3865.4901   -52636.515   0.28168168 
    7800    281.07454   -1169.5226     143121.1   -48796.024     3859.882   -52655.906   0.26687102 
    8000    278.26068   -1007.3488    142809.88   -48767.923    3821.2404   -52589.164    0.2861815 
    8200    281.10744   -810.72707    142535.11   -48806.782    3860.3338   -52667.116   0.29697049 
    8400    277.82757    -968.4029    142762.57   -48829.373    3815.2926   -52644.666   0.27550431 
    8600    278.68129   -1172.4692    143153.01   -48783.789    3827.0165   -52610.806   0.27391535 
    8800    281.82708   -1082.8366    143084.61   -48717.443    3870.2163   -52587.659   0.27433942 
    9000    282.15095   -848.55191    142653.51   -48703.393    3874.6639   -52578.057   0.28326124 
    9200    285.22018   -797.73581    142576.95   -48691.867    3916.8124    -52608.68   0.30132306 
    9400    284.48821   -1108.6422       143071   -48733.131    3906.7605   -52639.892     0.276423 
    9600    280.96629   -1220.8937    143324.77   -48717.212    3858.3954   -52575.608   0.26472462 
    9800    281.15612   -989.84787    142840.47    -48739.64    3861.0023   -52600.643   0.28428739 
   10000    280.44586   -730.62273    142342.07   -48742.309    3851.2486   -52593.558   0.30741748 
   10200    281.74206   -907.84651     142651.3    -48731.99    3869.0488   -52601.039   0.29175769 
   10400    280.98448   -1269.0254    143309.72   -48708.525    3858.6452   -52567.171   0.26696597 
   10600    284.97373   -1221.7934    143252.24   -48689.596    3913.4279   -52603.024   0.27497001 
   10800    284.05467   -853.71482    142534.77   -48731.351    3900.8068   -52632.158   0.30389108 
   11000      280.537   -706.33435    142320.75   -48775.241    3852.5002   -52627.741   0.30753184 
   11200    274.74443   -1033.8703    142941.56   -48783.917    3772.9531    -52556.87   0.27965529 
   11400    279.64274   -1297.1043    143408.15   -48800.202    3840.2196   -52640.422   0.25404747 
   11600    281.78861   -1050.2666    142941.85   -48779.025     3869.688   -52648.713   0.28142564 
   11800    279.79883   -739.26076    142329.14   -48858.717    3842.3631    -52701.08   0.30150709 
   12000    284.78033   -827.27703    142505.48   -48858.123     3910.772   -52768.895   0.29676047 
   12200    275.65507   -1169.6388    143122.79   -48828.416    3785.4586   -52613.875   0.27620852 
   12400    279.36522    -1199.619    143264.37   -48794.582    3836.4086   -52630.991   0.25942818 
   12600    281.79072   -953.27224    142780.87   -48813.166     3869.717   -52682.883   0.29645819 
   12800    282.35952   -811.68191    142447.54   -48828.456     3877.528   -52705.984   0.29981806 
   13000     272.2737   -983.38629    142708.37   -48806.435    3739.0236   -52545.459   0.29668421 
   13200     284.3054   -1160.7628    143088.65   -48773.469      3904.25   -52677.719   0.27636943 
   13400    275.21461     -1108.04    143004.12   -48791.709      3779.41   -52571.119   0.28138916 
   13600    279.45476    -901.9045    142638.59    -48787.86    3837.6382   -52625.498   0.30057253 
   13800    279.32248   -869.36661    142565.64    -48783.48    3835.8216   -52619.302   0.29862629 
   14000    285.20593   -999.58538    142863.23    -48800.33    3916.6166   -52716.946   0.28193771 
   14200    276.91641   -1137.5355    143049.34   -48821.752      3802.78   -52624.532   0.28119458 
   14400    280.30235   -1011.7537    142902.57    -48848.55    3849.2777   -52697.827   0.28202123 
   14600    281.29043   -934.09311    142697.74   -48848.008    3862.8467   -52710.854   0.29420372 
   14800    283.56503   -912.62598    142750.37   -48831.805    3894.0828   -52725.888   0.27477021 
   15000    279.45774   -1044.7033    142914.37   -48880.155    3837.6791   -52717.835   0.28063111 
   15200     272.5663   -1063.7279     142906.7   -48931.163    3743.0417   -52674.205   0.27947466 
   15400    280.21526   -938.67388    142789.69   -48949.913    3848.0818   -52797.994    0.2675368 
   15600    274.17246   -928.27264    142765.17   -48986.803    3765.0985   -52751.901    0.2905996 
   15800    276.24769    -1020.892     142829.4   -48940.282    3793.5967   -52733.879   0.27813132 
   16000    273.94411   -1022.9556    142910.16   -48925.312    3761.9627   -52687.275   0.27648416 
   16200    273.17795   -1034.8295    142860.08   -48875.954    3751.4414   -52627.395   0.29120999 
   16400    278.83898   -972.96284    142767.64   -48875.279    3829.1819   -52704.461    0.2875714 
   16600    275.89772   -955.88039    142778.41    -48891.29    3788.7908   -52680.081   0.28558616 
   16800     277.5173   -1030.4918    142885.43   -48845.042    3811.0319   -52656.073   0.28655193 
   17000    279.95254     -1005.57    142911.36    -48866.14     3844.474   -52710.614   0.28442516 
   17200    276.76978    -1001.789    142792.62   -48849.618    3800.7664   -52650.384    0.2861612 
   17400    280.50511   -935.73628    142696.01   -48895.235    3852.0621   -52747.297    0.2949529 
   17600      273.956   -1015.2255    142785.54   -48931.298     3762.126   -52693.424   0.29386138 
   17800    273.43737   -1067.4184    142920.48   -48946.797    3755.0038   -52701.801   0.26831306 
   18000    277.12799   -1001.9747    142878.83   -48980.188    3805.6855   -52785.873   0.27436849 
   18200     268.8269   -961.99776    142724.45   -49006.298    3691.6901   -52697.988   0.28587821 
   18400    273.52809    -958.9002    142688.07   -49028.754    3756.2496   -52785.003   0.28395731 
   18600    275.86442   -1017.7974    142836.44   -48985.915    3788.3335   -52774.249   0.28621897 
   18800    278.32287    -1049.763    142943.48   -48922.066    3822.0943   -52744.161   0.27576411 
   19000    275.76855   -1027.7835     142840.1   -48950.978     3787.017   -52737.995   0.27849301 
   19200    276.68162   -893.57313    142640.23   -48928.442    3799.5558   -52727.998   0.28135992 
   19400    278.62248   -945.34122    142688.29   -48919.349    3826.2088   -52745.558   0.29083276 
   19600    274.31514   -1062.2093     142930.8   -48942.751    3767.0579   -52709.809   0.28907215 
   19800     276.3059   -1137.1155     142986.6   -48939.255    3794.3961   -52733.651   0.27789999 
   20000    279.72846   -994.12419    142751.12   -48933.199    3841.3968   -52774.596   0.28910896 
   20200    273.80802    -882.3537    142579.52   -48961.213    3760.0938   -52721.306   0.29574129 
   20400    278.47062   -952.03116    142736.55   -48939.127    3824.1233    -52763.25   0.28020749 
   20600    279.36704   -1122.6071    142990.48   -48931.918    3836.4336   -52768.351   0.27366843 
   20800    274.04918   -1046.3926    142955.93   -48932.511    3763.4056   -52695.917   0.27615827 
   21000    273.27921    -902.8917    142657.74   -48931.987    3752.8318   -52684.818   0.29155219 
   21200    279.97234   -875.08922    142585.96   -48924.995     3844.746   -52769.741   0.28871203 
   21400    273.63874   -1042.1654    142903.64   -48915.124    3757.7692   -52672.893   0.28097663 
   21600    280.20947   -1139.6404    143146.24   -48869.318    3848.0023   -52717.321   0.26743656 
   21800    283.07122   -1020.5124    142995.14   -48825.413    3887.3015   -52712.715   0.26162473 
   22000    275.36529   -903.75984    142697.45   -48835.179    3781.4791   -52616.658   0.30142056 
   22200    278.65915   -895.77189     142705.6   -48796.471    3826.7123   -52623.183   0.29120676 
   22400    280.06147   -1083.8553    143060.54   -48768.842    3845.9699   -52614.812   0.28225995 
   22600     277.2301   -1179.5655     143230.7   -48772.091    3807.0878   -52579.179   0.27838037 
   22800    280.36852   -1002.1698       142913   -48811.383    3850.1865   -52661.569   0.27497663 
   23000     281.8811   -775.78601    142538.76   -48835.456    3870.9581   -52706.414   0.30132266 
   23200     278.3609    -899.0642    142713.65   -48827.423    3822.6167    -52650.04   0.29835857 
   23400    283.19142   -1169.5187    143193.79   -48828.946    3888.9522   -52717.898   0.27234122 
   23600     278.3975   -1168.0753    143187.63   -48844.039    3823.1193   -52667.158   0.28280103 
   23800    277.94012   -908.43687    142644.76   -48792.753    3816.8382   -52609.591   0.29579728 
   24000    280.45737   -766.09178    142412.07   -48832.667    3851.4066   -52684.073   0.30624935 
   24200    279.30854   -1012.6057    142856.61   -48810.455    3835.6301   -52646.085   0.28375327 
   24400    278.34521    -1239.681    143248.11    -48807.96    3822.4012   -52630.362   0.27705003 
   24600    280.17315   -1043.1434    142932.49   -48811.985    3847.5036   -52659.489   0.28010275 
   24800    281.17722   -780.68004    142432.34   -48744.561    3861.2921   -52605.853   0.30530313 
   25000    282.18605   -862.11256    142566.25   -48742.873    3875.1458   -52618.019   0.31453776 
   25200    276.78182   -1165.4186    143138.25   -48756.268    3800.9318     -52557.2   0.26945899 
   25400    282.85597   -1220.0279    143237.37   -48813.136    3884.3456   -52697.482   0.27574206 
   25600    281.07445   -893.62264    142687.83   -48842.368    3859.8808   -52702.249   0.29273319 
   25800    280.56235   -730.10154    142374.57   -48825.176    3852.8482   -52678.024   0.28328706 
   26000    280.80834   -954.02296    142780.36    -48799.16    3856.2263   -52655.386   0.30112432 
   26200    278.57087   -1220.1791    143259.87   -48836.154    3825.5001   -52661.654   0.26910802 
   26400    280.35454   -1096.8962    143049.29   -48861.639    3849.9945   -52711.633   0.26768312 
   26600    275.98874   -811.00775    142517.01   -48878.364    3790.0408   -52668.404   0.30327041 
   26800     278.2342   -819.87145    142532.72    -48884.72    3820.8767   -52705.597   0.29673169 
   27000      280.128    -1107.468    143056.53   -48878.521    3846.8835   -52725.405   0.27563004 
   27200     279.3881   -1189.5168     143213.1   -48868.909    3836.7228   -52705.632   0.25922459 
   27400    283.03388   -956.95134     142787.6   -48842.082    3886.7888   -52728.871   0.28428277 
   27600    280.83275   -793.43565    142489.32   -48851.479    3856.5615   -52708.041   0.29619579 
   27800    275.45867    -927.9028    142753.86   -48844.049    3782.7615   -52626.811    0.2831284 
   28000    282.21147   -1149.8736    143166.73   -48826.193     3875.495   -52701.688   0.27486372 
   28200    279.13225   -1107.9928    143094.03   -48844.204    3833.2092   -52677.413   0.26476902 
   28400    277.36665   -899.74238    142691.35     -48846.3    3808.9631   -52655.263   0.29790724 
   28600    279.50588   -852.86473    142590.94   -48868.384    3838.3402   -52706.724   0.28459997 
   28800    279.67011   -1040.0109    142887.84   -48875.952    3840.5955   -52716.548   0.27643177 
   29000    276.99986   -1111.0003    143087.34   -48907.534     3803.926    -52711.46   0.27892989 
   29200    277.05804   -1036.1249    142904.49   -48945.269     3804.725   -52749.994   0.26616053 
   29400    276.43856   -940.20362    142612.63   -48949.976    3796.2179   -52746.194   0.29865979 
   29600    277.01624    -911.2372    142630.87   -48911.804     3804.151   -52715.955   0.29136403 
   29800    280.38067   -1042.6418    142945.17   -48833.253    3850.3533   -52683.607   0.27219165 
   30000    275.81433     -1149.22    143066.84   -48820.982    3787.6456   -52608.627   0.28583361 
   30200     277.6682   -984.41525    142839.22   -48833.948     3813.104   -52647.052   0.27854091 
   30400    276.60692   -856.48799    142667.26   -48885.945    3798.5299   -52684.475    0.2961014 
   30600    275.89778   -928.98562     142758.1   -48833.693    3788.7916   -52622.484   0.26963782 
   30800     279.5155   -1022.7809     142936.7   -48800.139    3838.4723   -52638.611   0.28407239 
   31000    273.57761   -1039.7201     142986.6   -48786.245    3756.9297   -52543.175   0.28271016 
   31200    280.20056   -960.75743    142854.47   -48791.473    3847.8799   -52639.353   0.27085184 
   31400    281.70404   -911.29063    142809.12    -48790.89    3868.5266   -52659.416    0.2987179 
   31600    282.99146   -999.61243    142917.43   -48849.088    3886.2062   -52735.295   0.26132716 
   31800    277.69236   -1030.5395    142978.34   -48820.029    3813.4359   -52633.465   0.27571027 
   32000    280.63788   -969.71172    142908.34   -48792.675    3853.8855   -52646.561   0.28554353 
   32200    279.60771   -968.82565    142797.12   -48827.409    3839.7385   -52667.148   0.28036438 
   32400    277.47635   -942.25971    142786.69   -48822.123    3810.4695   -52632.593    0.2993688 
   32600    281.13367   -992.37839    142898.48   -48806.534     3860.694   -52667.228   0.27368148 
   32800    281.31451   -1079.0988    142962.98   -48802.498    3863.1774   -52665.676   0.28286995 
   33000    277.70381   -1009.8304    142871.37   -48793.055    3813.5931   -52606.648   0.28035989 
   33200     284.6443   -930.79572    142789.76   -48788.672    3908.9039   -52697.576   0.27674012 
   33400    285.70562   -992.06906    142827.75   -48750.303    3923.4787   -52673.781   0.29366496 
   33600    290.65296   -984.72666    142891.67   -48685.167    3991.4184   -52676.586   0.27608354 
   33800    284.55048   -1017.2396    142928.38   -48717.802    3907.6156   -52625.417   0.29228468 
   34000    278.95947   -996.30023     142893.5   -48738.192    3830.8365   -52569.028   0.27518038 
   34200    284.40984   -970.87489    142802.24   -48769.369    3905.6842   -52675.053   0.27828017 
   34400    283.32005   -966.14046    142756.02   -48832.863    3890.7186   -52723.582   0.29107186 
   34600    277.60336   -972.70246    142828.83   -48805.949    3812.2136   -52618.163    0.2617655 
   34800    277.88074   -1078.5276    142939.71   -48844.457    3816.0229    -52660.48   0.29223518 
   35000    278.85409   -1010.8237    142859.84   -48869.309    3829.3894   -52698.698   0.27995963 
   35200    275.08964   -993.24339    142682.43   -48859.917    3777.6937    -52637.61   0.28802147 
   35400    281.65775      -962.25    142680.51   -48823.308    3867.8909   -52691.198   0.30581535 
   35600    281.21511   -1047.2326       142857   -48814.956    3861.8124   -52676.768    0.2791639 
   35800    281.58712   -1088.8338    142980.82   -48813.098     3866.921   -52680.019   0.28216989 
   36000    278.06607   -1045.3382    142857.54   -48815.303    3818.5678   -52633.871   0.28671376 
   36200    284.34443   -874.35445    142619.29   -48833.418     3904.786   -52738.204   0.30976059 
   36400    281.50208   -914.10999    142662.26    -48858.99    3865.7531   -52724.743   0.29077805 
   36600    284.24469   -1050.4718    142964.53   -48830.507    3903.4163   -52733.923   0.26579615 
   36800    274.52548   -1138.1891    143089.06   -48869.827    3769.9464   -52639.774   0.29030464 
   37000     280.2806   -941.97266    142754.96    -48864.94    3848.9791   -52713.919   0.27421124 
   37200    280.01126   -788.59654    142448.32   -48832.199    3845.2804    -52677.48   0.30663108 
   37400    280.69788   -921.07551    142773.83   -48821.169    3854.7095   -52675.879   0.29053209 
   37600    275.64657   -1278.1671    143350.68   -48837.986    3785.3419   -52623.328   0.25558699 
   37800    279.25404   -1175.6225    143203.99   -48806.092    3834.8818   -52640.974   0.27036893 
   38000    278.85962   -783.74497    142423.37   -48869.643    3829.4653   -52699.108   0.29216926 
   38200    278.87925   -696.62404    142206.11   -48867.606     3829.735   -52697.341   0.32104954 
   38400    283.78697   -1041.8539    142978.83   -48825.303    3897.1307   -52722.433   0.27538854 
   38600    282.61413    -1376.038    143584.38   -48810.209    3881.0245   -52691.233   0.24510266 
   38800     275.9948   -1124.3065    143029.51   -48867.938    3790.1239   -52658.062   0.29155283 
   39000    282.92039   -649.15989    142189.74   -48906.813    3885.2302   -52792.043   0.29446336 
   39200    275.64046   -776.72695    142366.27   -48925.069    3785.2579   -52710.327   0.31418923 
   39400     274.7711   -1200.9585    143205.64   -48903.049    3773.3194   -52676.368   0.26191455 
   39600    279.53731   -1316.6168     143358.9   -48967.956    3838.7718   -52806.728   0.26108626 
   39800    271.89337   -956.50176    142617.13   -48968.525    3733.8007   -52702.325   0.29779344 
   40000    276.08559   -652.70649    142172.31   -48985.792    3791.3708   -52777.163   0.29811305 
   40200    277.34346   -920.54069    142675.35   -48958.283    3808.6445   -52766.928   0.30379135 
   40400     273.8603   -1247.6265    143328.79   -48941.172    3760.8118   -52701.984   0.25408307 
   40600    272.85139   -1167.3294    143165.88   -48969.178    3746.9568   -52716.135     0.263912 
   40800    272.28174   -845.59009    142513.87   -48996.262    3739.1341   -52735.397   0.31036962 
   41000    278.26516   -753.99522    142358.39   -48958.314    3821.3019   -52779.616   0.29301239 
   41200    275.06978   -1048.4094    142852.57   -48983.682     3777.421   -52761.103   0.27499592 
   41400    273.64433   -1183.3489    143146.61   -48943.176     3757.846   -52701.022   0.27201412 
   41600    275.25235   -1056.4784    142848.25   -48943.017    3779.9282   -52722.945   0.29410469 
   41800    276.69454   -860.34361    142473.56   -48948.084    3799.7332   -52747.817    0.2945357 
   42000    277.04061   -891.65295    142565.31   -48921.086    3804.4857   -52725.572   0.30655607 
   42200    278.83371   -1078.4841    142999.14   -48940.633    3829.1096   -52769.743   0.28569979 
   42400    273.59495    -1144.214    143115.98   -48987.234    3757.1678   -52744.402   0.26021374 
   42600    276.40349   -942.91538    142741.05   -49018.376    3795.7363   -52814.113   0.29859961 
   42800    274.94047   -825.44771    142452.47   -49023.847    3775.6453   -52799.492   0.30037049 
   43000    279.31856   -917.20167    142663.66   -48978.865    3835.7678   -52814.633    0.2768401 
   43200    276.90616   -1121.7159     143064.4   -48976.852    3802.6392   -52779.492   0.27731184 
   43400     276.0228   -1150.6905    143050.71   -48967.417    3790.5085   -52757.926   0.26653262 
   43600    280.52698    -913.1508     142644.1   -48970.153    3852.3626   -52822.515   0.30705165 
   43800    276.95784   -850.12281    142475.02   -48946.404     3803.349   -52749.753   0.29670621 
   44000    277.34934   -987.61159    142776.63    -48960.14    3808.7253   -52768.865   0.28068422 
   44200    273.62119   -1138.7264     143037.6   -48996.867    3757.5282   -52754.395   0.27815738 
   44400    277.04864   -1058.3635    142862.96   -48974.583    3804.5959   -52779.179   0.27942523 
   44600    280.88672   -837.50071    142553.27   -48918.427    3857.3027    -52775.73   0.29954548 
   44800    281.69092   -926.90952     142628.9   -48884.971    3868.3465   -52753.318   0.29017927 
   45000    275.74144   -1112.2249    142957.18   -48914.616    3786.6447   -52701.261   0.28249036 
   45200     278.7731   -1106.5148    142995.13   -48932.096    3828.2773   -52760.373   0.27104349 
   45400    277.10169   -994.49638    142659.73    -48984.33    3805.3244   -52789.655   0.29234014 
   45600    276.38225   -832.85417    142441.24   -48975.904    3795.4446   -52771.349   0.32713384 
   45800    274.03284   -976.94234    142682.22   -48947.421    3763.1811   -52710.602   0.27491706 
   46000    274.26128   -1147.0664    143003.83   -48937.972    3766.3182    -52704.29   0.28096018 
   46200    273.35177   -1076.5666    142916.87    -48969.93    3753.8283   -52723.758    0.3026295 
   46400    276.89864   -894.54273    142569.88   -48959.194    3802.5361    -52761.73   0.28578545 
   46600    274.94986   -862.51693    142532.96   -48957.166    3775.7742    -52732.94   0.29963378 
   46800    280.26924   -1060.0988     142886.4   -48917.465    3848.8231   -52766.288   0.29058962 
   47000    275.35734   -1170.8506    143098.15   -48893.368      3781.37   -52674.738   0.27817438 
   47200     279.9109   -1015.6556    142877.08   -48867.295    3843.9022   -52711.198   0.28257054 
   47400    278.86381   -852.08442    142592.76    -48805.35    3829.5229   -52634.873   0.30806128 
   47600    279.72887   -940.70096    142733.38   -48778.917    3841.4025   -52620.319   0.30290133 
   47800    282.29686   -1141.0005    143086.45   -48743.673    3876.6675   -52620.341    0.2594375 
   48000    284.79297   -1112.9606    143116.03    -48745.48    3910.9457   -52656.426   0.28449693 
   48200    286.08629   -959.40039    142771.84   -48751.455    3928.7062   -52680.161   0.29335246 
   48400    287.61378   -848.35567    142567.15   -48735.686    3949.6827   -52685.369   0.28979014 
   48600    281.34924     -1002.51    142843.31     -48794.4    3863.6544   -52658.054   0.29836486 
   48800    284.26285   -1124.7632    143151.43   -48733.169    3903.6657   -52636.835   0.26781317 
   49000    285.82929   -1082.8687    143022.43    -48714.72     3925.177   -52639.897   0.28408226 
   49200    285.07591   -871.86037    142656.94    -48752.75    3914.8312   -52667.581   0.30126552 
   49400    282.03362   -882.27313    142584.76   -48763.801    3873.0526   -52636.853   0.30499563 
   49600    279.08745   -1078.3538    142951.19   -48774.664    3832.5941   -52607.258   0.29019863 
   49800    284.00707   -1149.5845    143207.73   -48750.558    3900.1532   -52650.712   0.25982483 
   50000    280.81429   -1035.6382    142935.36   -48754.087    3856.3081   -52610.395   0.29498867 
   50200    277.31499   -810.81425    142495.18   -48796.258    3808.2536   -52604.512   0.30307541 
   50400    282.88786   -846.17316    142583.41   -48800.709    3884.7835   -52685.492    0.2944496 
   50600    276.71741   -1138.0968    143151.46   -48812.091    3800.0473   -52612.139   0.27414944 
   50800    281.98566   -1246.0487    143334.87   -48819.821    3872.3939   -52692.215    0.2555316 
   51000    279.46741   -940.80237    142769.49   -48766.516     3837.812   -52604.328   0.30627548 
   51200    279.74163   -728.32251    142299.42    -48802.79    3841.5777   -52644.368   0.29724064 
   51400    279.06388   -903.20388    142669.88   -48763.864    3832.2703   -52596.134   0.29772735 
   51600    281.07116   -1291.0755    143344.63   -48753.251    3859.8356   -52613.087   0.28222475 
   51800    279.42256   -1233.7953    143214.45   -48749.689    3837.1959   -52586.885   0.26360727 
   52000      281.417   -777.43566    142450.49   -48722.804    3864.5849   -52587.389   0.31892158 
   52200    284.95482   -700.55874     142315.6   -48699.472    3913.1683   -52612.641   0.30354867 
   52400    289.19998   -1091.1907    143087.13   -48671.419    3971.4652   -52642.884   0.26608256 
   52600    284.29255   -1318.5258    143554.28   -48698.452    3904.0735   -52602.526   0.26133788 
   52800    281.54639   -1026.7356    142977.39   -48725.137    3866.3617   -52591.499   0.29268047 
   53000    282.32998   -713.41433    142319.62   -48740.463    3877.1224   -52617.586   0.32635989 
   53200    281.16536   -857.98781    142587.59   -48747.818    3861.1292   -52608.947   0.28308103 
   53400    280.10239    -1216.074    143260.27   -48765.594    3846.5319   -52612.126   0.28038863 
   53600    278.84082   -1190.6403    143280.82   -48789.331    3829.2072   -52618.538   0.26177645 
   53800     281.5654   -919.72447    142669.72   -48777.114    3866.6228   -52643.737   0.28516302 
   54000     280.4143   -772.81055    142417.22   -48772.037    3850.8151   -52622.852   0.32697007 
   54200    284.28467   -976.93804    142863.16   -48775.346    3903.9654   -52679.311   0.27725046 
   54400    280.87716   -1204.1419    143262.63   -48794.503    3857.1714   -52651.674   0.26274921 
   54600    279.38194   -1087.3191    143019.19   -48792.789    3836.6381   -52629.427   0.27270592 
   54800    280.36165   -833.26696     142607.2    -48744.29    3850.0921   -52594.382   0.29960038 
   55000    281.35626    -886.1636    142683.17   -48747.158    3863.7507   -52610.909   0.29183884 
   55200    273.97661   -1102.4102    143051.99   -48770.386     3762.409   -52532.795   0.27050307 
   55400    278.69307   -1098.3636    143110.99   -48791.476    3827.1783   -52618.654   0.28970632 
   55600    281.13066   -960.74762    142802.51   -48832.326    3860.6526   -52692.978   0.27712596 
   55800    277.36925   -880.42753    142629.19   -48809.342    3808.9987   -52618.341   0.29239531 
   56000    277.91689    -991.7139    142830.43    -48792.21    3816.5193   -52608.729   0.29226364 
   56200    274.78719   -1104.9943     143025.8   -48820.869    3773.5404    -52594.41   0.26522029 
   56400    278.70941   -999.19979    142900.68   -48825.322    3827.4025   -52652.725    0.2888708 
   56600    279.60638   -962.98087    142711.65   -48832.019    3839.7203   -52671.739   0.28247219 
   56800    284.71672   -953.98931    142754.48    -48785.23    3909.8985   -52695.128    0.2921468 
   57000    279.42634   -1101.8953    142945.72   -48788.134    3837.2478   -52625.382   0.28240357 
   57200    282.53917   -1089.4896    142976.11   -48815.977    3879.9951   -52695.972   0.25965325 
   57400    280.04377   -978.36242    142769.75   -48836.895    3845.7268   -52682.621     0.307324 
   57600    280.97473   -907.73569    142633.69   -48829.019    3858.5113    -52687.53   0.28793923 
   57800    276.01406   -980.70048    142745.69   -48838.542    3790.3884    -52628.93   0.28884739 
   58000    280.88695   -1106.1915    142909.97   -48849.446    3857.3058   -52706.752   0.28193388 
   58200    276.32241   -1099.8969    142848.88   -48887.199    3794.6229   -52681.821   0.28870415 
   58400    276.31675   -914.40701     142636.9    -48882.47    3794.5451   -52677.015   0.29849577 
   58600    275.54502   -943.58362    142701.96    -48861.69    3783.9473   -52645.637   0.27768775 
   58800    274.78898   -1074.1178    142991.97   -48888.702    3773.5649   -52662.267   0.29448241 
   59000    275.84164   -1133.3563    143003.03   -48911.361    3788.0207   -52699.382   0.26930177 
   59200    279.69114   -919.49241     142685.6   -48915.749    3840.8842   -52756.633   0.27584607 
   59400    277.27121   -871.17801    142535.09   -48862.535    3807.6524   -52670.187   0.32020103 
   59600    280.91296   -1004.8804    142825.46    -48856.78     3857.663   -52714.443   0.27281218 
   59800    276.78662    -1151.005    143122.08   -48837.589    3800.9977   -52638.586   0.26923827 
   60000    278.52758   -1109.1301    142987.75   -48827.019    3824.9056   -52651.924   0.28637564 
   60200    285.17095   -864.80275    142669.69   -48807.241    3916.1363   -52723.378   0.28571836 
   60400    279.69889   -949.79153    142763.52   -48777.175    3840.9908   -52618.166   0.29004811 
   60600    283.68378   -1066.8234    143087.31   -48811.034    3895.7136   -52706.748    0.2667457 
   60800    277.72994   -1099.2086       143114   -48751.798    3813.9519    -52565.75   0.27856651 
   61000    287.03951   -937.50619     142836.2   -48795.513    3941.7965   -52737.309   0.26653618 
   61200    280.31943   -927.43962    142656.59   -48802.413    3849.5123   -52651.926   0.29780425 
   61400    282.16741   -963.67663    142837.16   -48797.636    3874.8899   -52672.525   0.28580554 
   61600    274.73909   -1099.4146     143073.3   -48784.861    3772.8798   -52557.741   0.26619625 
   61800    276.95084   -1022.8354    142949.72    -48785.91    3803.2529   -52589.163   0.28608605 
   62000    278.15276     -895.929    142671.34   -48813.827    3819.7584   -52633.586   0.29319866 
   62200    280.65358   -959.64325    142709.21   -48825.424    3854.1011   -52679.526   0.29123442 
   62400    284.22205   -1026.2312    143010.46   -48783.214    3903.1054    -52686.32   0.27708816 
   62600    277.63805   -1138.7583     143088.9   -48800.569      3812.69   -52613.259   0.26549028 
   62800     283.7938   -908.59418    142770.04   -48782.282    3897.2245   -52679.507   0.28229233 
   63000    285.29126   -828.23237    142614.32   -48753.999    3917.7884   -52671.788   0.29136686 
   63200    285.83414   -985.54818    142886.29   -48754.597    3925.2436   -52679.841   0.27273949 
   63400    281.58698   -1164.3554    143195.33   -48707.528    3866.9191   -52574.447   0.26944799 
   63600     284.6562   -1065.5695    143062.58   -48690.941    3909.0674   -52600.008   0.27078483 
   63800    282.37038   -846.66832    142669.49   -48723.183    3877.6772   -52600.861   0.28731836 
   64000    284.30266   -860.19167    142625.48   -48717.119    3904.2124   -52621.331   0.29225257 
   64200    286.07146   -1072.0883    143007.09    -48714.26    3928.5027   -52642.763   0.28267949 
   64400    283.80596    -1163.475    143208.31   -48696.755    3897.3914   -52594.147   0.26491367 
   64600    279.08259   -1015.0112    142881.42   -48754.421    3832.5273   -52586.948   0.27834636 
   64800     279.5511   -818.68648    142516.53   -48770.877    3838.9611   -52609.838   0.30240346 
   65000    279.53097   -939.41895    142715.51   -48758.228    3838.6847   -52596.913   0.27953212 
   65200    281.02527   -1141.1461     143182.2   -48777.383    3859.2054   -52636.588   0.26755343 
   65400    281.27785   -1130.2742    143185.44   -48801.207    3862.6739   -52663.881   0.26609948 
   65600    282.50904   -897.96458     142679.3     -48831.5    3879.5813   -52711.081   0.28081964 
   65800    275.51871   -795.33398       142423   -48811.821    3783.5859   -52595.407   0.30584955 
   66000    281.95649   -989.20837    142866.53   -48804.575    3871.9934   -52676.568   0.27360278 
   66200    279.58946   -1270.1773    143295.28   -48821.035     3839.488   -52660.523   0.26444218 
   66400    279.62901   -1106.1104    142965.72   -48820.627    3840.0311   -52660.658   0.27029764 
   66600    276.81398   -784.21318     142366.9   -48840.472    3801.3735   -52641.845   0.31248478 
   66800    279.38178   -817.71028    142438.03   -48823.743    3836.6359   -52660.379   0.30761851 
   67000     284.1417   -1162.1445    143154.85   -48842.973     3902.002   -52744.975   0.26195257 
   67200    275.17438   -1310.0489    143407.94   -48856.001    3778.8574   -52634.859   0.26243085 
   67400    279.47902   -961.99846    142716.44   -48899.638    3837.9713   -52737.609   0.27548705 
   67600    280.68899   -582.08884    142130.14   -48865.032    3854.5873   -52719.619   0.31144575 
   67800    278.42771   -881.39788    142642.38   -48809.627    3823.5341   -52633.161      0.29424 
   68000    280.01004   -1291.4947    143457.27   -48792.094    3845.2636   -52637.358   0.25476214 
   68200    279.52291   -1231.5775    143314.14   -48863.473     3838.574   -52702.047   0.26009553 
   68400    279.42687   -846.89262    142493.81   -48821.774    3837.2551   -52659.029   0.29775069 
   68600    281.94116   -713.92888    142325.83   -48811.692    3871.7829   -52683.475   0.30441188 
   68800     284.9182   -1076.3964    142979.32   -48773.502    3912.6653   -52686.167    0.2755647 
   69000     276.8072   -1267.5273    143365.48    -48809.03    3801.2803    -52610.31   0.26319874 
   69200    281.49038   -1088.0493     142959.5    -48820.76    3865.5925   -52686.352   0.27559433 
   69400    278.94092   -827.24221    142470.38   -48865.386    3830.5818   -52695.967    0.2994025 
   69600    278.82304    -844.4053    142578.26   -48876.939     3828.963   -52705.902   0.29951257 
   69800    278.99343   -1098.2953    142992.02   -48838.749    3831.3029   -52670.052   0.26658249 
   70000    277.46167   -1096.7399     143076.2   -48798.226    3810.2679   -52608.494   0.27831345 
   70200    278.80083   -991.51184    142820.51   -48785.071     3828.658   -52613.729   0.29987745 
   70400    279.31011   -919.74369    142636.75    -48801.75    3835.6518   -52637.402   0.27880468 
   70600    280.07969   -990.41667    142783.44   -48773.238    3846.2201   -52619.458   0.29373637 
   70800    272.29702   -1137.8491    143036.26     -48791.9    3739.3439   -52531.244   0.28787166 
   71000    278.27697   -1061.7604    142963.48   -48835.983    3821.4641   -52657.447   0.26689624 
   71200    280.72179   -917.20745     142663.7   -48848.456    3855.0378   -52703.494   0.29288112 
   71400    281.66037   -895.07613    142607.13   -48818.357    3867.9269   -52686.284   0.30158226 
   71600    276.84572    -1016.703    142879.47   -48792.824    3801.8093   -52594.634   0.27095365 
   71800     280.8137   -1140.4976       143023   -48809.623       3856.3   -52665.923    0.2817384 
   72000     275.7174    -1020.936    142841.65   -48836.002    3786.3146   -52622.316   0.29565052 
   72200    277.59467   -892.61829    142630.28   -48872.311    3812.0943   -52684.405   0.28060954 
   72400    279.57864    -950.9725    142712.64   -48854.705    3839.3394   -52694.045   0.28607845 
   72600    278.06317   -1063.9509    142964.25   -48818.932     3818.528    -52637.46   0.29599621 
   72800    281.01693   -1065.5263     142965.3   -48891.197    3859.0908   -52750.288   0.26516939 
   73000    279.60583   -950.50333    142719.73    -48893.01    3839.7128   -52732.723   0.29520253 
   73200    276.79766   -916.98152    142613.93   -48907.931    3801.1493    -52709.08   0.29983412 
   73400    278.55927   -980.14946    142758.36    -48899.65    3825.3408   -52724.991   0.28066053 
   73600    278.81139   -1048.2387     142890.7   -48881.868    3828.8031   -52710.671   0.28385504 
   73800    278.10921   -993.56984    142845.69   -48877.442    3819.1603   -52696.602    0.2808014 
   74000    274.19589   -910.79902     142695.7   -48924.603    3765.4202   -52690.023   0.28293846 
   74200    274.55996    -982.1828     142681.9   -48922.444    3770.4199   -52692.864   0.29191449 
   74400    280.45549   -1032.5215    142845.68   -48884.052    3851.3808   -52735.432   0.27523721 
   74600    280.08756   -1068.4639    142955.86   -48904.381    3846.3281   -52750.709   0.27283579 
   74800    274.28935   -1064.2611    142845.24   -48915.985    3766.7037   -52682.689   0.28476957 
   75000    277.81307   -931.97713    142696.71    -48884.19    3815.0936   -52699.283   0.28885388 
   75200     277.0871   -948.01781    142769.02   -48870.707     3805.124   -52675.831   0.26584294 
   75400    278.37861   -1033.9683    142989.33   -48856.137    3822.8599   -52678.997   0.27608631 
   75600    281.52357   -1078.7788    143025.56   -48836.386    3866.0483   -52702.434    0.2717241 
   75800    275.69422   -937.41356    142760.09   -48817.257    3785.9962   -52603.253    0.2736356 
   76000    279.99766   -876.86789    142633.44   -48806.446    3845.0936   -52651.539   0.30778908 
   76200    279.09065   -991.02505    142870.23   -48827.917     3832.638   -52660.555   0.27993245 
   76400    279.80968   -1121.1726    143125.11   -48793.667    3842.5121   -52636.179   0.25419969 
   76600    278.92313   -1054.7818    142988.71   -48782.579    3830.3376   -52612.916   0.28496949 
   76800    285.26768   -846.81667    142655.75   -48787.796    3917.4646   -52705.261   0.28276929 
   77000    284.41704   -867.57555    142692.23   -48791.067    3905.7831    -52696.85   0.27352255 
   77200    281.21931   -1104.0923    143094.73     -48829.4      3861.87    -52691.27   0.27071058 
   77400    280.29524   -1163.7305    143149.91   -48817.707    3849.1801   -52666.887    0.2816672 
   77600     278.9299   -899.49868     142685.1   -48839.294    3830.4305   -52669.725   0.27103025 
   77800    283.54677   -782.48403    142464.99   -48855.547    3893.8321   -52749.379   0.29174947 
   78000    281.83679   -1021.3499    142886.75   -48850.648    3870.3496   -52720.998   0.28782548 
   78200    278.71044    -1222.363    143281.16   -48837.424    3827.4167    -52664.84   0.24512859 
   78400    280.13473   -1109.0204       143001   -48860.597    3846.9759   -52707.573   0.27878382 
   78600     284.6225    -799.7019    142443.86   -48885.813    3908.6046   -52794.418   0.29228164 
   78800    279.16838   -824.64222    142497.84   -48873.836    3833.7055   -52707.542   0.28108355 
   79000    276.67737   -1125.3383    143108.48   -48848.108    3799.4974   -52647.605   0.26770927 
   79200    278.71482   -1252.6497    143310.93   -48853.504    3827.4769   -52680.981    0.2589741 
   79400    278.52733   -973.05911    142773.97   -48817.374    3824.9022   -52642.276   0.28793729 
   79600    276.67677   -755.94989    142351.55   -48812.408    3799.4892   -52611.897   0.29669518 
   79800    280.26138   -981.69009    142706.26   -48834.176    3848.7151   -52682.891   0.29214348 
   80000    276.35169   -1249.0043     143269.1   -48796.573     3795.025   -52591.598    0.2645625 
   80200    282.43183    -1148.271    143183.04   -48763.777    3878.5211   -52642.298   0.25996271 
   80400    279.54208   -839.56992    142582.84   -48742.049    3838.8372   -52580.886    0.3030292 
   80600     283.5899   -762.78137     142419.6   -48764.653    3894.4244   -52659.077   0.29302468 
   80800     286.6218   -1045.7304    142993.42   -48704.752    3936.0602   -52640.813   0.28341593 
   81000    282.67728   -1269.0185    143418.72   -48747.297    3881.8917   -52629.189   0.25654697 
   81200    283.44645   -1112.6931    143017.55     -48733.7    3892.4544   -52626.154   0.26439975 
   81400    279.97284   -754.38238    142426.72   -48719.071    3844.7528   -52563.824   0.31023157 
   81600    288.77938   -823.38374    142580.82   -48740.237    3965.6894   -52705.926   0.28264017 
   81800    279.09681   -1208.5503    143219.55   -48733.355    3832.7225   -52566.078   0.27063052 
   82000    287.07365   -1188.0105    143305.32   -48697.421    3942.2653   -52639.686   0.25874955 
   82200    279.28795   -920.64086    142789.23   -48747.504    3835.3474   -52582.851   0.27558049 
   82400    280.65114   -797.02059    142480.83   -48754.671    3854.0675   -52608.739   0.29239948 
   82600     280.2365   -954.54751     142783.4   -48793.323    3848.3735   -52641.696   0.27782191 
   82800    278.79831   -1138.7067    143145.93   -48826.455    3828.6234   -52655.079   0.27259508 
   83000    275.16408   -1119.9019     143046.7   -48812.027     3778.716   -52590.743   0.26629719 
   83200    275.97208   -891.61179     142712.7   -48836.864     3789.812   -52626.676   0.28155827 
   83400    276.78623   -885.54873    142646.35    -48857.44    3800.9923   -52658.432   0.28926984 
   83600    274.43994   -1026.2088    142871.35   -48870.398    3768.7717    -52639.17   0.26818217 
   83800    281.25582   -1075.3287     143007.1   -48820.621    3862.3713   -52682.992   0.27819089 
   84000    282.51317   -1005.0289    142914.93   -48851.544     3879.638   -52731.182   0.26624136 
   84200    275.15523   -960.84628     142803.3   -48841.176    3778.5945    -52619.77   0.27375018 
   84400    276.27673   -938.21982    142871.92   -48844.511    3793.9956   -52638.507   0.28072728 
   84600     281.6981   -1058.6812    142956.27   -48841.258     3868.445   -52709.703   0.27025013 
   84800    279.48143    -1027.298    142931.63   -48851.729    3838.0044   -52689.734   0.27642362 
   85000    274.18394   -981.71699    142843.49   -48816.695    3765.2562   -52581.951   0.27120681 
   85200    284.12419   -971.05811    142838.57   -48789.294    3901.7615   -52691.056   0.27130051 
   85400    279.13862   -984.53771    142916.38   -48775.334    3833.2967   -52608.631   0.27515462 
   85600    279.59804   -1015.0417     142977.9   -48771.871    3839.6057   -52611.477   0.26208196 
   85800    279.36711   -1030.5164    142921.87   -48786.332    3836.4345   -52622.766   0.28041696 
   86000    282.46904    -907.8579    142845.98   -48743.463    3879.0321   -52622.495   0.27070008 
   86200    280.71035   -1005.1488    142911.07   -48753.987    3854.8807   -52608.868   0.27353186 
   86400    276.38481   -1042.8151    142968.69   -48746.366    3795.4798   -52541.845   0.27633161 
   86600    279.85886   -1006.2062    142938.52    -48746.32    3843.1875   -52589.508   0.26578644 
   86800    279.51129   -999.22629    142911.12   -48776.066    3838.4145    -52614.48   0.27673484 
   87000    282.09376    -996.0205    142893.09   -48797.496    3873.8785   -52671.374   0.26431094 
   87200    286.94349   -985.06499    142884.52   -48768.289    3940.4779   -52708.767   0.27785104 
   87400    282.82868    -1009.913    142880.55   -48733.077    3883.9708   -52617.048   0.27812274 
   87600    276.06889   -1037.4615    142894.61   -48796.275    3791.1414   -52587.416   0.27932989 
   87800    280.41861   -993.87769    142857.44   -48803.026    3850.8743   -52653.901   0.28163035 
   88000    283.41068    -969.4621    142809.56     -48756.8    3891.9632   -52648.763   0.26783408 
   88200    277.71263   -979.19281    142832.75   -48766.357    3813.7143   -52580.071   0.28940106 
   88400    279.19137   -1024.5282    142873.96   -48751.416    3834.0211   -52585.437   0.27082013 
   88600    282.64496   -1026.9677    142908.16   -48764.398    3881.4479   -52645.846    0.2735385 
   88800    280.02602    -985.3013    142872.71   -48754.824    3845.4831   -52600.307   0.28322798 
   89000    278.38254   -969.82379    142862.01   -48776.502    3822.9138   -52599.415   0.27259896 
   89200    281.96314   -1009.0449     142934.4   -48751.114    3872.0847   -52623.199   0.27534632 
   89400    285.03777   -1048.8891    142981.26   -48724.883    3914.3073    -52639.19   0.27229255 
   89600    284.09917   -1014.9575    142943.59   -48746.745    3901.4179   -52648.163   0.27005203 
   89800    279.54217   -1035.0492    142872.48   -48781.971    3838.8385   -52620.809   0.27553895 
   90000    282.87063   -939.19348    142824.46   -48798.416    3884.5469   -52682.962   0.27662093 
   90200    280.80946   -996.74105    142876.82   -48841.811    3856.2417   -52698.052   0.27136073 
   90400     280.7043   -1036.0901    142904.96   -48860.879    3854.7976   -52715.676   0.26393753 
   90600    276.45568   -1016.0069    142848.94   -48853.441     3796.453   -52649.894   0.28490784 
   90800    279.88442   -959.73505    142802.21   -48878.081    3843.5386   -52721.619   0.26934702 
   91000    275.60191   -1007.0125     142820.6   -48877.811    3784.7286    -52662.54   0.27925819 
   91200    278.69621   -1017.6375    142860.93   -48890.291    3827.2213   -52717.512   0.28347893 
   91400    274.12898   -990.30367    142854.58   -48880.613    3764.5014   -52645.114   0.27652691 
   91600    274.51692    -1022.002    142797.74   -48885.588    3769.8288   -52655.417   0.27894116 
   91800    282.17155   -956.74768     142783.2   -48863.639    3874.9468   -52738.585   0.27264863 
   92000     278.3628   -996.41869    142883.85   -48877.162    3822.6427   -52699.805   0.27371088 
   92200    283.53768   -1036.2228    142949.66   -48898.369    3893.7073   -52792.077   0.26362164 
   92400    280.86763   -1013.3179    142851.51   -48880.864    3857.0405   -52737.904   0.26726063 
   92600     282.5936   -920.65964    142717.24   -48936.451    3880.7425   -52817.193   0.27912569 
   92800    278.40823   -994.50935    142762.82   -48907.265    3823.2666   -52730.532   0.27391647 
   93000    278.96072   -1068.7826    142940.25   -48834.996    3830.8537    -52665.85   0.27305394 
   93200    279.77233   -1072.5897     142952.9   -48832.635    3841.9992   -52674.634   0.27152549 
   93400    280.93785     -927.376    142718.69   -48838.253    3858.0049   -52696.257   0.27369933 
   93600    280.67812   -877.26322    142618.23   -48823.379    3854.4381   -52677.817   0.28955333 
   93800    276.10099   -1021.1699    142870.44   -48810.899    3791.5822   -52602.481   0.27291186 
   94000     279.3415   -1127.0351    143113.54    -48806.92    3836.0828   -52643.003   0.26416021 
   94200    282.08917   -1069.0604    142905.58    -48889.38    3873.8154   -52763.196   0.27087987 
   94400    281.03768   -808.86111    142527.77   -48879.807    3859.3758   -52739.183   0.27755519 
   94600    281.39366   -878.31562    142592.97   -48877.627    3864.2643   -52741.892    0.2918517 
   94800    280.49081    -1131.293    143039.71    -48920.33    3851.8658   -52772.196   0.26784941 
   95000    273.70817   -1182.7756    143139.05   -48923.598    3758.7226    -52682.32   0.26401174 
   95200    274.31109   -949.44183    142697.28   -48936.722    3767.0023   -52703.724     0.278507 
   95400     276.1897   -757.90951    142388.72   -48953.066    3792.8005   -52745.867   0.29380551 
   95600    277.36774   -938.68783    142697.57   -48912.706     3808.978   -52721.684   0.27546202 
   95800    274.45177   -1167.8527    143170.97   -48869.821    3768.9342   -52638.755   0.26072259 
   96000    275.93901   -1151.8479    143112.67   -48862.621    3789.3578   -52651.979    0.2728898 
   96200    276.61541   -866.57427    142613.47   -48909.793    3798.6466    -52708.44   0.28113386 
   96400    277.36201   -800.49226    142418.25   -48907.155    3808.8992   -52716.055   0.28986771 
   96600    276.74304   -985.90994    142826.18   -48914.018    3800.3992   -52714.417   0.28031156 
   96800    275.82165    -1182.756    143231.72    -48956.96    3787.7461   -52744.706   0.25197732 
   97000     276.0864   -1104.2584       142973   -48945.222    3791.3819   -52736.604   0.26450317 
   97200    275.63879    -803.7667    142470.83    -48939.47     3785.235   -52724.705   0.29147854 
   97400    277.77251   -836.60018    142544.09   -48896.482    3814.5365   -52711.018   0.27999656 
   97600    279.90063   -1112.8183    143105.21   -48861.714    3843.7612   -52705.475   0.26145055 
   97800    279.43959   -1220.6437    143264.14   -48852.601    3837.4298   -52690.031   0.26124274 
   98000    277.75298   -973.12456    142771.39   -48833.241    3814.2683    -52647.51   0.27854363 
   98200     280.5986   -759.40102    142402.21   -48849.471    3853.3461   -52702.817   0.29132692 
   98400    281.38573   -940.99464    142767.64   -48777.799    3864.1554   -52641.954   0.27610186 
   98600    275.60613   -1248.4811     143277.6   -48814.041    3784.7865   -52598.828    0.2609892 
   98800    281.52497   -1131.4545    143088.03   -48779.243    3866.0676    -52645.31   0.25957222 
   99000    279.75584    -836.2954    142550.83   -48789.936    3841.7728   -52631.708   0.29225075 
   99200     278.4601   -837.89636    142487.81   -48854.018    3823.9789   -52677.997    0.2881764 
   99400    274.68051   -1075.4264    142933.86   -48935.714    3772.0753    -52707.79   0.26790717 
   99600    273.31462   -1213.4222    143101.34   -48953.747    3753.3181   -52707.065   0.26522124 
   99800    273.94788   -1007.3396    142726.51   -48931.856    3762.0144    -52693.87   0.27197768 
  100000    274.50798    -820.8008    142459.44   -48936.737     3769.706   -52706.443   0.28790497 
  100200    278.31831   -948.37049    142725.56   -48893.083    3822.0318   -52715.115   0.27967271 
  100400    276.68029   -1162.7425    143084.58    -48884.89    3799.5375   -52684.428   0.26424047 
  100600    280.52088   -1104.6876     143003.8   -48836.462    3852.2788   -52688.741   0.26533836 
  100800    281.56129   -945.13513    142670.49   -48869.682    3866.5663   -52736.249    0.2818944 
  101000    280.21481   -900.27784    142616.18   -48854.437    3848.0756   -52702.513   0.27942273 
  101200    276.56972    -1018.317       142911   -48829.982     3798.019   -52628.001   0.26919686 
  101400    281.38879   -1112.1024    143088.14   -48834.357    3864.1974   -52698.554   0.26650797 
  101600    278.07684   -1017.0904    142915.72   -48852.571    3818.7157   -52671.287   0.26978426 
  101800    286.62051   -918.46961    142701.95   -48824.612    3936.0425   -52760.655   0.27021686 
  102000    279.06387   -954.68243    142784.99   -48824.984    3832.2703   -52657.254   0.27642677 
  102200     282.1134   -1067.5559    143032.95   -48814.144    3874.1482   -52688.293   0.25685873 
  102400    280.23477   -1015.7379    143091.18   -48758.082    3848.3498   -52606.432   0.25848859 
  102600    279.73331   -949.01642    142956.34   -48772.849    3841.4634   -52614.312   0.27175704 
  102800    280.80229   -997.20269    142825.78   -48786.636    3856.1433    -52642.78   0.27150214 
  103000     283.2984   -974.89299     142809.4   -48780.767    3890.4213   -52671.188   0.27482992 
  103200    279.86614   -1057.4064    142924.05   -48760.227    3843.2874   -52603.514   0.27822676 
  103400    280.07543   -1038.0881    142992.69   -48785.773    3846.1616   -52631.935   0.26531606 
  103600    280.87324   -1029.8481     142880.9   -48790.754    3857.1175   -52647.871   0.27225982 
  103800    281.42615   -958.22708    142771.04   -48796.815    3864.7105   -52661.525   0.28136975 
  104000    279.02019   -980.98811     142843.9   -48803.782    3831.6704   -52635.452     0.272469 
  104200    277.48333   -1039.7286    142963.18   -48814.518    3810.5654   -52625.083   0.26304128 
  104400    283.18835    -1031.762    142950.83   -48831.944    3888.9101   -52720.854   0.27425111 
  104600    280.96581   -952.98888    142834.56    -48830.33    3858.3888   -52688.719   0.27568432 
  104800    280.37956   -984.38203    142793.67   -48820.661     3850.338   -52670.999   0.28444127 
  105000     274.1176   -1057.9009    142893.49   -48846.183    3764.3451   -52610.528   0.28280802 
  105200    285.96914   -994.08149    142938.35   -48845.989    3927.0975   -52773.086   0.26285757 
  105400    276.23369   -996.67531    142861.03   -48839.671    3793.4045   -52633.075   0.27081621 
  105600    283.27879   -972.94235     142811.6   -48838.863     3890.152   -52729.015   0.27455204 
  105800    279.68812   -977.90732    142886.93   -48854.641    3840.8428   -52695.484   0.27862894 
  106000    281.41548    -1039.211    142955.58    -48835.25     3864.564   -52699.814   0.26416999 
  106200    278.67774   -998.97856    142939.02   -48813.334    3826.9676   -52640.301    0.2700465 
  106400    281.98685   -1009.2044    142868.37   -48826.259    3872.4103   -52698.669   0.26968649 
  106600    278.43469   -968.37029    142816.68   -48828.518    3823.6299   -52652.148   0.27505167 
  106800    280.19227   -967.26559    142847.33   -48822.216     3847.766   -52669.983   0.28221984 
  107000    278.34158   -1006.5342    142959.06   -48778.801    3822.3513   -52601.152   0.27145245 
  107200     281.1941   -1047.7904       143001   -48766.752    3861.5238   -52628.276   0.26929893 
  107400    284.19054   -942.21183    142875.69   -48774.228    3902.6726     -52676.9    0.2645473 
  107600    283.49103   -957.07871    142788.75   -48754.311    3893.0666   -52647.378   0.27183061 
  107800    280.43078   -991.56751    142886.06   -48773.974    3851.0414   -52625.016   0.27679689 
  108000    280.34136   -1089.4472    143029.88   -48748.176    3849.8135    -52597.99   0.27294611 
  108200    279.51835   -1046.0474    142940.57   -48780.163    3838.5114   -52618.675   0.27667387 
  108400    277.75287    -887.1675    142682.07   -48780.598    3814.2669   -52594.864   0.28151822 
  108600    282.81087   -877.26119    142706.74   -48753.754    3883.7263    -52637.48   0.27626653 
  108800    285.94296   -1088.3336     143047.4   -48769.667    3926.7379   -52696.405   0.26900885 
  109000    281.14207   -1141.7213    143153.43   -48803.593    3860.8093   -52664.402   0.25953407 
  109200    280.11185   -961.62371     142789.4   -48810.607    3846.6618   -52657.269   0.27977166 
  109400    277.33926   -838.22301    142531.23   -48800.129    3808.5869   -52608.716   0.28932039 
  109600    278.04261   -942.04789    142872.72   -48759.237    3818.2458   -52577.482   0.26874814 
  109800    281.33105   -1237.8015    143316.16   -48801.817    3863.4045   -52665.221    0.2653091 
  110000    281.68348   -1117.8797     143104.3    -48746.55    3868.2443   -52614.794   0.26903259 
  110200    284.51962   -762.71778    142548.29   -48741.575    3907.1918   -52648.767   0.29373314 
  110400    279.68243   -816.10911    142550.83   -48791.082    3840.7647   -52631.846   0.29484156 
  110600    281.77959   -1117.3124    143070.19   -48854.333    3869.5641   -52723.897   0.27019526 
  110800    280.06203   -1205.4699     143237.9   -48846.361    3845.9775   -52692.339   0.25405414 
  111000    280.18849   -921.15112    142762.66   -48855.019    3847.7142   -52702.733   0.27003286 
  111200    282.26614   -788.35653    142410.11   -48849.163    3876.2457   -52725.409   0.30304407 
  111400    279.54618    -957.1177    142753.11   -48896.431    3838.8936   -52735.325   0.27832024 
  111600     273.1328   -1197.1676    143237.86   -48939.483    3750.8212   -52690.304   0.27046049 
  111800    273.42441   -1186.3404    143060.59   -48972.946    3754.8258   -52727.772   0.27257056 
  112000    277.02206   -839.70597    142466.16   -48973.792    3804.2308   -52778.023   0.28699362 
  112200    276.25703   -812.90187    142376.76   -48935.867    3793.7251   -52729.592   0.29786314 
  112400    275.48472    -1038.401    142914.17   -48898.016    3783.1193   -52681.135   0.27308161 
  112600    282.33006   -1212.8569    143241.24   -48868.048    3877.1235   -52745.172   0.25856497 
  112800     276.1173   -1071.1268    142867.66   -48888.137    3791.8063   -52679.943   0.27809106 
  113000    278.26912    -757.1946    142415.99   -48874.403    3821.3562   -52695.759    0.2937319 
  113200    280.89155   -913.26126    142616.94   -48906.832     3857.369   -52764.201   0.28825687 
  113400    277.65415   -1142.7228    143111.57   -48880.383    3812.9112   -52693.294   0.26173282 
  113600    278.09439   -1201.4807     143132.9    -48883.45    3818.9567   -52702.406   0.27317726 
  113800    280.03732   -910.20274    142672.62   -48873.849    3845.6383   -52719.487   0.28319203 
  114000    284.72398   -769.13242     142458.4   -48863.884    3909.9982   -52773.883    0.2839423 
  114200    279.32714   -988.98246    142836.38   -48871.209    3835.8856   -52707.095   0.27631454 
  114400    283.01163   -1187.5684    143240.39   -48809.361    3886.4832   -52695.844   0.26170065 
  114600    278.10534   -1082.3216    143074.57   -48785.648    3819.1071   -52604.756   0.27655796 
  114800    283.12163   -851.76924    142623.75   -48778.796    3887.9939    -52666.79   0.28169461 
  115000    282.86767   -844.27917     142603.3   -48807.317    3884.5063   -52691.823   0.28687398 
  115200    279.70093   -1082.4602    143021.92   -48815.442    3841.0187   -52656.461   0.27734391 
  115400    277.22643   -1154.5587    143192.73    -48824.02    3807.0374   -52631.058   0.26523301 
  115600    281.76934    -995.9449    142861.43   -48812.296    3869.4234   -52681.719   0.28713359 
  115800    276.12795   -855.71877    142585.98   -48831.101    3791.9524   -52623.053   0.29151309 
  116000    282.29117   -985.13975     142803.1    -48815.29    3876.5894   -52691.879   0.27131656 
  116200    279.59108   -1159.5688    143122.53   -48827.412    3839.5102   -52666.922   0.26722077 
  116400    276.69656   -1108.1303    143005.75   -48867.867    3799.7609   -52667.628   0.27186335 
  116600    276.68602    -895.3055    142632.54   -48885.247    3799.6162   -52684.863   0.29035751 
  116800    277.60505   -872.51874    142593.78   -48843.508    3812.2369   -52655.745    0.2869335 
  117000     283.0201   -1012.6054    142900.03   -48846.379    3886.5996   -52732.979   0.28121122 
  117200    284.92567   -1101.2017    143035.56   -48834.608    3912.7679   -52747.376    0.2607799 
  117400    271.43905   -1033.4556    142802.76   -48861.045    3727.5617   -52588.607   0.28413809 
  117600    278.60956   -845.10683    142532.59   -48845.158    3826.0314   -52671.189   0.29439012 
  117800    279.99866   -950.83201    142679.06   -48806.206    3845.1073   -52651.314   0.28147671 
  118000    283.02709    -1075.398    143036.53   -48792.842    3886.6956   -52679.538   0.27974378 
  118200    280.05674      -1150.8    143036.76   -48824.048    3845.9049   -52669.953   0.26947891 
  118400    274.81285    -974.7802    142686.39   -48877.142    3773.8927   -52651.034   0.28706982 
  118600    280.28791   -874.03538    142507.28   -48905.566    3849.0794   -52754.645   0.29630299 
  118800    276.84111   -1004.2591    142733.35   -48949.386     3801.746   -52751.132   0.27308121 
  119000    273.73923   -1116.9453    142950.62   -48945.098    3759.1492   -52704.247   0.27573972 
  119200    273.10592   -1090.4608    142850.47   -48948.482    3750.4521   -52698.934    0.2749564 
  119400    275.10393   -904.93004    142620.03   -48976.949    3777.8901   -52754.839   0.28120216 
  119600    274.28981    -887.4695    142656.89   -48919.827    3766.7101   -52686.537   0.28172554 
  119800    274.16958   -1072.8094    142939.99   -48912.817    3765.0589   -52677.876     0.262243 
  120000     275.4948   -1129.6761    142999.46   -48928.929    3783.2576   -52712.187   0.27119901 
  120200    272.70168   -1008.0441    142758.69   -48906.184    3744.9009   -52651.085   0.27967732 
  120400    279.10638   -898.59263    142600.81   -48953.894     3832.854   -52786.748   0.28479074 
  120600    270.79559   -1009.9959    142775.23   -48944.546    3718.7254   -52663.271   0.28131671 
  120800    277.17899   -1107.9215    142971.69   -48933.403    3806.3859   -52739.789   0.26198446 
  121000    279.65551    -1049.153    142887.69   -48920.073     3840.395   -52760.468   0.27200534 
  121200    273.97875   -928.45613    142670.23   -48922.133    3762.4383   -52684.572   0.27806027 
  121400    277.25599    -972.3964    142667.16   -48922.111    3807.4434   -52729.555   0.28737365 
  121600    276.26741    -1069.339    142869.46   -48910.301    3793.8676   -52704.169   0.27667616 
  121800    274.28882   -1084.6123    143000.59   -48905.829    3766.6965   -52672.526   0.26865469 
  122000     283.0615   -1006.7056    142910.33   -48886.451    3887.1681   -52773.619   0.27568176 
  122200    278.04108    -901.2846     142756.8   -48858.079    3818.2247   -52676.303   0.27244065 
  122400    282.24132   -947.84184    142800.13   -48813.366    3875.9048   -52689.271   0.27791865 
  122600     285.1495   -1043.6581    142989.17    -48735.87    3915.8417   -52651.711   0.26733018 
  122800    276.20988   -1094.3313     143076.1   -48734.208    3793.0776   -52527.285    0.2724287 
  123000    281.43903   -1006.6563    142931.64    -48781.96    3864.8873   -52646.847   0.27654669 
  123200    278.73093   -909.41868    142756.12   -48806.258    3827.6981   -52633.956   0.27642448 
  123400    277.42568   -947.26007    142786.11   -48886.045    3809.7736   -52695.819   0.28537731 
  123600    282.50121   -1021.2259    142969.66   -48834.064    3879.4738   -52713.538   0.26390322 
  123800    275.83785   -1081.8027    143056.11   -48853.044    3787.9686   -52641.013   0.26595863 
  124000    279.59355   -994.64833    142920.88   -48838.846    3839.5442    -52678.39    0.2641764 
  124200    277.67584    -912.7671    142761.62   -48826.642     3813.209   -52639.851   0.27219227 
  124400    283.75323   -917.02892    142807.99   -48839.776    3896.6673   -52736.443   0.27776963 
  124600    280.07612   -1066.3226     143001.4   -48854.416     3846.171   -52700.587   0.26682926 
  124800    279.46198   -1089.1638    143022.54   -48858.584    3837.7373   -52696.321   0.26678384 
  125000    278.64626   -925.88112    142778.58   -48869.692    3826.5354   -52696.227   0.27798878 
  125200    280.38224     -894.626    142627.94   -48863.625    3850.3749       -52714   0.27717632 
  125400    276.90955   -1040.5567    142812.76   -48926.531    3802.6859   -52729.217   0.28017817 
  125600    280.00575   -1140.1411    143040.19   -48917.309    3845.2047   -52762.514   0.25878437 
  125800    276.06053    -1047.515    142929.46   -48909.044    3791.0266   -52700.071   0.27316994 
  126000    278.84751   -906.89384    142704.55   -48881.871     3829.299    -52711.17   0.28252568 
  126200    281.26263   -916.10383    142744.12   -48863.528    3862.4649   -52725.993    0.2684097 
  126400    279.64441   -1075.1289    142989.89   -48886.999    3840.2426   -52727.241    0.2745079 
  126600    277.99808   -1093.0184    143014.24   -48909.754    3817.6341   -52727.388   0.25598975 
  126800    274.98162   -953.99986    142724.53   -48885.884    3776.2104   -52662.094   0.28775655 
  127000    274.89333   -872.81167    142583.22   -48904.044     3774.998   -52679.042   0.29664215 
  127200     278.1773   -1025.5462    142840.51   -48933.889    3820.0953   -52753.984   0.27561568 
  127400    273.22021   -1148.6674    143081.47   -48926.672    3752.0216   -52678.694   0.26359134 
  127600    275.30524   -1031.0224    142879.44   -48925.168    3780.6546   -52705.822   0.27132251 
  127800    272.47883   -882.72475     142514.1   -48918.814    3741.8406   -52660.654   0.30066499 
  128000    277.90116   -872.41348     142535.8    -48917.23    3816.3032   -52733.533   0.28764576 
  128200    275.88189   -1151.4353    142955.55   -48876.777    3788.5735    -52665.35   0.27917613 
  128400    277.52415   -1184.6764     143098.5   -48899.104    3811.1259    -52710.23   0.27531174 
  128600    277.48461   -920.00033    142694.87    -48934.32     3810.583   -52744.903   0.27013118 
  128800    276.81591    -813.6728    142370.29   -48973.741    3801.3999   -52775.141   0.30744786 
  129000    276.23145   -932.01129    142633.49   -49002.926    3793.3737     -52796.3   0.28551685 
  129200    275.27529   -1132.5694    143092.56   -48954.035    3780.2432   -52734.278   0.25945897 
  129400    279.66819   -1138.0706    143067.08   -48953.764    3840.5691   -52794.333   0.26704715 
  129600     277.1352   -888.05707    142559.92   -48960.935    3805.7845    -52766.72   0.28370332 
  129800    274.98528   -754.37664     142344.5   -48975.449    3776.2606    -52751.71   0.29823557 
  130000    272.82884   -1022.5187    142786.96   -48979.591    3746.6471   -52726.239   0.28124251 
  130200    271.59206   -1268.2916    143199.63   -48990.354    3729.6629   -52720.017   0.26513811 
  130400    271.84818   -1065.6592    142915.22     -48978.5    3733.1801    -52711.68   0.27226262 
  130600    275.62035    -744.8672    142369.31   -48944.455    3784.9818   -52729.437   0.29071391 
  130800    275.87981   -829.21299     142454.7   -48966.206    3788.5449   -52754.751   0.29461649 
  131000    273.01801   -1197.2801    143064.46   -48975.457    3749.2449   -52724.702   0.25866978 
  131200    276.29395   -1228.3149    143216.65   -48946.058    3794.2321    -52740.29   0.26439876 
  131400      271.785    -931.7919    142661.16   -48954.835    3732.3124   -52687.148   0.28905331 
  131600    271.86528   -743.19354    142269.54   -48952.684    3733.4149   -52686.099   0.29677618 
  131800    275.77302   -964.12985    142681.57   -48921.016    3787.0783   -52708.095   0.28343916 
  132000    282.24578   -1232.0845    143268.43   -48857.896    3875.9661   -52733.862   0.25285952 
  132200    277.31016   -1187.0446    143176.37   -48865.725    3808.1872   -52673.913   0.27000763 
  132400    279.31276   -892.81036    142583.99    -48878.54    3835.6881   -52714.228   0.28275828 
  132600    281.47437   -784.72763    142421.31   -48859.525    3865.3727   -52724.898   0.29606205 
  132800    280.88779   -1054.4332    142949.99   -48824.134    3857.3174   -52681.451   0.27749681 
  133000    278.77703   -1258.1393    143347.46   -48811.277    3828.3313   -52639.609   0.24751232 
  133200    281.38531   -1087.2261     142993.7   -48766.549    3864.1496   -52630.699   0.27614168 
  133400    277.79884    -775.8819    142450.93   -48760.073    3814.8981   -52574.971   0.30012388 
  133600    281.69121   -840.29148    142553.29   -48771.956    3868.3504   -52640.306   0.29073195 
  133800    284.27987   -1122.2014    143105.13   -48784.076    3903.8994   -52687.976   0.27302976 
  134000      281.436   -1181.6996    143242.05   -48732.802    3864.8457   -52597.648   0.25808205 
  134200    283.70512   -997.79462     142836.9   -48751.883    3896.0067   -52647.889   0.27953537 
  134400    283.66385   -818.60012    142562.98   -48754.687    3895.4399   -52650.127   0.28543619 
  134600    274.94088   -980.16794     142833.5   -48767.089    3775.6509    -52542.74   0.28830984 
  134800    282.36842   -1157.5745    143156.67   -48803.931    3877.6503   -52681.581   0.26301086 
  135000     278.8199   -1100.5655    143001.75   -48859.662    3828.9199   -52688.582   0.26307719 
  135200    277.02103   -900.97323    142636.88   -48874.683    3804.2167   -52678.899    0.2869903 
  135400    279.20623   -904.05505    142604.75   -48896.115    3834.2253    -52730.34   0.28727414 
  135600    276.18279   -1067.8812    142880.56   -48857.335    3792.7055    -52650.04    0.2831727 
  135800    276.58047   -1100.9493    143006.58   -48923.434    3798.1667   -52721.601   0.27488969 
  136000    275.48219   -1022.0385    142821.33   -48956.888    3783.0845   -52739.972   0.26372037 
  136200     271.3536   -856.38009    142631.28   -48970.157    3726.3883   -52696.545   0.28425495 
  136400    277.94817   -960.21702    142735.83   -48925.186    3816.9488   -52742.135   0.27726723 
  136600    273.19506   -1047.2339     142961.6   -48867.498    3751.6762   -52619.174   0.26815633 
  136800    279.79237   -1068.2429    143004.89   -48876.408    3842.2744   -52718.682   0.27123011 
  137000    273.89447   -1020.2394     142822.4   -48882.835     3761.281   -52644.116   0.27841053 
  137200    278.64397   -902.16856    142666.67   -48916.667     3826.504   -52743.171   0.28500736 
  137400    279.84671   -954.30462    142735.81   -48875.131    3843.0207   -52718.151   0.27618103 
  137600    277.90302   -1056.0363    142928.86   -48864.566    3816.3288   -52680.895    0.2760699 
  137800     281.7777      -1055.9    142926.73   -48838.729    3869.5382   -52708.267   0.27846541 
  138000     278.4562   -937.75344    142756.53   -48838.328    3823.9253   -52662.253   0.27493339 
  138200    278.39011    -916.2236    142703.75   -48888.227    3823.0178   -52711.245   0.28750877 
  138400    278.98629   -1023.6704    142853.32   -48872.357    3831.2048   -52703.562   0.26960772 
  138600    276.79701   -1082.8817    142983.62   -48882.903    3801.1404   -52684.043   0.27489096 
  138800    281.94474   -1026.0786    142923.99    -48837.05     3871.832   -52708.882    0.2800166 
  139000    281.27463   -989.61781    142832.94   -48826.864    3862.6298   -52689.494   0.27372233 
  139200    280.17865   -995.98623    142839.08    -48828.34    3847.5791   -52675.919   0.28994664 
  139400    282.31226   -954.12801    142883.22   -48853.041     3876.879    -52729.92   0.27017768 
  139600    277.74054   -1020.6934    142898.64   -48835.535    3814.0974   -52649.633   0.27117197 
  139800    281.66183   -944.24438    142869.93   -48798.334    3867.9469   -52666.281    0.2747787 
  140000    282.83946   -1031.1136    142855.87   -48767.537    3884.1189   -52651.656   0.29095964 
  140200     277.9785   -984.70576    142818.07   -48807.527    3817.3652   -52624.892   0.28765239 
  140400    279.72022   -968.37256    142815.57   -48831.355    3841.2836   -52672.639   0.27543043 
  140600    281.08765    -979.6741    142871.71   -48829.737     3860.062   -52689.799   0.27976618 
  140800    283.47908    -988.2287     142869.7   -48822.935    3892.9025   -52715.837   0.26487547 
  141000    273.43416   -1008.1193    142840.92   -48857.641    3754.9597   -52612.601   0.28916619 
  141200    284.48187   -904.57122    142805.95   -48811.299    3906.6735   -52717.973   0.29569542 
  141400    285.69974   -976.21682    142834.18   -48816.296     3923.398   -52739.694   0.26513316 
  141600    282.46782   -1059.8147    142915.46   -48798.491    3879.0153   -52677.506   0.28851367 
  141800    279.70086   -1035.6192    142887.15   -48848.894    3841.0178   -52689.912   0.27217477 
  142000    281.42669   -941.39596    142770.86   -48867.631    3864.7178   -52732.349   0.26865582 
  142200    276.82161   -1014.1644    142788.41   -48863.465    3801.4782   -52664.943   0.28830943 
  142400    275.46219   -1002.3927    142872.05   -48864.258    3782.8099   -52647.068   0.27392364 
  142600    281.45934   -1026.5163    142879.76   -48856.109    3865.1663   -52721.275   0.28452663 
  142800    277.92332   -1024.9568    142819.84   -48861.263    3816.6076   -52677.871   0.28473224 
  143000    274.66071   -1022.6376    142793.53   -48921.165    3771.8035   -52692.968   0.27923217 
  143200    274.52205   -989.35406    142831.49   -48890.535    3769.8993   -52660.434   0.27748772 
  143400     279.3489   -1028.2626    142889.94   -48855.712    3836.1844   -52691.896   0.26727554 
  143600    280.91837    -988.7821    142881.44   -48845.947    3857.7373   -52703.685   0.27998466 
  143800     277.9926   -936.37938     142831.8   -48859.183    3817.5589   -52676.742   0.26538299 
  144000    280.79022   -1000.0444    142815.45   -48849.599    3855.9775   -52705.577   0.28423724 
  144200    282.65479   -1007.1656     142861.4   -48823.175    3881.5829   -52704.758   0.27416121 
  144400    278.11091   -1041.6848    142928.05   -48824.592    3819.1836   -52643.775   0.26890482 
  144600     281.6629   -993.92007    142893.29   -48799.715    3867.9617   -52667.677   0.29035443 
  144800    280.73862   -954.91031    142840.42   -48771.254    3855.2689   -52626.523    0.2773118 
  145000    283.65721   -931.84594     142856.2   -48813.939    3895.3487   -52709.288   0.26697293 
  145200    282.69962   -1011.9238    142912.25   -48843.306    3882.1985   -52725.505   0.27569123 
  145400    278.52141   -1030.3386    142910.16   -48847.408    3824.8208   -52672.228   0.26451669 
  145600    281.75535   -993.01845    142823.67   -48865.831    3869.2312   -52735.062   0.28143067 
  145800    280.81361   -980.29179     142754.9   -48881.069    3856.2987   -52737.367   0.27756254 
  146000    280.48698   -928.01097    142793.59   -48868.657    3851.8133    -52720.47   0.28260706 
  146200    279.10219    -1053.919    142902.04   -48897.582    3832.7964   -52730.378   0.25979852 
  146400      281.341   -1036.7864     142888.3   -48852.019    3863.5412    -52715.56   0.26946891 
  146600    279.79696   -959.46043    142786.87   -48818.483    3842.3375    -52660.82   0.28735839 
  146800    283.50302     -989.461    142793.27   -48776.743    3893.2313   -52669.975   0.27342374 
  147000      280.141   -1034.0944    142945.67   -48787.261     3847.062   -52634.323   0.28750665 
  147200    279.62176   -1076.3937    142994.86       -48755    3839.9315   -52594.932   0.27429824 
  147400    278.70172   -959.58284    142824.75   -48819.253     3827.297    -52646.55     0.270505 
  147600    278.16476   -904.92572    142685.66   -48833.543    3819.9231   -52653.466    0.2966857 
  147800     274.5145   -1001.5261    142807.53   -48872.271    3769.7956   -52642.066   0.27716996 
  148000    280.02524   -1049.7399    143004.11   -48835.654    3845.4724   -52681.126   0.28013371 
  148200     279.9928   -1102.3231    142979.77   -48876.565    3845.0268   -52721.592   0.26673245 
  148400    277.27895   -943.50563    142721.59   -48927.313    3807.7587   -52735.072   0.28087675 
  148600    277.16258   -913.65967    142624.67   -48899.993    3806.1606   -52706.154   0.28859538 
  148800    271.95034    -1014.766    142853.34   -48899.885     3734.583   -52634.468   0.27269018 
  149000    275.56314   -1129.7491    143056.58   -48902.374    3784.1962   -52686.571   0.28360429 
  149200    279.99417    -986.1175    142893.96   -48909.874    3845.0457   -52754.919   0.26390608 
  149400    280.27535   -917.47653    142630.66   -48936.182    3848.9071    -52785.09   0.28367081 
  149600    274.01574   -944.58853    142676.36   -48935.327    3762.9463   -52698.273   0.28915118 
  149800    276.38351   -1062.0687    142921.04   -48918.568    3795.4619    -52714.03   0.26038342 
  150000    279.64658   -1068.6883    142996.88   -48878.243    3840.2723   -52718.515   0.26995401 
  150200    276.63383   -963.19617    142821.95   -48828.085    3798.8995   -52626.985    0.2771074 
  150400    277.95363   -913.77348    142696.95   -48802.708    3817.0238   -52619.732   0.29214979 
  150600    279.41426   -952.58408    142839.47    -48850.58     3837.082   -52687.662   0.27442777 
  150800    277.46633     -1095.62    143027.25   -48811.416    3810.3318   -52621.748   0.27097676 
  151000    277.30623   -1031.1592     142948.5   -48849.751    3808.1333   -52657.885   0.28458382 
  151200    279.92779   -907.23874    142692.15   -48842.349    3844.1341   -52686.483   0.27951212 
  151400    282.67787   -916.33376    142700.34   -48759.563    3881.8998   -52641.463   0.29911199 
  151600    283.00233   -1093.9987    142994.66   -48741.811    3886.3554   -52628.167    0.2839816 
  151800    280.17819   -1120.8276    143095.38   -48749.805    3847.5727   -52597.378   0.26754394 
  152000     283.3078   -962.33234    142819.01   -48755.158    3890.5504   -52645.708   0.28532669 
  152200    277.62683   -873.58855    142602.53   -48776.711     3812.536   -52589.247   0.29029543 
  152400    284.44735    -975.7884    142798.94   -48821.608    3906.1994   -52727.808   0.29281948 
  152600    279.96711   -1149.9689    143073.75   -48787.157     3844.674   -52631.831   0.27025831 
  152800    277.47888   -1042.3185    142981.37   -48722.308    3810.5042   -52532.813   0.28090323 
  153000    283.39504   -917.33669     142678.9   -48794.224    3891.7485   -52685.972   0.29406316 
  153200    281.83091   -853.53815    142650.07   -48738.136    3870.2689   -52608.405    0.2774833 
  153400    283.54072   -1058.0131    142967.42   -48784.734     3893.749   -52678.483   0.28376353 
  153600    279.02142   -1118.3128    143089.31    -48808.47    3831.6873   -52640.158   0.26976159 
  153800    281.86972   -958.48568    142796.03   -48841.141    3870.8018   -52711.943   0.27376755 
  154000     276.4744    -881.2199     142544.7   -48858.393    3796.7101   -52655.103   0.29863759 
  154200    278.45124    -961.1569    142756.98   -48803.687    3823.8572   -52627.544   0.27620894 
  154400    279.28078   -1158.4414     143134.6   -48792.449     3835.249   -52627.698   0.27357785 
  154600    275.11321   -1134.6057    143067.31   -48812.523    3778.0174    -52590.54   0.26543657 
  154800    278.74258   -917.70317    142615.32   -48834.375    3827.8581   -52662.234   0.29709402 
  155000    277.06447   -759.05364    142494.48   -48825.866    3804.8133    -52630.68   0.29620951 
[...]
  163200    279.68432   -915.24627    142714.97   -48893.184    3840.7907   -52733.975   0.28068531 
  163400    273.96386   -964.86107    142817.47   -48924.171    3762.2339   -52686.405   0.27786156 
  163600    279.70084   -1030.3704    142930.98   -48874.371    3841.0175   -52715.389    0.2706281 
  163800    279.74534   -1044.3772    142894.21   -48932.355    3841.6286   -52773.984   0.27479415 
  164000    279.31839   -958.20597    142754.03   -48949.729    3835.7654   -52785.494   0.27003545 
  164200    274.63581   -960.22268    142714.24   -48948.015    3771.4615   -52719.476   0.27958013 
  164400    278.04039   -1020.5872    142846.89   -48890.451    3818.2153   -52708.666   0.26933823 
  164600    274.83676   -1062.0071    142930.78   -48869.012     3774.221   -52643.234   0.27632369 
  164800    278.41178   -1026.6792     142810.9   -48907.286    3823.3154   -52730.601    0.2804103 
  165000    277.92046     -947.638    142700.28   -48886.514    3816.5682   -52703.082   0.26980726 
  165200    279.55214   -943.11771    142783.75   -48881.836    3838.9754   -52720.812    0.2824662 
  165400    279.33753   -1041.1033     142931.2   -48907.108    3836.0283   -52743.136   0.26531041 
  165600    280.61918   -1024.3014    142881.91   -48847.244    3853.6286   -52700.873   0.27943543 
  165800    281.83381   -960.93409    142717.64   -48873.089    3870.3087   -52743.398   0.29215147 
  166000    281.85669   -948.59757    142720.53   -48833.957    3870.6229    -52704.58    0.2731922 
  166200    276.33456    -1028.787    142941.94   -48860.163    3794.7897   -52654.952   0.28055583 
  166400    277.23908   -1114.8453     143037.7   -48854.961    3807.2111   -52662.172   0.26180221 
  166600    280.14901   -1001.7815    142821.64   -48853.765     3847.172   -52700.937   0.27894621 
  166800    276.21552    -903.5942    142620.62   -48913.726    3793.1551   -52706.881   0.28999735 
  167000    275.31882   -984.78696    142730.02    -48912.79     3780.841   -52693.631   0.28487991 
  167200     277.4854   -1098.1487    142992.47   -48859.074    3810.5938   -52669.667   0.27417823 
  167400    278.99556   -1075.4179    143019.38   -48902.668    3831.3321       -52734   0.25805307 
  167600    281.57813   -929.85677    142770.87   -48889.218    3866.7975   -52756.015    0.2731351 
  167800    277.01085   -888.31298     142625.7   -48957.895    3804.0769   -52761.972    0.2782334 
  168000    275.53971   -969.78726    142781.53   -48944.996    3783.8744    -52728.87   0.27707334 
  168200    276.24734   -1099.0653    143025.36   -48939.059     3793.592   -52732.651   0.27158877 
  168400     274.8493   -1081.2554    142962.48   -48898.572    3774.3933   -52672.965   0.26411114 
  168600    276.63664   -926.04342    142669.76   -48913.981    3798.9381   -52712.919   0.28647815 
  168800    278.23377   -868.73052     142621.5   -48953.922    3820.8708   -52774.793   0.27086038 
  169000    274.95031    -986.9119    142937.94   -48935.945    3775.7804   -52711.725   0.26176494 
  169200    273.02172    -1154.885    143147.35    -48902.67    3749.2959   -52651.966    0.2726531 
  169400    276.48855   -1031.6907    142885.53   -48931.935    3796.9045    -52728.84   0.27397438 
  169600    281.98692   -774.99923    142502.59    -48948.13    3872.4113   -52820.542   0.28198186 
  169800    279.29208   -895.06731    142640.47   -48951.941    3835.4042   -52787.345   0.27777432 
  170000    273.42147   -1119.9201    143110.09   -48981.849    3754.7855   -52736.635   0.25826908 
  170200    272.57118   -1187.4619    143158.21   -48989.351    3743.1088    -52732.46     0.261917 
  170400    271.39841   -884.76854    142649.37   -48968.218    3727.0036   -52695.221   0.28274674 
  170600    273.29078   -774.81341    142390.69   -48955.439    3752.9907    -52708.43   0.28223871 
  170800    277.49162   -986.86492    142854.65   -48974.219    3810.6792   -52784.899   0.26256166 
  171000    274.90126   -1314.8964    143330.35   -48965.216    3775.1068   -52740.323   0.25865609 
  171200    276.91724   -1099.8539    143036.65   -48995.997    3802.7915   -52798.789   0.26359191 
  171400    276.19326    -742.5608    142426.27   -49000.239    3792.8493   -52793.089   0.28447294 
  171600    277.07356   -781.23911    142458.16   -48967.057    3804.9382   -52771.995   0.29793171 
  171800    269.39013   -1163.7648    143094.89   -48936.284    3699.4247   -52635.709   0.25403388 
  172000    275.61925   -1245.3411    143345.77   -48936.768    3784.9667   -52721.735   0.25240931 
  172200    275.45472   -929.83425    142803.49   -48950.974    3782.7072   -52733.682   0.27546386 
  172400    279.70933   -702.22247    142326.26   -48928.334    3841.1341   -52769.468   0.28491876 
  172600    274.27513   -928.77571    142658.33   -48908.684    3766.5084   -52675.193   0.28563819 
  172800    277.93273   -1249.5065    143219.79   -48905.963    3816.7367     -52722.7   0.26629799 
  173000    274.57106   -1148.7544    143055.63   -48924.622    3770.5723   -52695.194   0.26086719 
  173200    269.15872   -820.65213     142434.6   -48968.698    3696.2469   -52664.945   0.29810814 
  173400    274.20909   -779.95497    142342.86   -48957.342    3765.6015   -52722.943   0.30484055 
  173600    273.72846    -1063.494    142939.73   -48902.867    3759.0013   -52661.868   0.27137217 
  173800    279.72061   -1240.1149    143323.79   -48895.805     3841.289   -52737.094   0.25014354 
  174000    274.98318   -1039.8786    142896.47   -48866.576    3776.2318   -52642.808   0.28033467 
  174200    278.52754   -781.71007     142396.2   -48868.355     3824.905    -52693.26   0.27866593 
  174400    279.80992   -875.59494    142609.18   -48849.124    3842.5154   -52691.639   0.27688044 
  174600    281.12992   -1152.9799    143177.23   -48850.072    3860.6424   -52710.715   0.27832154 
  174800    280.85449   -1179.5058    143219.64   -48811.318    3856.8601   -52668.178   0.26203177 
  175000    275.72819   -917.81281    142720.86   -48862.282    3786.4628   -52648.744   0.29097811 
  175200    280.30442    -828.5028     142482.8   -48863.984    3849.3063   -52713.291   0.30038883 
  175400    273.85855   -1019.5578    142811.16   -48868.919    3760.7877   -52629.707   0.26476047 
  175600    276.65314   -1204.4216    143119.71   -48873.894    3799.1646   -52673.058   0.26627886 
  175800    272.49364   -1056.1291    142918.82   -48860.689     3742.044   -52602.733   0.28594857 
  176000     279.2496    -875.3541    142571.07   -48854.105    3834.8208   -52688.926   0.28070441 
  176200    278.38426   -917.41288    142633.67   -48805.349    3822.9374   -52628.286   0.28412186 
  176400    278.20956   -1081.3056    142995.21   -48837.462    3820.5383   -52658.001   0.28169159 
  176600    282.04823    -1069.565    143043.59   -48816.413    3873.2533   -52689.666   0.26335191 
  176800    282.94619    -959.1823    142781.68   -48828.052    3885.5845   -52713.636    0.2782324 
  177000    277.34404   -913.95016    142643.33   -48845.276    3808.6525   -52653.929   0.30146986 
  177200    275.37745    -1031.871    142818.54   -48856.274    3781.6461    -52637.92   0.27381018 
  177400    278.77483   -1092.4983    142950.25   -48939.082     3828.301   -52767.383   0.26336195 
  177600    277.19503   -1012.4686    142824.34    -48907.84    3806.6062   -52714.447   0.28242322 
  177800    279.98537   -923.09906    142708.32   -48890.576    3844.9248   -52735.501   0.26864211 
  178000    276.90332   -982.05464    142776.35    -48848.84    3802.6003    -52651.44   0.28013199 
  178200    275.56249   -1038.0589    142926.78    -48880.26    3784.1872   -52664.448   0.28072601 
  178400    281.97665   -1010.8296    142921.37   -48857.571    3872.2703   -52729.841   0.26116113 
  178600    271.85203   -969.62815    142765.35   -48875.031     3733.233   -52608.264   0.28855031 
  178800    278.43813    -981.6529    142710.64   -48847.872    3823.6772    -52671.55   0.29417101 
  179000    282.30486   -1004.8555    142856.89   -48820.996    3876.7774   -52697.773   0.26853671 
  179200    278.30319   -1081.8717    142967.72   -48841.955    3821.8241   -52663.779   0.27134989 
  179400    282.98905    -984.0836    142893.47   -48818.166    3886.1731   -52704.339   0.28688243 
  179600    277.70123   -964.74182    142779.83   -48825.033    3813.5577    -52638.59   0.27317589 
  179800    277.71698    -985.9154    142759.78   -48852.801    3813.7739   -52666.575   0.28414324 
  180000    278.65855   -982.11016    142799.59   -48819.875    3826.7042   -52646.579   0.28653203 
  180200    282.75087   -995.71592    142841.89   -48783.042    3882.9023   -52665.945   0.27062811 
  180400    279.18428   -1000.5841    142841.13   -48739.983    3833.9238   -52573.907   0.29767392 
  180600    277.03862   -1011.9186    142804.72    -48823.55    3804.4584   -52628.009   0.29905216 
  180800    283.52879   -969.82393    142764.62   -48789.363    3893.5852   -52682.948   0.26729483 
  181000    278.88933   -1013.4336    142801.82   -48828.488    3829.8734   -52658.362   0.27883686 
  181200    280.81998   -1025.7549    142851.93   -48812.673    3856.3861   -52669.059       0.2814 
  181400    280.01561   -1004.8557     142840.5    -48849.09    3845.3401    -52694.43   0.27131643 
  181600    278.21182   -1009.8761     142753.8   -48870.198    3820.5694   -52690.767   0.28892705 
  181800    279.00062   -914.98012    142732.88   -48844.049    3831.4017   -52675.451   0.29038519 
  182000    284.73895   -1010.4704    142862.21   -48851.548    3910.2038   -52761.752   0.26599221 
  182200    276.72335   -1066.9331    142936.46   -48864.781    3800.1288   -52664.909   0.28873322 
  182400    278.51182   -990.31024     142790.7   -48868.277    3824.6892   -52692.966   0.28883783 
  182600    282.04885   -917.72672    142671.32   -48835.511    3873.2617   -52708.772   0.27404228 
  182800    281.81058   -962.99529     142828.9   -48799.774    3869.9897   -52669.764   0.28187595 
  183000    283.48509   -1103.3843    143071.27   -48797.231     3892.985   -52690.216   0.27758845 
  183200    279.84013   -1048.4112    142988.25    -48781.08    3842.9304   -52624.011   0.26227385 
  183400    281.64713   -910.12108     142700.7   -48793.233    3867.7451   -52660.978   0.28660893 
  183600    280.93278   -862.52255    142662.88   -48823.323    3857.9352   -52681.259   0.29518173 
  183800     277.7436   -1067.0285    142963.87   -48850.971    3814.1396   -52665.111   0.26084662 
  184000    280.84085   -1127.1613    143104.27   -48861.214    3856.6728   -52717.887   0.27933338 
  184200    273.96827   -974.47275    142817.71   -48906.352    3762.2945   -52668.647   0.29013825 
  184400    279.35257   -828.63446    142515.83   -48920.716    3836.2348   -52756.951   0.27582977 
  184600    275.31073   -942.05027    142702.87   -48926.712    3780.7299   -52707.442   0.28600251 
  184800    272.52693   -1204.2557    143116.92   -48907.001    3742.5011   -52649.502   0.27392429 
  185000    279.98945   -1121.5311    143042.22    -48897.83    3844.9808   -52742.811   0.25612624 
  185200    278.18919   -828.96464    142546.45   -48960.686    3820.2586   -52780.945   0.29192429 
  185400    274.27692   -796.83492    142453.81   -48941.905     3766.533   -52708.438   0.30307913 
  185600    275.67609   -1089.4182    142991.56   -48939.293    3785.7472    -52725.04   0.26080192 
  185800    275.27792   -1274.6726    143318.86   -48880.359    3780.2793   -52660.639   0.26250537 
  186000    278.06774   -1004.3854    142831.16   -48874.048    3818.5908   -52692.639   0.28940458 
  186200     277.3843   -693.84787    142249.62   -48873.498    3809.2054   -52682.703   0.28963611 
  186400    281.42495   -851.65025    142549.67   -48823.553     3864.694   -52688.247   0.29397163 
  186600     278.5103   -1269.0518    143358.29   -48842.593    3824.6683   -52667.261   0.26360474 
  186800    278.16893   -1266.3826    143340.75   -48866.128    3819.9804   -52686.109   0.24636605 
  187000    278.35829   -847.71763    142498.83   -48851.811    3822.5809   -52674.392   0.30298506 
  187200    279.24462   -642.26676    142169.84   -48875.264    3834.7524   -52710.016   0.31754458 
  187400    276.07612   -1055.5135     142908.8   -48853.871    3791.2407   -52645.112   0.27257641 
  187600    276.26114   -1388.8496    143582.24   -48879.047    3793.7814   -52672.828   0.25357809 
  187800    280.86665   -1127.2729    143134.76   -48874.765    3857.0271   -52731.792   0.26050684 
  188000     276.7399   -717.81134    142341.73   -48861.547    3800.3561   -52661.903   0.28867127 
  188200    277.79868   -774.79373     142449.5   -48853.983     3814.896   -52668.879   0.29543423 
  188400    277.89373   -1153.5235    143141.03   -48832.164    3816.2012   -52648.365   0.26659329 
  188600    280.26909   -1224.3203    143300.51   -48834.001    3848.8211   -52682.822   0.25023973 
  188800    277.24538   -989.47594     142787.1   -48854.416    3807.2976   -52661.714   0.28429466 
  189000    280.08253   -801.07241    142491.25   -48851.858    3846.2591   -52698.117   0.30394432 
  189200    283.42647   -947.89468    142806.02   -48852.987      3892.18   -52745.167   0.26453244 
  189400    281.18794   -1132.4829     143137.6   -48810.965    3861.4392   -52672.405    0.2696813 
  189600    282.50286   -1089.3604    143019.25   -48826.316    3879.4966   -52705.812   0.27341216 
  189800    278.13325   -931.79047    142717.31   -48867.617    3819.4904   -52687.107   0.26339113 
  190000    273.01376   -923.47298    142676.03   -48898.834    3749.1866    -52648.02    0.2980538 
  190200    283.36252    -1018.844    142910.79   -48872.365    3891.3018   -52763.667   0.26509098 
  190400    276.00335   -1095.1176    143042.37   -48868.421    3790.2414   -52658.662   0.26183112 
  190600    281.31674   -1032.1425    142868.81   -48817.034     3863.208   -52680.242   0.28766811 
  190800    280.06692    -906.6029    142666.43   -48850.762    3846.0447   -52696.807   0.29319106 
  191000    281.86887   -948.23972    142734.85   -48862.939    3870.7901   -52733.729   0.27417676 
  191200    277.71362   -1022.7512    142934.57   -48853.385    3813.7278   -52667.113    0.2762723 
  191400     281.6307   -1089.7448     142942.7   -48876.452    3867.5195   -52743.972   0.27969432 
  191600     272.3047   -965.10011    142755.62   -48835.223    3739.4493   -52574.672     0.273825 
  191800    279.57634   -938.89489    142697.73   -48868.448    3839.3077   -52707.756   0.28981526 
  192000    274.98158    -1001.638    142831.71   -48866.279    3776.2099   -52642.489   0.29024161 
  192200    278.50425   -1036.9587    142965.19   -48835.158    3824.5852   -52659.743   0.25460321 
  192400    275.48758   -1037.7542    142901.71   -48843.354    3783.1585   -52626.512   0.28779108 
  192600    275.42932   -956.47213    142733.33   -48874.016    3782.3584   -52656.374   0.28244534 
  192800    277.21878   -908.53185    142678.92   -48852.205    3806.9324   -52659.137   0.27093776 
  193000    280.14034   -1021.9212    142853.21   -48840.958     3847.053   -52688.011   0.29505789 
  193200    279.09742   -1100.5598     143000.8   -48793.317     3832.731   -52626.048   0.26503079 
  193400    276.99339   -1047.0086    142890.85   -48797.632    3803.8372   -52601.469   0.27026951 
  193600    281.40625    -904.3273    142689.62   -48811.871    3864.4372   -52676.309   0.28636876 
  193800    279.79579   -919.94507    142721.85   -48859.069    3842.3215    -52701.39   0.28015417 
  194000    278.52145    -1085.527    142954.98    -48880.32    3824.8214   -52705.141   0.26222352 
  194200    273.12257   -1097.6065    142996.73   -48864.917    3750.6808   -52615.598   0.28346052 
  194400    278.19674   -973.44333    142749.39   -48850.171    3820.3623   -52670.534   0.28745719 
  194600    281.08108    -893.0562    142603.95   -48876.399    3859.9717   -52736.371   0.27715493 
  194800    275.72336    -987.1298    142826.63   -48859.132    3786.3964   -52645.529   0.29171102 
  195000    278.43248   -1184.3431    143110.36   -48837.547    3823.5996   -52661.147   0.25913057 
  195200    282.78321   -1056.9133    142941.16    -48824.07    3883.3465   -52707.417   0.26136335 
  195400    283.68368   -859.58122    142557.43   -48832.084    3895.7123   -52727.796   0.30775393 
  195600    278.22771    -885.1522    142639.78   -48836.717    3820.7876   -52657.505   0.27476524 
  195800    278.82948   -1162.5432    143154.76   -48873.695    3829.0514   -52702.746   0.26404574 
  196000    280.11624   -1214.4575     143278.7   -48841.972     3846.722   -52688.694   0.27204267 
  196200    280.04197   -949.81912     142763.4   -48837.908    3845.7021    -52683.61   0.27463269 
  196400    282.42365   -718.11591    142440.72   -48843.834    3878.4088   -52722.243   0.29502576 
  196600    277.07943   -997.91825    142899.73   -48902.267    3805.0187   -52707.286   0.26899214 
  196800    277.21902   -1246.4885    143408.89   -48886.461    3806.9356   -52693.397   0.25231891 
  197000    275.47135   -1130.2507    143155.58   -48900.629    3782.9357   -52683.565   0.25480614 
  197200    273.94161   -850.09337    142503.56   -48964.765    3761.9284   -52726.693   0.29434181 
  197400    276.75355   -779.02096    142448.04   -48926.482    3800.5435   -52727.025   0.29316643 
  197600    277.14794   -1099.4161    143075.09   -48835.667    3805.9596   -52641.627   0.25696876 
  197800    278.47473   -1292.5194    143433.89   -48816.167    3824.1799   -52640.347   0.26598472 
  198000    282.66746   -988.36314    142935.33   -48852.423    3881.7569    -52734.18   0.25698397 
  198200     281.7151   -749.21755    142405.74   -48884.914    3868.6785   -52753.593   0.28208137 
  198400    277.45678   -865.94343    142657.99   -48812.561    3810.2008   -52622.762   0.30516302 
  198600    283.46578   -1185.1341    143281.49   -48793.598    3892.7199   -52686.318   0.24091829 
  198800    282.37486    -1210.461    143254.01    -48824.23    3877.7387   -52701.969   0.26403747 
  199000    276.34285   -862.50937    142625.87   -48838.524    3794.9036   -52633.428   0.29338638 
  199200    280.23729   -759.88681    142445.64   -48836.159    3848.3843   -52684.543   0.28225473 
  199400    278.89777    -1083.473     142960.9   -48840.681    3829.9892   -52670.671   0.27826633 
  199600    280.70231   -1207.1318    143320.23   -48855.934    3854.7703   -52710.705    0.2579051 
  199800    277.77077   -1063.4326    143001.45   -48839.579    3814.5126   -52654.092   0.26897211 
  200000    277.66241   -820.84112    142542.31   -48864.847    3813.0246   -52677.872   0.28485859 
Loop time of 229.616 on 6 procs for 200000 steps with 4608 atoms

Performance: 376.281 ns/day, 0.064 hours/ns, 871.021 timesteps/s
98.9% CPU use with 6 MPI tasks x no OpenMP threads

MPI task timing breakdown:
Section |  min time  |  avg time  |  max time  |%varavg| %total
---------------------------------------------------------------
Pair    | 188.2      | 190.07     | 193.56     |  12.3 | 82.78
Neigh   | 12.998     | 13.318     | 13.815     |   9.6 |  5.80
Comm    | 12.05      | 16.037     | 17.975     |  47.6 |  6.98
Output  | 3.0333     | 3.0343     | 3.0382     |   0.1 |  1.32
Modify  | 5.686      | 5.8345     | 5.9494     |   4.0 |  2.54
Other   |            | 1.326      |            |       |  0.58

Nlocal:        768.000 ave         782 max         752 min
Histogram: 1 0 1 1 0 0 1 0 0 2
Nghost:        1663.00 ave        1698 max        1639 min
Histogram: 1 1 0 2 0 0 1 0 0 1
Neighs:        0.00000 ave           0 max           0 min
Histogram: 6 0 0 0 0 0 0 0 0 0
FullNghs:      24125.7 ave       24630 max       23577 min
Histogram: 1 0 1 1 0 1 0 0 0 2

Total # of neighbors = 144754
Ave neighs/atom = 31.413628
Neighbor list builds = 13447
Dangerous builds = 0
write_data		data.${NAME}
write_data		data.ice_279K_-1000atm_mW
System init for write_data ...
Total wall time: 0:05:41
