
# Define the lattice
#
variable	    lattice_constant equal 6.36339
lattice		    diamond ${lattice_constant}
lattice		    diamond 6.36339
Lattice spacing in x,y,z = 6.3633900 6.3633900 6.3633900

# Define region
# multiples of lattice spacing
#
region 		    simbox block 0 9 0 8 0 8

# Create Atoms
#
create_box          1 simbox
Created orthogonal box = (0.0000000 0.0000000 0.0000000) to (57.270510 50.907120 50.907120)
  3 by 1 by 2 MPI processor grid
create_atoms        1 box
Created 4608 atoms
  create_atoms CPU = 0.000 seconds
mass                1 18.015

# Define potential
#
pair_style          sw
pair_coeff          * * /data/emrosky-sim/Freezing_Simulations/Melting/mW_fancy/mW.sw mW
Reading sw potential file /data/emrosky-sim/Freezing_Simulations/Melting/mW_fancy/mW.sw with DATE: 2019-02-27

# Add velocity/set timestep
#
velocity            all create ${TEMP} 120598 rot yes dist gaussian
velocity            all create 279 120598 rot yes dist gaussian
timestep            5.0

# Define output
#
compute	            1 all msd
thermo              100
thermo_style        custom step temp press vol etotal ke pe c_1[4]

# Neighbor lists
#
neigh_modify        delay 0 every 1 check yes

# Set fixes
#
fix                 1 all momentum 10 linear 1 1 1 rescale
fix                 2 all nve
fix                 3 all temp/csvr ${TEMP} ${TEMP} 500.0 928347
fix                 3 all temp/csvr 279 ${TEMP} 500.0 928347
fix                 3 all temp/csvr 279 279 500.0 928347
fix                 4 all press/berendsen iso ${PRES} ${PRES} 1000.0 modulus 20000
fix                 4 all press/berendsen iso -1000 ${PRES} 1000.0 modulus 20000
fix                 4 all press/berendsen iso -1000 -1000 1000.0 modulus 20000

# Run 0.5 ns equilibration
#
dump		    1 all custom 1000 eq.${NAME}.dump id type x y z vx vy vz
dump		    1 all custom 1000 eq.ice_279K_-1000atm_mW.dump id type x y z vx vy vz
run                 100000
Neighbor list info ...
  update every 1 steps, delay 0 steps, check yes
  max neighbors/atom: 2000, page size: 100000
  master list distance cutoff = 6.3065
  ghost atom cutoff = 6.3065
  binsize = 3.15325, bins = 19 17 17
  1 neighbor lists, perpetual/occasional/extra = 1 0 0
  (1) pair sw, perpetual
      attributes: full, newton on
      pair build: full/bin/atomonly
      stencil: full/bin/3d
      bin: standard
Per MPI rank memory allocation (min/avg/max) = 4.778 | 4.778 | 4.778 Mbytes
Step Temp Press Volume TotEng KinEng PotEng c_1[4] 
       0          279   -4553.6078    148418.52   -52722.129    3831.3931   -56553.522            0 
     100     219.9804   -1508.0025    142589.89   -51491.784     3020.901   -54512.685   0.21137305 
     200    216.17755   -1001.0782    142118.76   -50590.699     2968.678   -53559.377   0.27564337 
     300    231.09013   -965.19673    142294.96   -50008.109    3173.4664   -53181.575   0.29027509 
     400    250.01543   -1012.7117    142499.89   -49608.964    3433.3598   -53042.324   0.26449234 
     500    266.20844   -1023.2658    142648.79   -49324.665    3655.7318   -52980.397   0.27310761 
     600    268.87875   -960.90242    142767.53   -49057.191    3692.4021   -52749.593   0.29784941 
     700    274.85252   -963.91918    142806.39   -48982.175    3774.4375   -52756.612   0.25220517 
     800    272.69825   -1005.3852    142853.07   -48896.507    3744.8537   -52641.361   0.28037835 
     900    279.14488   -1002.4554    142918.08    -48884.97    3833.3827   -52718.353   0.27188829 
    1000    283.51061   -988.04951    142870.68   -48924.315    3893.3355    -52817.65   0.26476309 
    1100    281.96665   -984.32593    142916.68   -48864.607    3872.1329    -52736.74   0.25592677 
    1200     284.1283   -979.74806    142895.89   -48861.179     3901.818   -52762.997   0.26668452 
    1300    278.92543   -1010.2573    142924.21   -48774.042    3830.3691   -52604.411   0.29040916 
    1400    276.47175   -974.85535    142916.46   -48871.691    3796.6738   -52668.365   0.25455577 
    1500    277.22316   -1003.0159    142885.38   -48904.865    3806.9926   -52711.857   0.27144626 
    1600    277.85343    -991.5435    142886.08   -48843.806    3815.6478   -52659.454   0.28330338 
    1700     276.1318   -993.14345    142884.73   -48863.145    3792.0053   -52655.151    0.2620889 
    1800    277.55248    -989.8245    142876.72   -48859.079     3811.515   -52670.594   0.26092092 
    1900    285.67134   -998.39369    142902.86   -48768.213    3923.0079   -52691.221   0.27594465 
    2000    284.37576   -1004.7972    142938.56   -48718.469    3905.2162   -52623.685   0.28879594 
    2100    278.59346   -1020.3914    142924.59   -48886.969    3825.8102    -52712.78   0.24986308 
    2200     281.6748   -1023.4087    142923.48   -48821.002     3868.125   -52689.127   0.27292907 
    2300    281.33995   -1003.2854    142916.96   -48753.516    3863.5267   -52617.043   0.28958917 
    2400     283.2484   -980.38644    142940.39   -48779.009    3889.7347   -52668.744   0.25767267 
    2500    280.00819   -975.74566    142921.81   -48821.134    3845.2382   -52666.373   0.26077176 
    2600    274.83908    -1044.268    142915.66   -48857.962    3774.2529   -52632.215   0.28462202 
    2700    279.96151   -979.62474    142894.37    -48828.27    3844.5972   -52672.867   0.27223594 
    2800    282.24507   -969.11245    142888.16   -48732.019    3875.9564   -52607.976   0.25633948 
    2900     280.1965   -994.34815    142928.24   -48755.547    3847.8242   -52603.371   0.29100252 
    3000    283.60529   -994.48787     142904.7   -48807.146    3894.6357   -52701.782   0.28750578 
    3100    279.69788   -1024.2009    142884.34   -48781.276    3840.9768   -52622.253   0.25308953 
    3200    275.11836   -1015.3533    142853.42    -48882.94    3778.0882   -52661.028   0.27818858 
    3300    276.67703   -1030.3381    142791.97   -48943.819    3799.4928   -52743.312   0.29489086 
    3400    279.30319   -977.54291    142831.77   -48885.323    3835.5568    -52720.88   0.26008825 
    3500    280.53443   -1012.7364    142817.08   -48845.553    3852.4648   -52698.017   0.28345492 
    3600    278.11038   -1032.6474    142831.18   -48852.154    3819.1764    -52671.33   0.29397984 
    3700    273.41253   -960.71376    142867.82   -48816.312    3754.6626   -52570.975    0.2790957 
    3800     277.0136   -979.89205    142865.58   -48804.565    3804.1148    -52608.68   0.26171288 
    3900    284.75467   -995.07007    142869.91   -48806.066    3910.4196   -52716.486   0.28706979 
    4000    279.72975    -999.5835    142878.13   -48848.072    3841.4145   -52689.487   0.28024333 
    4100    273.18971   -1024.5779    142848.89   -48866.499    3751.6028   -52618.101   0.26587985 
    4200    276.65693   -1024.0026     142826.9   -48819.746    3799.2168   -52618.963   0.28181287 
    4300    275.67799   -991.74749    142827.31   -48947.027    3785.7733   -52732.801   0.27643158 
    4400    279.20594   -1036.0343    142846.81    -48838.71    3834.2213   -52672.931   0.28997328 
    4500    273.29213   -1004.5486    142852.15   -48897.675    3753.0094   -52650.684    0.2643554 
    4600    276.84059   -1007.0491    142816.93   -48936.591    3801.7389    -52738.33   0.28170627 
    4700    281.50539   -950.95166    142845.04   -48840.282    3865.7987    -52706.08   0.28202958 
    4800     287.7174    -969.8395    142870.04    -48742.76    3951.1056   -52693.866   0.25716535 
    4900     283.0327   -999.55443    142871.36    -48709.71    3886.7725   -52596.483   0.28238785 
    5000    278.14361   -1016.9732    142877.89   -48838.461    3819.6326   -52658.094   0.29235987 
    5100    277.78538   -1027.3586    142849.79   -48765.856    3814.7132    -52580.57   0.27376308 
    5200    278.53446   -1002.4663    142856.24   -48836.998    3825.0001   -52661.998   0.26129738 
    5300    276.00453   -1012.2165    142812.91   -48933.783    3790.2575   -52724.041   0.30152447 
    5400    280.05554   -977.94166    142780.45   -48903.385    3845.8884   -52749.274   0.27039784 
    5500    279.95946   -1011.3983     142800.2   -48872.182     3844.569   -52716.751    0.2588438 
    5600     277.9174   -1042.5576    142783.62   -48909.581    3816.5262   -52726.107   0.29688262 
    5700    273.94267   -964.10185    142809.28    -48893.25    3761.9428   -52655.193    0.2894015 
    5800    277.18249   -966.67425    142801.75   -48840.767     3806.434   -52647.201   0.25959177 
    5900    278.72173   -1006.4513    142800.27   -48916.788    3827.5717   -52744.359   0.27338195 
    6000    277.78201   -994.01626    142754.18   -48888.121     3814.667   -52702.788   0.30212947 
    6100     274.7173   -1003.5202    142778.63   -48972.499    3772.5806    -52745.08   0.26327778 
    6200    279.52649   -976.60317    142789.74   -48955.594    3838.6232   -52794.217   0.26764401 
    6300    279.81117   -993.04559     142782.4   -48832.853    3842.5326   -52675.386   0.29124397 
    6400    281.49033   -975.41709    142802.08   -48880.633    3865.5918   -52746.225   0.26341933 
    6500    279.06139    -994.7694    142800.44   -48898.906    3832.2362   -52731.142   0.27046698 
    6600    275.22859   -1027.8752    142789.66   -48905.219    3779.6019   -52684.821   0.28373487 
    6700    273.60075   -1019.8373    142776.79   -48958.481    3757.2474   -52715.729   0.29109353 
    6800    277.56896   -989.31569    142784.13   -48916.597    3811.7413   -52728.338   0.26590135 
    6900    280.25051   -1019.4777    142821.93   -48842.018    3848.5659   -52690.584   0.27754964 
    7000    278.25501   -1021.3873    142828.45   -48842.787    3821.1625    -52663.95   0.29575507 
    7100    279.81093   -952.12672    142807.13   -48843.978    3842.5293   -52686.507   0.27205648 
    7200    274.85243   -1017.2913    142807.61   -48953.853    3774.4362   -52728.289   0.27178396 
    7300    276.74205   -989.35071    142763.25   -48998.032    3800.3856   -52798.418   0.28430879 
    7400    278.20489   -1008.9378    142811.26   -48899.828    3820.4742   -52720.303   0.28448368 
    7500    277.66273   -959.39339    142840.63   -48827.731    3813.0289    -52640.76   0.26461952 
    7600    278.20255   -994.86157    142865.74   -48807.199    3820.4421   -52627.641   0.27786358 
    7700    276.42726   -1017.4247    142837.42   -48897.008    3796.0627    -52693.07   0.29717223 
    7800    278.31995   -1016.2765    142826.94   -48959.714    3822.0543   -52781.768   0.26063522 
    7900    278.58535   -973.66602    142818.29   -48899.556    3825.6989   -52725.255    0.2669405 
    8000    285.34718   -989.43129    142828.32   -48798.771    3918.5564   -52717.327   0.29140593 
    8100    282.03069   -1017.9745    142898.74   -48767.501    3873.0124   -52640.514   0.26867705 
    8200    279.20243   -978.99801    142895.39   -48793.092     3834.173   -52627.265   0.26956766 
    8300    284.67127    -994.4961    142886.02   -48752.957    3909.2744   -52662.232   0.28102611 
    8400    287.80147   -968.82814    142917.33   -48728.734    3952.2602   -52680.994   0.28681081 
    8500    277.02614   -1054.1558    142870.02   -48813.103    3804.2869    -52617.39   0.26272107 
    8600    275.60032    -989.0171    142861.99    -48830.46    3784.7067   -52615.167   0.28544531 
    8700    280.35329    -986.8983    142869.14   -48800.605    3849.9773   -52650.582   0.29335456 
    8800    279.34947   -996.19224    142879.05   -48834.058    3836.1923    -52670.25   0.25605317 
    8900    277.97241   -1022.1691    142859.94   -48905.637    3817.2817   -52722.919   0.27535264 
    9000    284.53304   -1028.4296    142863.76   -48836.042    3907.3761   -52743.418   0.28656055 
    9100    280.08483   -990.39851    142848.19   -48879.183    3846.2907   -52725.474    0.2733092 
    9200    283.38463   -963.58351     142840.9   -48774.414    3891.6055    -52666.02    0.2663606 
    9300    280.49774   -993.96841    142852.28   -48924.629     3851.961    -52776.59   0.28316961 
    9400    279.11775   -982.21232    142829.11   -48884.914    3833.0102   -52717.924    0.2781064 
    9500    274.59573    -989.9866    142837.83   -48927.576    3770.9111   -52698.487    0.2599016 
    9600    273.40979   -1027.8984    142800.56   -48914.766    3754.6251   -52669.391   0.27761698 
    9700    276.20814    -1012.976    142835.34   -48793.033    3793.0537   -52586.086   0.28440747 
    9800    282.67789    -1005.316    142871.29   -48754.903    3881.9001   -52636.803   0.27951083 
    9900    284.83093   -1011.3872    142842.86   -48784.016    3911.4669   -52695.483   0.26745189 
   10000    280.41711   -1021.0641    142838.51   -48838.767    3850.8537   -52689.621   0.28355773 
   10100    286.09643   -1015.6493    142872.01   -48789.535    3928.8455    -52718.38   0.28746665 
   10200    279.67865   -1012.2703    142878.18   -48755.006    3840.7128   -52595.718    0.2595088 
   10300    278.60236   -1008.7465    142889.48   -48759.067    3825.9326       -52585   0.28281571 
   10400    283.06078   -1031.6311    142911.72   -48767.404    3887.1582   -52654.562   0.28775792 
   10500    280.79832   -1012.5148    142863.25    -48814.81    3856.0887   -52670.899    0.2638603 
   10600    276.74753   -998.33715    142857.09   -48835.251    3800.4609   -52635.712   0.26918887 
   10700    276.61432   -967.35575    142843.83   -48857.164    3798.6316   -52655.796   0.28853749 
   10800    269.57086   -1028.6936     142797.3   -48983.987    3701.9066   -52685.894   0.27407706 
   10900    274.90758   -1004.9126    142787.62   -48973.912    3775.1937   -52749.106   0.25167886 
   11000    274.32882   -998.87461    142816.08   -48992.074    3767.2457    -52759.32   0.28934126 
   11100    275.34607   -997.53697    142844.53   -48896.489    3781.2151   -52677.705   0.27114251 
   11200    278.64336   -1029.4759    142844.03   -49003.874    3826.4955    -52830.37    0.2485393 
   11300    275.18918   -990.74889    142819.06   -48915.153    3779.0607   -52694.214   0.28604235 
   11400    274.75107    -982.5699    142850.96   -48894.907    3773.0443   -52667.952   0.27841692 
   11500    277.81814   -957.37879    142882.91   -48795.313    3815.1631   -52610.477   0.26338192 
   11600    277.01418   -1006.6307    142928.76   -48789.205    3804.1227   -52593.328   0.27275965 
   11700    287.47429   -997.43916    142951.15   -48671.666    3947.7671   -52619.433   0.27461148 
   11800     285.0948   -988.19249    142923.02   -48736.686    3915.0906   -52651.777   0.27434719 
   11900    283.28894   -997.53272    142911.98   -48792.252    3890.2914   -52682.544   0.25761041 
   12000    284.71753   -968.28252    142905.68    -48748.62    3909.9097   -52658.529    0.2730954 
   12100    278.46288   -1000.7884    142899.63   -48809.362     3824.017   -52633.379   0.27763491 
   12200    279.26831   -1024.2918    142904.35   -48816.912    3835.0777    -52651.99   0.26430745 
   12300    276.35136   -967.36113    142875.85   -48866.479    3795.0204     -52661.5    0.2636624 
   12400     279.0783   -1000.6169    142889.73   -48862.974    3832.4684   -52695.443   0.28128873 
   12500    276.74107   -1013.0468    142891.13   -48789.384    3800.3722   -52589.756    0.2777243 
   12600    283.19537   -1001.8211    142934.55   -48754.691    3889.0065   -52643.698   0.25445986 
   12700    277.03304   -1049.7981    142941.72   -48831.859    3804.3817   -52636.241   0.28710934 
   12800    282.42895   -1004.8414    142944.78   -48820.144    3878.4815   -52698.626   0.26781438 
   12900    278.67485   -1032.0053    142909.13   -48879.759     3826.928   -52706.687   0.25496523 
   13000    285.18221   -983.38786    142877.62   -48850.695    3916.2909   -52766.986   0.28126661 
   13100    281.26121   -986.26246    142875.87   -48920.967    3862.4455   -52783.413   0.27887864 
   13200    276.80068    -1012.837     142854.3   -48949.372    3801.1908   -52750.563   0.25556765 
   13300    273.51486   -1010.3946     142846.2    -49029.21     3756.068   -52785.278   0.26975705 
   13400    279.44528   -1005.4937    142805.83   -49014.598     3837.508   -52852.106   0.28771661 
   13500    273.83681   -1017.0775     142833.7   -48928.253    3760.4892   -52688.742   0.26537426 
   13600    277.03255   -1000.1716    142867.84   -48879.552    3804.3749   -52683.927   0.26924539 
   13700    281.73082   -971.55727    142864.52   -48909.411    3868.8944   -52778.306   0.28108988 
   13800    275.76175   -997.57989    142860.12   -48852.773    3786.9235   -52639.696   0.27351573 
   13900    278.68961    -1035.763    142849.15   -48855.675    3827.1306   -52682.806   0.27120737 
   14000    282.57289   -981.31629    142890.95   -48740.717    3880.4582   -52621.175   0.27547916 
   14100    279.62749   -1039.5141    142887.51    -48831.19    3840.0102   -52671.201   0.28132698 
   14200    285.46853   -970.24001    142871.04   -48833.457    3920.2228    -52753.68   0.26314786 
   14300    281.53709   -982.35279    142887.05   -48872.456     3866.234   -52738.689   0.26965875 
   14400    276.37299   -1017.0126    142876.83   -48920.172    3795.3175    -52715.49   0.28018513 
   14500    280.45192   -974.40587    142849.55   -48934.786    3851.3318   -52786.117   0.26191852 
   14600    275.65397   -994.68762    142855.06   -48891.446    3785.4435   -52676.889   0.26691724 
   14700    282.58643   -962.11986    142869.96   -48845.075    3880.6441   -52725.719   0.27141641 
   14800    276.99273   -1009.4971    142903.99   -48823.783    3803.8282   -52627.611   0.28353375 
   14900    280.30964   -1016.4244    142898.85   -48830.579    3849.3778   -52679.957   0.26274227 
   15000    279.72311   -1010.3442    142900.04   -48898.561    3841.3233   -52739.884   0.27011573 
   15100     274.5437   -1021.7428    142884.99   -48912.151    3770.1966   -52682.348   0.28498802 
   15200    277.24697   -1013.7655    142920.06   -48845.174    3807.3195   -52652.494   0.26152953 
   15300     278.0159   -998.84527    142900.53   -48923.686    3817.8789   -52741.564   0.25485734 
   15400    279.94688   -996.48436    142883.64   -48918.204    3844.3962     -52762.6   0.27791144 
   15500    278.03788   -1017.6688    142889.22   -48859.604    3818.1808   -52677.785   0.27616492 
   15600    282.67306   -990.44873    142961.97   -48739.292    3881.8338   -52621.126   0.25530791 
   15700    283.04747    -1013.714    142978.93   -48757.016    3886.9755   -52643.991   0.28062006 
   15800    282.39696   -982.81397    142983.07   -48760.708    3878.0422    -52638.75    0.2750008 
   15900    280.42845   -990.13978    142939.81   -48773.656    3851.0095   -52624.665   0.25335924 
   16000     280.8887   -997.00658    142926.96   -48820.118    3857.3298   -52677.447   0.27400098 
   16100    282.49156   -988.96778    142900.29    -48847.71    3879.3412   -52727.052   0.27551511 
   16200    278.95439   -1017.8498    142888.74    -48853.54    3830.7668   -52684.306   0.26416837 
   16300    277.79518   -997.52134       142891   -48876.574    3814.8479   -52691.422   0.26858922 
   16400    280.72036   -1005.8636    142900.77   -48886.852    3855.0182    -52741.87   0.28614588 
   16500    283.83396   -1005.6842    142906.99   -48813.268     3897.776   -52711.044   0.27135797 
   16600    285.05344   -994.65755     142906.3   -48735.301    3914.5225   -52649.824   0.26311066 
   16700    279.32931   -1009.2653    142914.55   -48782.693    3835.9155   -52618.609   0.28947804 
   16800    277.12303   -1003.4177    142883.08   -48828.115    3805.6175   -52633.733   0.27352657 
   16900    279.42093   -1003.8474     142887.6   -48858.376    3837.1736    -52695.55   0.26665847 
   17000    278.95189   -1011.9718    142883.99   -48901.579    3830.7325   -52732.311   0.27169681 
   17100    280.38314   -984.15728    142904.42   -48854.187    3850.3873   -52704.575   0.27933708 
   17200    278.23204   -1035.5594    142885.83   -48916.167     3820.847   -52737.014   0.27902835 
   17300    276.64826   -1025.6151    142870.25     -49010.4    3799.0976   -52809.497   0.26219235 
   17400    272.22631   -1019.7823    142870.02   -49003.435    3738.3728   -52741.808   0.27493552 
   17500    276.52873   -982.36773    142890.87   -48902.067    3797.4563   -52699.523   0.27499052 
   17600    277.83987   -1024.1961    142877.34   -48910.044    3815.4615   -52725.505   0.26611138 
   17700    271.30277   -996.62517    142843.35   -48962.832    3725.6903   -52688.522   0.27057296 
   17800    273.04033   -940.66942    142836.83   -48913.559    3749.5515   -52663.111   0.28351081 
   17900    275.96809   -990.14737    142849.41   -48859.307    3789.7571   -52649.064   0.28420965 
   18000    281.88274   -982.90576    142882.49   -48775.392    3870.9807   -52646.373   0.26169475 
   18100      275.422   -1010.0046    142909.38   -48781.666    3782.2579   -52563.924   0.29515143 
   18200    277.27929   -971.19581     142878.2    -48821.57    3807.7633   -52629.333   0.28032447 
   18300    276.61602   -1017.9581    142862.22   -48830.602    3798.6549   -52629.257   0.26111241 
   18400    277.73878   -1011.6653    142837.69   -48923.545    3814.0733   -52737.618   0.29029906 
   18500    277.78025   -994.33152    142846.92   -48859.663    3814.6428   -52674.305   0.27809428 
   18600    279.45994     -1029.53    142844.05   -48813.731    3837.7094    -52651.44   0.27340575 
   18700    280.62932   -1007.9399    142839.57   -48828.047     3853.768   -52681.815   0.28426176 
   18800     277.3158    -989.0623    142845.57   -48846.658    3808.2648   -52654.923   0.28290044 
   18900    282.23403   -967.65261    142866.05   -48807.966    3875.8047   -52683.771   0.26912226 
   19000    279.58545   -986.06933    142900.61   -48839.032     3839.433   -52678.465   0.26975825 
   19100    283.58293   -994.12441    142880.04   -48750.352    3894.3287   -52644.681   0.28382576 
   19200    280.77521   -976.65605    142911.14   -48783.588    3855.7713   -52639.359   0.26566838 
   19300    288.14403   -1000.2377    142908.22   -48677.108    3956.9644   -52634.072   0.27724838 
   19400    280.51772    -993.2797    142860.12   -48734.785    3852.2354    -52587.02   0.28075326 
   19500    281.96874   -972.64605    142855.09   -48737.495    3872.1616   -52609.657   0.27722378 
   19600    281.68555   -969.14994    142867.59   -48727.173    3868.2728   -52595.446   0.27978467 
   19700    283.80982   -998.86461    142900.24   -48783.436    3897.4444   -52680.881    0.2634719 
   19800    285.41295   -969.72897    142908.93   -48722.894    3919.4595   -52642.353   0.28152394 
   19900    278.94552   -1010.4289    142898.87   -48800.393     3830.645   -52631.038   0.27772789 
   20000    279.07737    -995.5075    142878.84   -48828.759    3832.4557   -52661.215   0.26462031 
   20100     277.6458   -1005.8442    142839.57   -48874.009    3812.7965   -52686.806   0.28190771 
   20200    278.25343   -1002.1238       142848    -48852.49    3821.1408   -52673.631   0.27845527 
   20300    280.09492   -954.76009     142841.3   -48814.449    3846.4293   -52660.878   0.26635329 
   20400     273.1845   -1041.8465    142846.33    -48880.34    3751.5312   -52631.871   0.27180845 
   20500    281.33836   -1009.8332    142846.16   -48924.411    3863.5049   -52787.916   0.28482824 
   20600    276.54088   -1024.0446    142805.11   -48936.298     3797.623   -52733.921   0.27249415 
   20700    279.47227   -977.20994    142803.94   -48885.316    3837.8786   -52723.194   0.26781176 
   20800    284.67909   -955.90092    142867.99   -48749.048    3909.3817    -52658.43   0.28629055 
   20900    277.30485   -1017.5862    142890.43    -48853.52    3808.1143   -52661.634   0.26784893 
   21000    275.18961   -984.69506     142882.3   -48864.506    3779.0666   -52643.572   0.26631842 
   21100     285.1292    -979.0366    142920.36    -48755.44    3915.5629   -52671.003   0.27363151 
   21200    281.66632   -981.04011    142912.83   -48770.822    3868.0086    -52638.83   0.27935735 
   21300    278.27852   -982.62802    142901.29   -48759.225    3821.4854   -52580.711   0.26823623 
   21400    280.30238   -994.71285    142900.76   -48803.875    3849.2782   -52653.153   0.26938625 
   21500     287.5121   -1027.8419    142905.77   -48710.146    3948.2863   -52658.433   0.29416778 
   21600    287.20628   -989.98008    142902.39   -48714.273    3944.0866   -52658.359   0.26821866 
   21700    279.35408   -1039.9189    142870.87   -48847.624    3836.2556    -52683.88   0.27082651 
   21800    275.67353   -1038.7318    142857.29   -48875.837     3785.712   -52661.549   0.28745088 
   21900    279.75601   -981.97734    142864.07   -48855.431    3841.7751   -52697.206   0.27306021 
   22000    278.94048   -1000.6128    142863.21   -48883.375    3830.5757   -52713.951   0.26979982 
   22100    279.16157   -1004.7156    142874.76   -48928.397    3833.6119   -52762.009   0.27046324 
   22200    274.03029   -1025.2736    142802.68   -49003.247    3763.1462   -52766.393   0.28690463 
   22300    278.84341   -999.59147    142821.01   -48892.736    3829.2427   -52721.979   0.27026731 
   22400    280.06955   -987.04439    142863.84   -48839.027    3846.0808   -52685.108   0.27475466 
   22500    279.86487   -967.05229    142852.39   -48792.466    3843.2701   -52635.736   0.28125454 
   22600    281.16669   -1002.4841    142871.34   -48836.264    3861.1475   -52697.411   0.26819806 
   22700     278.2862   -998.71436    142847.78   -48891.487    3821.5908   -52713.078   0.26953585 
   22800    277.11352    -1022.407    142863.96   -48819.823    3805.4869    -52625.31   0.27853467 
   22900    275.01331   -983.25968    142848.22   -48849.401    3776.6455   -52626.046   0.28643759 
   23000    277.18469   -1031.2635    142823.96   -48918.381    3806.4642   -52724.845   0.26235067 
   23100     275.9082   -1004.9142    142842.86   -48865.242    3788.9347   -52654.177   0.27602678 
   23200    277.04035   -971.50728    142876.03    -48809.24    3804.4821   -52613.722   0.28574228 
   23300    280.73096   -990.57539     142894.6   -48810.953    3855.1637   -52666.117   0.26896303 
   23400    274.83873   -1066.9585    142886.13   -48865.065    3774.2481   -52639.313   0.27861309 
   23500    282.84351   -944.16232    142911.75   -48747.715    3884.1745   -52631.889    0.2800642 
   23600    280.05098   -1015.5882    142935.81   -48769.882    3845.8258   -52615.708   0.27990862 
   23700    283.80694   -977.33359    142937.17   -48762.433    3897.4049   -52659.838   0.25518795 
   23800    280.34608   -1020.7721     142915.9   -48774.021    3849.8783     -52623.9   0.27744234 
   23900    276.26024   -1008.1119     142876.6   -48850.457    3793.7691   -52644.226   0.28706974 
   24000    280.94369   -1010.8531     142867.4   -48800.093     3858.085   -52658.179   0.26762298 
   24100    282.11706   -985.26216     142884.9   -48734.816    3874.1985   -52609.015    0.2815372 
   24200    279.41196   -982.79222     142876.1   -48848.985    3837.0504   -52686.036   0.27545065 
   24300    278.27061   -987.34483    142842.31   -48889.425    3821.3767   -52710.802   0.28069038 
   24400     280.9597   -1036.0236    142827.69   -48909.099    3858.3049   -52767.404   0.27470134 
   24500    275.15737   -1022.4194    142834.95   -48867.304    3778.6239   -52645.928   0.28210549 
   24600    273.32184    -990.3427    142843.94    -48916.94    3753.4172   -52670.358    0.2883099 
   24700    277.41927   -986.28224    142838.81    -48916.61    3809.6856   -52726.295   0.26652653 
   24800    274.24216   -1023.0797    142838.32    -48864.66    3766.0557   -52630.715   0.28590458 
   24900    276.82011   -1007.5081    142809.65    -48918.22    3801.4576   -52719.677   0.28222251 
   25000    277.74347   -1013.1193     142791.2   -48909.929    3814.1378   -52724.067    0.2783481 
   25100    271.91399   -1049.3265    142772.06   -48956.804    3734.0839   -52690.888   0.27760078 
   25200    272.49118   -1056.3754    142743.86    -49095.16    3742.0102    -52837.17   0.28328917 
   25300    275.05725   -1026.9421    142740.01   -48930.946    3777.2489   -52708.195   0.28772925 
   25400    271.51539   -971.45179    142776.68   -48966.412    3728.6101   -52695.022   0.26961909 
   25500    274.87859   -998.17423    142807.45   -48857.692    3774.7955   -52632.488   0.29189484 
   25600    278.06619   -980.72993     142827.3   -48776.374    3818.5695   -52594.944   0.29277758 
   25700    275.98523   -1008.8961    142829.18   -48872.164    3789.9925   -52662.156   0.27151921 
   25800    281.25987   -1036.5106    142864.73   -48729.785    3862.4271   -52592.212    0.2842913 
   25900    282.36208   -975.48873    142887.81   -48757.083    3877.5632   -52634.646   0.28695588 
   26000    278.28491   -1038.3076    142876.79   -48799.366    3821.5731   -52620.939   0.27551962 
   26100    281.90158   -988.11347       142893   -48783.488    3871.2393   -52654.727   0.27307427 
   26200    275.92556   -1029.9428    142866.15   -48890.966    3789.1731   -52680.139   0.29408565 
   26300    280.53338   -971.02363    142858.58   -48850.122    3852.4504   -52702.573    0.2706492 
   26400    273.39462   -1017.4867    142836.13   -48908.861    3754.4167   -52663.277   0.27305116 
   26500    280.17777   -1010.8215    142866.36    -48822.04    3847.5669   -52669.607   0.29067582 
   26600    278.43783   -989.07252    142905.49    -48769.04    3823.6731   -52592.713   0.27567206 
   26700    275.96583   -1012.6315    142903.75   -48771.373    3789.7262   -52561.099   0.28026017 
   26800    277.03317   -1011.8786    142900.94   -48821.784    3804.3834   -52626.167    0.2788136 
   26900    281.02461   -977.88796    142887.91   -48760.765    3859.1963   -52619.961   0.28495373 
   27000    282.20813   -1013.3862    142879.52   -48790.591    3875.4491    -52666.04   0.27768788 
   27100    285.17633   -997.07984     142870.6   -48732.961    3916.2101   -52649.171   0.27128917 
   27200    281.01115    -1009.478    142835.95   -48797.489    3859.0114   -52656.501   0.29265224 
   27300    285.94365   -984.45815    142865.17   -48640.974    3926.7474   -52567.722   0.28427582 
   27400    284.67905   -978.10698    142891.78   -48756.283    3909.3812   -52665.664   0.27515452 
   27500    272.67664   -1059.9035    142843.16   -48860.967    3744.5571   -52605.524   0.27981759 
   27600    277.80116   -979.73311    142794.84   -48914.684    3814.9299   -52729.614   0.27857999 
   27700     279.3472   -1000.0936     142824.7   -48815.555    3836.1611   -52651.716   0.27739537 
   27800    283.62337   -986.39608    142864.57   -48800.369     3894.884   -52695.253   0.26879139 
   27900    278.43494   -1007.3513     142848.4    -48856.68    3823.6334   -52680.313   0.28772545 
   28000    277.93893   -997.01606    142817.56   -48924.584    3816.8219   -52741.406   0.27342406 
   28100    275.49988   -1031.0841    142816.31   -48897.417    3783.3274   -52680.744   0.27931897 
   28200    280.09252   -991.62365    142833.32   -48864.893    3846.3962    -52711.29   0.28223373 
   28300     279.1209   -1004.3568    142844.91   -48887.155    3833.0534   -52720.208   0.27560913 
   28400    276.58077   -1002.9943    142828.23   -48821.223    3798.1709   -52619.393   0.28221655 
   28500    279.27065   -992.04183    142844.13   -48858.247    3835.1098   -52693.357   0.27541258 
   28600    272.87537   -995.45515    142848.09   -48862.641    3747.2861   -52609.927   0.28895404 
   28700    276.34677   -991.38825    142832.38   -48858.847    3794.9574   -52653.805   0.28053751 
   28800    278.97617    -982.0696    142814.78   -48904.433    3831.0659   -52735.499   0.27851446 
   28900    280.55805   -996.51595    142799.23   -48873.198    3852.7892   -52725.987    0.2862104 
   29000    276.96029   -993.50841    142824.57   -48817.467    3803.3827   -52620.849   0.28017216 
   29100    281.85271   -1044.0086    142837.41   -48813.119    3870.5683   -52683.687   0.28406768 
   29200    279.06451   -1030.7811     142860.7   -48744.703     3832.279   -52576.983   0.28423695 
   29300    282.21693   -990.49425    142893.41   -48751.271      3875.57   -52626.841   0.28800901 
   29400    281.61399   -987.72522    142884.45   -48762.415    3867.2899   -52629.705    0.2722177 
   29500     276.2776   -996.58153    142890.87   -48808.861    3794.0075   -52602.869   0.27510355 
   29600    274.00456   -1009.0944    142894.81    -48779.95    3762.7928   -52542.743   0.29520433 
   29700    276.16087   -1019.8491    142888.28    -48850.18    3792.4045   -52642.584   0.27205791 
   29800    275.26969   -978.41385    142847.64   -48944.824    3780.1663   -52724.991    0.2753688 
   29900     279.0303   -995.83926    142842.58   -48924.644    3831.8092   -52756.453   0.28338392 
   30000    277.06383   -1014.3423    142843.76   -48888.901    3804.8045   -52693.706   0.27549458 
   30100     276.9436   -1030.1042     142842.2   -48863.257    3803.1534   -52666.411   0.27371647 
   30200    280.28417   -1007.9665    142843.94   -48875.976    3849.0282   -52725.005   0.28362083 
   30300    282.03045   -1017.0088    142835.89   -48859.949    3873.0091   -52732.958   0.27852291 
   30400    276.92202   -1002.7609    142852.68   -48895.061     3802.857   -52697.918   0.26528037 
   30500    277.18312   -1016.6957    142802.55   -48994.505    3806.4427   -52800.947   0.28176746 
   30600    279.57803   -987.20013    142801.02   -48874.582    3839.3309   -52713.913   0.28044133 
   30700    272.41238   -995.61311    142822.67   -48901.481     3740.928   -52642.409   0.27736706 
   30800    279.87011   -990.17425     142814.5   -48834.623     3843.342   -52677.965   0.28535612 
   30900    281.20884   -983.75737    142853.82   -48815.407    3861.7263   -52677.133   0.27324345 
   31000    275.31985   -1019.5139    142839.71   -48848.411    3780.8552   -52629.267   0.28219346 
   31100    275.85341   -968.21461    142829.14   -48857.011    3788.1823   -52645.194   0.27502549 
   31200    281.95056   -1017.1059    142835.04    -48806.55     3871.912   -52678.462    0.2740232 
   31300    286.94117    -1004.904    142855.85   -48736.993    3940.4459   -52677.439   0.28561486 
   31400    278.84235    -981.3102    142868.51    -48853.52    3829.2283   -52682.749    0.2750087 
   31500    284.10783   -990.51657    142877.61   -48807.777    3901.5368   -52709.313   0.26819417 
   31600    277.01888   -1007.3578    142860.62   -48826.145    3804.1872   -52630.332   0.28278467 
   31700     283.7395   -1003.8875    142846.65   -48797.296    3896.4788   -52693.775    0.2867781 
   31800    279.97413   -1002.4041    142841.08   -48856.612    3844.7705   -52701.382   0.26833895 
   31900    274.93821   -969.12441    142848.75   -48849.249    3775.6143   -52624.863   0.27922612 
   32000    277.97245   -1015.4659    142823.51    -48800.72    3817.2822   -52618.002   0.28753052 
   32100    281.02809   -973.92441    142817.39     -48835.9    3859.2441   -52695.144   0.26896588 
   32200    275.33197    -1044.265    142768.04   -48959.396    3781.0216   -52740.418   0.28099271 
   32300    273.78694   -1019.6022    142755.16   -48898.528    3759.8044   -52658.332   0.29211953 
   32400    274.54397   -1013.4052    142778.97   -48991.911    3770.2003   -52762.112    0.2693914 
   32500    275.98136   -972.70197    142786.14   -48848.921    3789.9394    -52638.86   0.27962575 
   32600    277.47544   -1032.2993     142835.1   -48809.172     3810.457   -52619.629   0.28268921 
   32700    274.34113    -1024.234    142834.26   -48895.087    3767.4147   -52662.501   0.28085119 
   32800    278.72135   -1019.8681    142888.93   -48771.319    3827.5665   -52598.885   0.27483371 
   32900    279.11383   -1026.1996    142886.86   -48843.942    3832.9564   -52676.898   0.27812048 
   33000    277.96706   -1011.8739    142861.47   -48826.488    3817.2082   -52643.696    0.2800344 
   33100    275.92012   -987.22388    142835.84   -48859.299    3789.0984   -52648.397   0.27551486 
   33200    277.56221   -1030.6835    142820.78    -48836.48    3811.6486   -52648.129   0.28026637 
   33300    281.84379   -1004.7173    142846.74   -48842.259    3870.4458   -52712.704   0.27355086 
   33400    280.71617   -1005.5201    142838.47   -48861.955    3854.9606   -52716.916   0.27766101 
   33500     272.1575   -1005.1427    142832.65   -48884.484    3737.4279   -52621.912   0.27575705 
   33600    279.82686   -1006.4874       142824   -48899.646     3842.748   -52742.394   0.27254467 
   33700     280.7331   -978.43517    142868.66   -48801.243    3855.1931   -52656.436   0.27575488 
   33800    283.79529   -980.20542    142909.88   -48694.409    3897.2449   -52591.654    0.2712315 
   33900    287.22695   -1007.3345    142893.06   -48720.611    3944.3705   -52664.981   0.27815153 
   34000    279.71958   -1010.6431    142857.84   -48864.617    3841.2748   -52705.892   0.28197524 
   34100    278.54534   -1003.6004    142823.17   -48877.132    3825.1494   -52702.282   0.27865118 
   34200     276.9922   -998.85137    142829.11   -48876.065    3803.8209   -52679.886   0.27026504 
   34300    278.85274   -1000.1922    142815.01   -48909.167    3829.3709   -52738.538   0.27952037 
   34400    281.25584   -974.81532    142817.69   -48840.493    3862.3717   -52702.864   0.27778467 
   34500    282.42364   -1010.5031    142838.62   -48764.695    3878.4086   -52643.104   0.27355884 
   34600    281.84113   -1012.5346    142859.22   -48755.989    3870.4092   -52626.398   0.28926467 
   34700     279.5562   -995.23479    142832.18   -48873.463    3839.0312   -52712.495   0.27716898 
   34800    280.08398   -956.26458    142813.63   -48861.609     3846.279   -52707.888   0.27198699 
   34900    277.85075   -993.64688    142834.44   -48843.829     3815.611    -52659.44   0.28260317 
   35000    277.55215   -970.11501    142826.96   -48819.475    3811.5104   -52630.985   0.28802098 
   35100    281.45888   -1033.0831    142831.37   -48840.703    3865.1599   -52705.863   0.27799002 
   35200    279.71828   -1024.1714     142865.9   -48785.872     3841.257   -52627.129   0.27886004 
   35300    278.17931   -1005.5387    142856.17   -48863.601     3820.123   -52683.724   0.28392023 
   35400    283.83992   -998.40209    142845.43   -48867.718    3897.8577   -52765.576   0.26817172 
   35500     282.6317   -990.59283    142847.55   -48850.718    3881.2658   -52731.984   0.27235654 
   35600    276.98831   -1015.4215    142855.62    -48826.11    3803.7674   -52629.877   0.28833197 
   35700    277.40678   -1042.0772    142833.54   -48833.144     3809.514   -52642.658   0.28477547 
   35800    284.31069   -986.51687     142889.5   -48673.235    3904.3226   -52577.558   0.27366681 
   35900    280.56766   -987.46106    142881.81   -48788.349    3852.9212    -52641.27   0.27735294 
   36000    281.03096   -1036.5242    142870.08   -48842.245    3859.2834   -52701.529   0.27911545 
   36100    276.72099   -1001.0717    142865.89   -48887.945    3800.0964   -52688.041   0.27667273 
   36200    278.61161   -1033.9531     142830.3   -48922.135    3826.0595   -52748.195   0.27736525 
   36300    285.06101    -976.2563    142820.22   -48853.598    3914.6266   -52768.225    0.2781273 
   36400    285.29854   -975.06617    142874.71   -48914.864    3917.8884   -52832.752   0.27527994 
   36500    277.14864   -994.06467    142874.37    -48884.81    3805.9692    -52690.78   0.26680291 
   36600    278.58336    -989.2374    142885.65   -48888.333    3825.6716   -52714.005   0.26993118 
   36700    275.95082   -1008.5195    142870.34   -48925.058      3789.52   -52714.578      0.28436 
   36800    273.72025   -1005.7115    142826.32   -48996.538    3758.8885   -52755.426   0.27040116 
   36900    278.86899   -990.45897    142828.65   -48921.457    3829.5941   -52751.051   0.27171928 
   37000    279.41091   -968.82338    142869.27   -48897.348    3837.0361   -52734.384   0.27893789 
   37100    278.06698   -979.58607     142882.4   -48950.095    3818.5803   -52768.676   0.25977439 
   37200    273.43749    -1004.292    142849.33   -48947.467    3755.0055   -52702.472    0.2712185 
   37300    274.13952   -1019.3509    142862.45   -48950.839    3764.6462   -52715.485   0.28118036 
   37400    278.61329   -984.73771    142856.66   -48956.881    3826.0826   -52782.963   0.27174346 
   37500    274.48521   -1016.7178    142883.28   -48934.994    3769.3934   -52704.388   0.26590973 
   37600    274.11645   -1005.8661    142867.41   -48980.321    3764.3294    -52744.65   0.27617144 
   37700     276.3053    -988.3257    142845.41   -49055.765    3794.3879   -52850.153   0.27180232 
   37800    272.33148   -1008.0272    142801.61   -49074.645     3739.817   -52814.462   0.26459495 
   37900    275.76232   -975.37012    142832.71   -48983.879    3786.9314    -52770.81   0.28102631 
   38000    277.84935   -991.73338    142867.72   -48916.946    3815.5917   -52732.537   0.26903514 
   38100    281.51261   -978.62438    142901.98   -48860.737    3865.8978   -52726.635   0.26589187 
   38200    280.51477   -995.18757    142915.86   -48821.356    3852.1949    -52673.55   0.27031353 
   38300    280.82185   -991.04677    142908.01   -48870.928    3856.4118    -52727.34   0.26559038 
   38400    281.99018   -1010.1734    142904.93   -48804.034    3872.4561    -52676.49   0.27910027 
   38500     276.0694    -992.2776    142917.02    -48861.55    3791.1484   -52652.698   0.27005211 
   38600    284.67109   -977.36375    142899.78   -48820.958    3909.2719    -52730.23   0.26490051 
   38700    280.81006   -980.68623    142908.43   -48792.081      3856.25   -52648.331   0.27729655 
   38800    275.71218   -994.79131    142915.04   -48827.739    3786.2428   -52613.982   0.27045853 
   38900    281.52175   -992.80121    142930.95   -48767.823    3866.0233   -52633.846   0.26506212 
   39000    284.15682   -1038.9729    142921.98   -48828.436    3902.2096   -52730.646   0.27539074 
   39100     273.9335   -999.85604    142879.27   -48845.014     3761.817   -52606.831   0.28079924 
   39200    274.17349   -988.02727    142876.02   -48972.153    3765.1126   -52737.266   0.25914294 
   39300    270.66626    -997.4026    142815.95    -48978.07    3716.9493   -52695.019   0.28276187 
   39400    275.10468     -1012.07    142873.42   -48861.005    3777.9003   -52638.905   0.27588447 
   39500    282.17059    -980.4662    142908.73    -48841.53    3874.9335   -52716.464   0.26070188 
   39600    278.18906   -1025.8539    142913.79   -48843.647    3820.2569   -52663.904   0.27231634 
   39700    281.76282    -985.4386    142921.06   -48829.028    3869.3338   -52698.362   0.27290652 
   39800     281.1804    -998.3137    142912.12   -48852.731    3861.3357   -52714.067    0.2664082 
   39900    277.43078   -1001.6314    142906.96   -48818.324    3809.8436   -52628.168   0.26821702 
   40000     278.2453    -997.4722    142881.85   -48884.827    3821.0291   -52705.857   0.27903118 
   40100    273.97666   -1009.6167    142888.25   -48893.163    3762.4097   -52655.573   0.27144888 
   40200    281.27623   -978.42242    142895.88    -48869.93    3862.6517   -52732.582   0.26600185 
   40300     281.4469   -943.09636    142874.54   -48876.841    3864.9955   -52741.836   0.27279842 
   40400    275.68794   -1005.9445    142833.14    -48961.55    3785.9099    -52747.46   0.26763533 
   40500     280.7272    -972.9006    142866.52   -48833.075    3855.1121   -52688.187   0.27702497 
   40600    278.73853   -991.90853    142863.81   -48899.212    3827.8024   -52727.015   0.26732581 
   40700    275.52276   -979.52717    142837.59   -48901.351    3783.6416   -52684.992   0.27258063 
   40800    273.80466   -986.18333    142832.84   -48872.616    3760.0477   -52632.663   0.28220547 
   40900    281.75072   -969.58922    142827.56   -48860.016    3869.1676   -52729.183   0.26770985 
   41000    279.27172   -1006.5125    142841.08   -48929.389    3835.1246   -52764.514   0.27518676 
   41100    276.46879   -1009.7369       142813   -48893.925    3796.6331   -52690.558   0.28230705 
   41200    281.58061    -950.9465    142857.13   -48781.843    3866.8317   -52648.674   0.27331787 
   41300     279.0232   -1026.2785    142873.08    -48864.98    3831.7117   -52696.691   0.27113249 
   41400     280.7582   -989.07599    142900.08   -48806.173    3855.5377   -52661.711   0.28334989 
   41500    282.48402   -1015.0019    142907.47   -48829.447    3879.2378   -52708.685   0.27095912 
   41600    279.85136   -1009.7982    142887.99   -48833.712    3843.0846   -52676.796   0.26519592 
   41700    272.08083   -985.96563    142852.19   -48935.399     3736.375   -52671.774   0.28277561 
   41800    274.79063   -1015.1925    142857.09    -48856.05    3773.5876   -52629.638   0.28520919 
   41900    272.99693    -1034.983    142834.67   -48934.488    3748.9554   -52683.444   0.26899085 
   42000    277.53639   -987.16826    142827.49   -48905.903    3811.2939   -52717.197   0.27848983 
   42100    277.60412   -1029.2663    142774.11   -48969.943    3812.2241   -52782.168   0.28882117 
   42200    272.90508   -973.36869    142791.42    -48933.61    3747.6941   -52681.304   0.27257032 
   42300    271.84699   -1033.4085    142807.55   -48895.739    3733.1638   -52628.903   0.28133666 
   42400    276.19999   -1022.6737    142816.33   -48922.837    3792.9418   -52715.779   0.28579367 
   42500    278.95095   -1026.7232    142830.53   -48884.235    3830.7196   -52714.954   0.27305529 
   42600    276.22483   -995.07856    142838.17   -48915.025    3793.2829   -52708.308   0.27451711 
   42700    275.35206   -1012.4608    142806.74   -48990.068    3781.2975   -52771.366   0.27482188 
   42800    276.91872   -976.16642    142833.61   -48906.982    3802.8117   -52709.793   0.28252583 
   42900    274.49194   -982.71768    142836.35    -48921.76    3769.4859   -52691.246    0.2715898 
   43000    273.19242   -1038.8181    142855.22   -48947.761      3751.64   -52699.401   0.28027274 
   43100     277.2876   -979.26501    142888.43   -48873.389    3807.8774   -52681.267    0.2781383 
   43200     275.7546   -1018.6675    142892.55   -48886.745    3786.8253   -52673.571   0.27003186 
   43300    276.21307   -1015.4729    142854.52   -48877.294    3793.1214   -52670.415   0.28255041 
   43400    278.84507   -988.84061    142882.07   -48813.428    3829.2655   -52642.694   0.27468199 
   43500    283.29362   -978.82233    142892.66     -48866.9    3890.3556   -52757.256   0.27144874 
   43600     279.6065   -991.27955    142877.78   -48909.938    3839.7219    -52749.66   0.27017402 
   43700    276.73122   -976.17514    142824.97   -48946.954     3800.237   -52747.191   0.26590055 
   43800    275.43602    -1002.099    142822.17   -48987.187    3782.4504   -52769.637   0.27707928 
   43900    277.55912   -983.81656     142839.5   -48896.256    3811.6061   -52707.862   0.27829199 
   44000    269.37815   -986.19812     142835.7   -48984.271    3699.2602   -52683.531    0.2660095 
   44100    276.89511   -956.75998    142817.28   -48936.458    3802.4876   -52738.945   0.27512415 
   44200    277.14263   -1015.8508    142865.53   -48899.641    3805.8867   -52705.528   0.27746206 
   44300    275.00317    -996.1628    142861.29   -48905.783    3776.5063    -52682.29   0.26614858 
   44400     276.2199   -994.16269     142869.7   -48918.512    3793.2152   -52711.727   0.27238244 
   44500    276.90261   -982.22859     142855.6   -48926.749    3802.5905    -52729.34   0.27890937 
   44600    276.38991   -1027.1194    142845.51   -48928.333    3795.5499   -52723.883   0.26568549 
   44700    274.64779   -1005.2355     142846.5   -48918.199     3771.626   -52689.825   0.26785905 
   44800    280.14651   -972.14014    142860.74   -48874.955    3847.1376   -52722.093   0.27495927 
   44900    275.96806   -1015.6793    142862.47   -48857.461    3789.7568   -52647.218   0.27170786 
   45000    276.97081   -1020.3913    142876.33   -48903.202    3803.5271   -52706.729    0.2692943 
   45100    285.11417    -989.5357    142914.57   -48790.105    3915.3565   -52705.462    0.2827075 
   45200    280.80098   -999.92914    142933.53   -48823.878    3856.1253   -52680.004   0.26447379 
   45300    276.37855   -996.32724    142898.07   -48850.717    3795.3938   -52646.111   0.26524635 
   45400    277.77496   -987.22808    142852.41   -48905.713    3814.5702   -52720.283   0.27945937 
   45500    276.33069   -993.88453    142867.52   -48846.563    3794.7366   -52641.299   0.26753979 
   45600     280.6804   -997.88478    142883.28   -48844.531    3854.4694       -52699   0.26676813 
   45700    280.41943    -1011.961    142856.25   -48790.422    3850.8855   -52641.308   0.28234173 
   45800    274.70403   -1020.3649    142871.66   -48862.889    3772.3983   -52635.287   0.27186881 
   45900    283.41272   -997.71009    142878.79   -48736.699    3891.9913    -52628.69   0.28195085 
   46000    282.38719   -997.34147    142878.01   -48799.945     3877.908   -52677.853   0.27376529 
   46100    280.97387   -1029.3031    142906.92   -48712.092    3858.4996   -52570.592   0.27844798 
   46200    286.00917   -1015.0727    142886.45    -48755.32    3927.6472   -52682.967   0.27964719 
   46300    286.35897   -988.66408    142891.65   -48755.372    3932.4509   -52687.823   0.27242697 
   46400    282.56662   -993.71457    142851.91   -48790.289    3880.3721   -52670.661   0.27699692 
   46500    283.83984   -985.47423    142894.02   -48763.312    3897.8567   -52661.168   0.27420824 
   46600    280.98496   -1002.0967    142867.53   -48819.154    3858.6518   -52677.806   0.28546506 
   46700    282.83881   -960.71824    142880.21   -48755.052      3884.11   -52639.162   0.26962993 
   46800    283.44737   -1011.7654    142894.66   -48763.259    3892.4671   -52655.726   0.27653144 
   46900    277.28293   -983.33641    142879.37   -48818.501    3807.8133   -52626.314   0.28798009 
   47000    279.43286   -988.37456    142897.33   -48845.223    3837.3375    -52682.56   0.26791413 
   47100    276.30257   -1055.4382    142879.36   -48854.727    3794.3504   -52649.077    0.2937245 
   47200    282.22324   -982.50193    142856.87    -48821.99    3875.6566   -52697.646    0.2896279 
   47300    276.59606   -974.95404    142872.81   -48943.085    3798.3808   -52741.466   0.26329871 
   47400    278.85469   -979.38185    142851.73   -48878.411    3829.3977   -52707.809   0.28092168 
   47500    275.10447   -955.61662    142868.12   -48884.655    3777.8974   -52662.553   0.28065841 
   47600     277.8672   -1011.6065    142847.07   -48885.375    3815.8369   -52701.212   0.26874086 
   47700     282.6242   -947.45887     142875.2   -48812.809    3881.1628   -52693.972   0.27626892 
   47800     275.9127   -1023.7487    142850.51    -48876.02    3788.9966   -52665.017   0.29068961 
   47900    280.30093   -1001.3202    142827.93   -48927.688    3849.2583   -52776.947   0.27138633 
   48000    278.87687   -996.38846    142819.68   -48881.558    3829.7023    -52711.26   0.27865046 
   48100    278.05911   -992.99968    142831.13   -48929.558    3818.4723   -52748.031   0.28376691 
   48200    278.73659   -968.52884    142808.79   -48913.406    3827.7758   -52741.182    0.2798756 
   48300    281.58264   -974.71298    142838.04   -48871.226    3866.8595   -52738.085   0.27313174 
   48400    278.83928    -1008.352     142845.8   -48910.488     3829.186   -52739.674   0.28356132 
   48500    271.85101   -1028.3379    142819.03   -48988.963     3733.219   -52722.182   0.28248784 
   48600    271.28587   -1012.6833    142796.94   -48983.684    3725.4581   -52709.142   0.27492077 
   48700    274.80725   -990.54861    142803.87   -48877.157    3773.8158   -52650.973   0.29229817 
   48800    281.76232   -986.94865    142831.62   -48866.904    3869.3269   -52736.231   0.27517813 
   48900    273.73252   -995.21421     142873.9   -48890.045     3759.057   -52649.102   0.27762106 
   49000    274.42679   -992.04078    142853.65   -48923.471    3768.5911   -52692.062   0.28311948 
   49100    277.04743    -990.7568    142897.03   -48846.055    3804.5793   -52650.635   0.27046747 
   49200    279.23879   -1007.0687    142921.02   -48877.441    3834.6724   -52712.113   0.27870117 
   49300    280.52026   -1032.7129    142895.93   -48945.493    3852.2702   -52797.763   0.27189231 
   49400    278.36765   -989.46447     142883.8   -48961.657    3822.7093   -52784.366   0.26862264 
   49500    275.52443   -997.58655    142901.83   -48903.882    3783.6645   -52687.547   0.27588097 
   49600    275.83207   -961.24819    142895.66   -48900.888    3787.8893   -52688.777   0.26979634 
   49700    274.59664    -1010.133    142872.06   -48906.332    3770.9236   -52677.256     0.274115 
   49800    276.78632    -1012.007    142847.34   -48911.522    3800.9936   -52712.516   0.27941852 
   49900    276.62461   -985.04281    142860.66   -48894.758    3798.7728   -52693.531   0.27671804 
   50000     277.3618    -988.5149    142860.88   -48901.686    3808.8964   -52710.582   0.26912999 
   50100    281.49226   -969.07649    142892.36   -48762.819    3865.6183   -52628.437   0.28077839 
   50200    278.67014   -1014.4012    142888.87   -48835.571    3826.8633   -52662.435   0.27847344 
   50300    278.63227   -1009.4454    142859.61   -48848.597    3826.3432    -52674.94   0.26948751 
   50400    275.02171    -1007.745    142861.21   -48866.778    3776.7609   -52643.539   0.27969695 
   50500    278.20088   -994.51931    142857.75   -48776.035    3820.4191   -52596.454   0.28605935 
   50600    284.22336   -982.29662    142909.76   -48701.068    3903.1235   -52604.192   0.26638113 
   50700    280.20945   -1028.4466    142845.95   -48935.814    3848.0021   -52783.816   0.27473568 
   50800    280.78415   -1001.3671    142777.87   -48911.965    3855.8942   -52767.859   0.28412859 
   50900     276.6517   -1005.4929    142785.01   -48937.718    3799.1449   -52736.863   0.26944179 
   51000    277.02418   -963.49184    142795.87   -48893.891      3804.26   -52698.151   0.27709368 
   51100    276.43572   -1016.4048    142803.51   -48909.157    3796.1789   -52705.336   0.28154214 
   51200    276.91076   -971.67655    142791.31   -48963.059    3802.7025   -52765.762   0.26798009 
   51300    275.68362   -984.11888    142797.06   -48975.661    3785.8507   -52761.512   0.27017247 
   51400    278.30989   -991.11724    142814.66   -48916.129    3821.9162   -52738.045   0.27373829 
   51500    272.24886   -995.48141    142782.78    -48968.28    3738.6825   -52706.962   0.27552166 
   51600    279.38799   -1003.7891    142812.25   -48890.718    3836.7213   -52727.439   0.27220189 
   51700    282.65368   -986.84032    142847.75   -48793.915    3881.5677   -52675.483   0.27967657 
   51800    279.36922   -998.56225    142824.06   -48833.496    3836.4635   -52669.959   0.27661251 
   51900    274.75634   -997.03819    142828.27   -48896.946    3773.1167   -52670.063   0.26833496 
   52000    275.52511    -998.1748    142807.46    -48879.18    3783.6738   -52662.854   0.28415692 
   52100    282.15365   -993.11487    142781.55   -48953.061    3874.7009   -52827.762   0.27363351 
   52200    271.08932   -996.35865    142770.57   -49005.985     3722.759   -52728.744   0.27076382 
   52300    272.52493   -1014.2663     142758.3   -48987.286    3742.4737    -52729.76   0.28126295 
   52400    271.92762   -983.73719    142745.12   -49074.406    3734.2711   -52808.677   0.26721699 
   52500    274.35292   -954.91863    142769.05   -48925.876    3767.5767   -52693.453   0.27429733 
   52600    278.18518   -994.28963    142812.86   -48897.783    3820.2035   -52717.987   0.27788855 
   52700    279.57055    -1007.924    142795.23   -48831.971    3839.2283   -52671.199   0.27197393 
   52800    276.67362   -1016.7287    142866.18   -48804.879    3799.4459   -52604.325   0.28477916 
   52900    281.30391    -1015.426    142907.49   -48830.735    3863.0317   -52693.767    0.2731804 
   53000    276.89233   -1001.3651    142872.63   -48775.475    3802.4493   -52577.925   0.28154871 
   53100    275.45946   -1001.5269    142850.13   -48913.142    3782.7723   -52695.914   0.27070182 
   53200     270.9571   -971.43039    142827.46   -48959.575    3720.9433   -52680.518   0.28149351 
   53300    276.11853    -989.4374    142836.16   -48923.551    3791.8231   -52715.374   0.27175479 
   53400    278.47249   -976.71684    142875.81   -48862.272     3824.149   -52686.421   0.26697847 
   53500    276.29704   -999.57376    142860.37   -48846.384    3794.2744   -52640.659   0.28678849 
   53600    277.19828   -1034.0043    142851.27   -48913.658    3806.6509   -52720.309   0.26650822 
   53700    277.97901   -1008.5961    142861.55   -48896.524    3817.3723   -52713.896   0.26725406 
   53800    273.61867    -1002.226    142822.04   -48917.213    3757.4935   -52674.706   0.28728187 
   53900    274.51007   -986.25914    142863.82   -48920.895    3769.7348    -52690.63   0.27511009 
   54000    276.41587    -999.0431    142848.43   -48936.239    3795.9063   -52732.145     0.263971 
   54100     276.6474   -1024.1072    142873.56   -48908.758    3799.0858   -52707.843   0.28283806 
   54200    278.92554    -979.8935    142881.25   -48860.803    3830.3706   -52691.173   0.27374636 
   54300    281.35706   -999.29318    142925.14   -48791.847    3863.7617   -52655.609   0.26286166 
   54400     282.6414    -987.5644     142919.7   -48709.962    3881.3991   -52591.361   0.27779168 
   54500    281.68218   -976.50566    142927.42   -48782.783    3868.2264   -52651.009   0.27544951 
   54600    285.98875   -988.25613    142914.05   -48798.181    3927.3668   -52725.548   0.26202412 
   54700    277.06145   -986.07789    142908.11   -48855.122    3804.7718   -52659.894   0.27110347 
   54800    280.58616   -992.26289    142931.97   -48792.458    3853.1753   -52645.633   0.27313417 
   54900     283.1701    -1009.669    142928.01   -48803.288    3888.6594   -52691.947   0.26491968 
   55000    285.05024    -998.5671    142952.41     -48834.9    3914.4786   -52749.378   0.26503525 
   55100    277.15613   -1025.2226    142902.91   -48850.517     3806.072   -52656.589   0.27782962 
   55200     284.0489   -1011.3823    142862.63   -48963.463    3900.7276    -52864.19   0.26443604 
   55300    275.48616   -974.73608    142816.34   -49004.903     3783.139   -52788.042   0.26528733 
   55400    275.78008   -966.41787    142809.59   -48967.791    3787.1753   -52754.966     0.269883 
   55500    274.21562   -994.41365    142832.39   -48927.213    3765.6912   -52692.905   0.27355616 
   55600    277.27868   -995.93195    142875.79   -48821.456     3807.755   -52629.211   0.27674156 
   55700     278.1885   -1015.7881    142877.35   -48779.627    3820.2491   -52599.876   0.27967209 
   55800    284.27245   -965.00269     142921.8   -48768.756    3903.7976   -52672.554    0.2715453 
   55900    275.94683     -1023.42    142920.38   -48780.661    3789.4651   -52570.127   0.27490308 
   56000    280.82089   -987.78732    142926.67   -48794.983    3856.3987   -52651.382   0.27046437 
   56100    284.09691     -975.698     142931.6   -48782.971    3901.3869   -52684.358   0.26370179 
   56200    280.87569   -1021.3994    142923.05   -48824.316    3857.1512   -52681.467   0.28131542 
   56300    276.45206   -1079.0052    142889.72    -48890.18    3796.4033   -52686.583   0.27254891 
   56400     277.1608   -999.41002    142856.05   -48936.536    3806.1362   -52742.672   0.26299967 
   56500    272.95126   -993.52741     142817.5   -48984.487    3748.3283   -52732.815   0.27435413 
   56600    269.32213    -1019.786    142814.81   -49044.235    3698.4909   -52742.725   0.26671325 
   56700    270.87603   -1003.3818    142829.53   -49017.532      3719.83   -52737.362   0.26064026 
   56800     273.9854    -986.2871    142885.07    -48918.71    3762.5297    -52681.24   0.27366702 
   56900    273.13578   -998.64268     142878.9   -49007.669    3750.8622   -52758.532   0.26732873 
   57000    272.40955   -1014.6705    142868.02   -48997.132    3740.8892   -52738.021   0.26075163 
   57100    280.16298   -1029.4151     142862.7   -48920.249    3847.3638   -52767.613   0.27535656 
   57200    280.44407   -994.92927    142853.29   -48866.878     3851.224   -52718.102   0.27863433 
   57300     274.6525   -1012.5094    142818.29   -48999.039    3771.6907    -52770.73   0.26069275 
   57400    277.15871    -1002.153     142820.7   -48873.981    3806.1074   -52680.088    0.2742932 
   57500    282.35498   -980.68643    142861.27   -48844.684    3877.4657    -52722.15   0.28400708 
   57600    281.45892   -993.73444     142853.4   -48954.457    3865.1604   -52819.618   0.25833286 
   57700    278.24251   -975.67414    142864.01   -48868.868    3820.9908   -52689.859   0.27155955 
   57800    283.33509   -963.24279    142899.05   -48820.874    3890.9252   -52711.799   0.27748979 
   57900    283.12729   -961.90733    142914.25   -48856.363    3888.0715   -52744.435   0.26210408 
   58000     278.4195   -982.25831    142893.85   -48813.427    3823.4214   -52636.848   0.27476592 
   58100    279.84192   -994.60518     142902.9    -48857.58    3842.9548   -52700.535   0.26828955 
   58200    283.34584    -987.5108    142898.94   -48755.503    3891.0728   -52646.576   0.27463545 
   58300    281.13101   -975.69697    142890.38   -48822.966    3860.6574   -52683.624   0.27246348 
   58400    280.26275   -993.63061     142850.2   -48865.192    3848.7339   -52713.926   0.27747152 
   58500    279.28452   -966.49402    142838.74   -48864.988    3835.3003   -52700.288   0.27514527 
   58600    277.73336   -970.93838     142837.8    -48897.43    3813.9989   -52711.429   0.27646721 
   58700    281.11623   -1022.2253    142844.44   -48861.712    3860.4545   -52722.167   0.27349194 
   58800    280.67152    -989.4607    142827.63   -48899.681    3854.3474   -52754.028   0.27280007 
   58900    274.41567   -1053.6356    142857.66   -48825.363    3768.4384   -52593.802   0.29074592 
   59000     281.8334   -983.51174    142877.94   -48788.618    3870.3031   -52658.921   0.27186895 
   59100    283.14578   -976.43323    142882.66   -48746.941    3888.3254   -52635.267   0.27030798 
   59200    275.73335   -998.50885     142876.1    -48867.25    3786.5335   -52653.784   0.28708558 
   59300    279.51484   -992.17929    142866.14     -48853.3    3838.4632   -52691.763    0.2722927 
   59400    275.84398    -978.9336    142878.53   -48839.723    3788.0528   -52627.775   0.26589323 
   59500    277.92555   -995.43316     142861.9   -48945.465    3816.6381   -52762.103   0.27864116 
   59600     275.4864   -1011.6192    142848.41   -48916.037    3783.1423   -52699.179    0.2741412 
   59700    274.84451   -1013.3957    142846.29   -48846.476    3774.3275   -52620.804   0.27148797 
   59800    269.26126   -1018.5062     142827.1   -48958.154    3697.6551   -52655.809   0.28298924 
   59900    271.59428   -1027.5559    142808.89   -48952.743    3729.6935   -52682.437   0.28375979 
   60000    279.22249   -989.93533    142823.02   -48923.195    3834.4484   -52757.644    0.2653139 
   60100    277.57394   -1009.6139    142810.93    -48879.21    3811.8096   -52691.019   0.27646214 
   60200    280.18944   -1016.4773    142818.95   -48851.767    3847.7272   -52699.494   0.28164857 
   60300    282.34974   -1009.7756    142829.99   -48806.919    3877.3937   -52684.313   0.27931879 
   60400    283.54748    -1013.494     142867.4    -48756.83    3893.8418   -52650.672   0.27329183 
   60500    285.64057     -1041.49    142872.72   -48780.776    3922.5854   -52703.362   0.28740492 
   60600    279.38378   -1006.2093     142857.9   -48841.429    3836.6635   -52678.093   0.28472842 
   60700    284.19709     -983.077    142892.45   -48667.114    3902.7626   -52569.877   0.27513952 
   60800    282.62317   -971.20649    142918.69    -48690.47    3881.1487   -52571.619   0.28116147 
   60900    277.04916   -997.66911    142902.04   -48779.694    3804.6031   -52584.297   0.28536977 
   61000    277.99985   -1046.0761    142859.69   -48824.692    3817.6585   -52642.351   0.27405479 
   61100    282.88958   -1042.4084    142857.51   -48811.736    3884.8071   -52696.543   0.28299645 
   61200    279.29041   -965.99119    142877.35   -48757.575    3835.3812   -52592.956   0.28870725 
   61300    274.53267   -1045.2943     142854.3   -48847.477    3770.0451   -52617.522   0.27964836 
   61400    276.30004   -1047.0417    142831.14   -48901.163    3794.3157   -52695.479   0.28184291 
   61500    281.46481   -993.87976    142832.99    -48840.02    3865.2414   -52705.262   0.28309225 
   61600    276.88207   -1002.0697    142834.23   -48885.306    3802.3085   -52687.615   0.27754432 
   61700    273.25604   -1020.6406    142798.76   -48948.029    3752.5137   -52700.543    0.2761344 
   61800     273.7087   -981.55797    142786.95   -48931.178    3758.7299   -52689.908   0.28621494 
   61900    277.11589    -959.7867    142823.79   -48830.516    3805.5194   -52636.035   0.27944293 
   62000    280.47583   -986.21949    142834.34       -48842      3851.66    -52693.66   0.28158332 
   62100    279.96612   -1007.7969    142835.02   -48909.842    3844.6604   -52754.502   0.28299337 
   62200    276.43653   -1002.5634    142872.49   -48810.866    3796.1901   -52607.056   0.28196224 
   62300    279.39627   -989.38386    142844.34    -48857.58     3836.835   -52694.415   0.28259194 
   62400    275.79849   -1037.3492     142815.3    -48902.37    3787.4281   -52689.798   0.28332812 
   62500    278.77259   -967.25526    142844.71     -48892.6    3828.2702    -52720.87   0.27238743 
   62600    274.16242   -1002.9906       142802   -48912.516    3764.9606   -52677.477   0.29674269 
   62700    274.05475   -1026.5104    142769.58   -48951.167    3763.4821    -52714.65   0.28435737 
   62800    274.20909   -1008.2394    142765.29   -48926.615    3765.6015   -52692.217    0.2740951 
   62900    278.79977   -969.96146    142813.27   -48835.557    3828.6435   -52664.201   0.29037854 
   63000    280.31014   -978.48356    142793.88   -48860.828    3849.3848   -52710.213    0.2856466 
   63100    281.00799   -1006.9982    142759.67   -48930.132     3858.968     -52789.1   0.27169536 
   63200    280.79942   -987.72281     142817.9   -48820.652    3856.1038   -52676.756   0.28961217 
   63300    275.18935   -998.72936    142798.51   -48912.403     3779.063   -52691.466    0.2899256 
   63400    276.83949   -992.43904    142791.76   -49004.854    3801.7238   -52806.578   0.26375834 
   63500     277.7541   -991.82806    142762.33    -48972.86    3814.2837   -52787.144   0.28488584 
   63600     270.3564    -1026.056    142751.04   -49024.553    3712.6941   -52737.247   0.29646302 
   63700    277.64164   -1014.9242     142752.3   -48990.241    3812.7394    -52802.98   0.26851782 
   63800      273.676   -1027.4053    142736.44   -49058.111    3758.2808   -52816.392   0.28221659 
   63900    273.18482   -971.16451    142753.32   -48953.188    3751.5357   -52704.723   0.29242434 
   64000    281.01227   -976.00411    142797.44   -48871.469    3859.0268   -52730.496   0.27103257 
   64100    280.64216   -1020.8407    142854.42   -48825.743    3853.9442   -52679.687   0.28225962 
   64200     282.4975   -999.05053    142871.46   -48813.057    3879.4229    -52692.48   0.28206785 
   64300    281.87617   -999.67461    142843.24   -48849.386    3870.8904   -52720.277    0.2804285 
   64400    276.22804   -1030.3291    142823.67    -48910.47    3793.3269   -52703.797   0.27941685 
   64500    277.15698      -1013.2    142806.22   -48902.209    3806.0837   -52708.293   0.28413597 
   64600    279.18973    -987.7664    142812.88   -48932.042    3833.9987   -52766.041   0.27779068 
   64700     273.7977   -983.93395    142786.73   -48934.713     3759.952   -52694.665   0.28294618 
   64800    278.21004   -974.62559     142796.7   -48882.413    3820.5449   -52702.958   0.28358437 
   64900     280.1186   -996.88533    142845.76   -48802.348    3846.7544   -52649.103   0.27661791 
   65000    279.72148    -1031.073    142874.76   -48790.782    3841.3009   -52632.083    0.2864528 
   65100    277.78548   -1002.4904    142856.52   -48854.894    3814.7147   -52669.609   0.28277114 
   65200    279.10013    -1007.773    142847.74   -48874.795    3832.7682   -52707.563   0.27218785 
   65300    284.38176   -1005.3286    142864.34   -48816.011    3905.2987    -52721.31    0.2852253 
   65400    277.12508   -979.47489    142834.38   -48852.987    3805.6457   -52658.633   0.28428588 
   65500     279.5694   -975.13437    142858.79   -48786.537    3839.2125    -52625.75    0.2682334 
   65600    276.76449   -1009.4358    142883.88   -48798.689    3800.6938   -52599.382   0.29519943 
   65700    285.28836   -1015.8338    142913.08    -48769.66    3917.7486   -52687.408   0.28354518 
   65800    281.99676   -1022.2751    142895.21   -48830.608    3872.5465   -52703.155   0.26360054 
   65900    279.82276   -1004.7455    142923.23    -48844.69    3842.6918   -52687.382   0.27846139 
   66000    278.23061   -986.67213    142887.85   -48850.944    3820.8275   -52671.771    0.2861404 
   66100    282.11658    -985.3913    142891.68   -48827.608    3874.1918     -52701.8   0.27064955 
   66200     274.6514   -994.09888    142824.81   -48948.635    3771.6756   -52720.311   0.28160144 
   66300    277.98095   -965.80078    142823.41   -48883.413    3817.3989   -52700.812   0.28899398 
   66400    279.96445   -960.32451    142832.39   -48885.849    3844.6376   -52730.486   0.27258769 
   66500    277.30011   -1009.6943    142847.06   -48917.815    3808.0492   -52725.864   0.28689607 
   66600    277.34586   -1015.3381    142821.68   -48926.345    3808.6776   -52735.023   0.28806021 
   66700    273.62593   -972.84942    142833.03   -48906.121    3757.5933   -52663.714   0.27522372 
   66800    275.00455    -1020.905    142845.83   -48932.768    3776.5253   -52709.293    0.2805624 
   66900    276.56111   -992.73441    142820.95   -48945.524    3797.9009   -52743.425   0.28639369 
   67000    270.84736   -1020.8437    142770.22   -49043.567    3719.4363   -52763.003   0.27864999 
   67100     280.7478   -959.88005    142768.71   -48884.464     3855.395   -52739.859   0.28479156 
   67200    271.35836   -1042.7291    142783.14    -48979.79    3726.4536   -52706.243   0.29455939 
   67300    272.02634   -989.96004    142767.07   -48900.242    3735.6267   -52635.868   0.28655211 
   67400    278.32555   -1000.5467    142807.86   -48889.531    3822.1312   -52711.662   0.28574704 
   67500    281.15607   -994.82057     142806.4   -48868.223    3861.0016   -52729.224   0.29202558 
   67600    281.34397   -984.52436    142845.66   -48734.593     3863.582   -52598.175   0.28340222 
   67700    282.96145   -996.49996    142858.14   -48803.506    3885.7941     -52689.3    0.2957198 
   67800    278.00487   -1054.6787    142851.28   -48837.474    3817.7274   -52655.201   0.29333307 
   67900    279.80026    -978.8827    142820.93   -48867.251    3842.3827   -52709.634   0.27609689 
   68000    274.77442   -998.49413     142833.8    -48906.25     3773.365   -52679.615   0.29258043 
   68100    279.10209   -982.94304    142824.91   -48912.839    3832.7951   -52745.634    0.2861826 
   68200    276.71433   -989.31002    142841.14   -48885.191    3800.0049   -52685.196   0.27350738 
   68300    277.80116   -988.61304     142844.3   -48832.318      3814.93   -52647.248   0.28869844 
   68400     281.9916   -981.60816    142855.65   -48794.158    3872.4755   -52666.634   0.28863579 
   68500    277.78349   -1010.0311    142863.02   -48789.465    3814.6873   -52604.152   0.27439153 
   68600    272.70667   -1014.9424    142849.12   -48882.981    3744.9694   -52627.951   0.29260044 
   68700    274.11169    -1013.491    142833.49   -48852.247    3764.2639   -52616.511   0.29601488 
   68800    276.89368   -1012.0579    142853.47   -48856.567    3802.4678   -52659.035   0.26986996 
   68900    275.14112   -1011.4915    142846.69   -48856.961    3778.4008   -52635.361   0.29596502 
   69000    279.23931   -1023.6913    142859.12   -48854.803    3834.6794   -52689.483   0.29886098 
   69100    279.42901   -1008.5566    142818.23   -48922.048    3837.2845   -52759.332   0.26545272 
   69200     278.4094   -997.41137    142785.21   -48932.101    3823.2827   -52755.384   0.29022975 
   69300    273.73213   -1033.7216    142789.76   -48965.039    3759.0516   -52724.091   0.29261596 
   69400    271.91094   -1012.2836    142776.44   -49011.926     3734.042   -52745.968   0.27501038 
   69500    275.25599   -977.07779    142782.99    -48878.11    3779.9782   -52658.088    0.2852421 
   69600    282.14973   -1019.5985    142859.34   -48776.471     3874.647   -52651.118    0.2954999 
   69700    276.18191   -1021.4813    142829.66   -48864.987    3792.6934   -52657.681   0.28432392 
   69800    280.70287   -986.23731    142816.79   -48864.006    3854.7779   -52718.784    0.2781399 
   69900    275.05443   -1002.8088    142788.48   -48953.645    3777.2102   -52730.855   0.29685572 
   70000    276.63534   -984.02226    142792.57   -48882.666    3798.9203   -52681.587   0.27397314 
   70100    272.15301   -1036.4866    142748.25   -48998.443    3737.3662   -52735.809   0.29139695 
   70200    277.17308    -993.9685    142806.05   -48841.099    3806.3048   -52647.403   0.29955281 
   70300    276.71579   -1036.5629    142815.08   -48853.919     3800.025   -52653.944   0.28031778 
   70400       282.12   -1018.0704    142846.77   -48747.512    3874.2389   -52621.751   0.29200242 
   70500     277.9271   -1011.9243    142816.28   -48814.723    3816.6594   -52631.382   0.29067891 
   70600     286.3573   -990.25367    142795.87   -48872.472    3932.4279     -52804.9   0.27882223 
   70700    287.32337    -997.4127    142812.29   -48843.547    3945.6945   -52789.242   0.28343279 
   70800    276.77503   -1004.1186    142816.19   -48875.747    3800.8385   -52676.586    0.2872859 
   70900    275.47219   -990.23251    142826.17   -48871.511    3782.9472   -52654.458   0.27725763 
   71000    275.63365   -1020.5367     142837.3    -48890.65    3785.1645   -52675.815   0.28307577 
   71100    275.97977   -981.20967    142809.96   -48881.113    3789.9175   -52671.031    0.2823178 
   71200    269.53241   -1053.9969     142817.9   -48913.274    3701.3786   -52614.652   0.28483474 
   71300    279.96613   -1005.5103    142807.81    -48972.26    3844.6607    -52816.92   0.28100077 
   71400    278.19601   -985.44773    142821.91   -48910.466    3820.3522   -52730.819   0.28334105 
   71500    281.31767   -961.67682    142798.53   -48862.525    3863.2207   -52725.746    0.2782206 
   71600    277.51133    -1010.206    142802.24   -48886.735    3810.9498   -52697.685   0.28690159 
   71700    277.36906    -985.5729    142801.92   -48876.153    3808.9961   -52685.149   0.28658765 
   71800    273.20742   -1011.2304    142757.98   -49041.203     3751.846   -52793.049   0.28046405 
   71900    274.66449   -986.54129    142757.05   -48981.187    3771.8554   -52753.042   0.28679828 
   72000    280.08855   -1004.1045    142781.04   -48954.664    3846.3417   -52801.005    0.2937019 
   72100    275.83371    -986.7651    142779.41   -48814.157    3787.9117   -52602.068   0.28162867 
   72200    282.36106   -976.53605     142839.1   -48702.991    3877.5493    -52580.54   0.29773078 
   72300    282.02552   -996.62462    142883.12    -48684.09    3872.9413   -52557.031   0.29561475 
   72400    281.35261   -972.73576    142855.18   -48800.206    3863.7006   -52663.906   0.27547618 
   72500    278.96135    -1001.023    142813.63   -48793.517    3830.8624    -52624.38   0.29071706 
   72600     282.6502   -1037.5186    142829.81   -48735.695    3881.5198   -52617.215   0.29554858 
   72700    274.65775   -1019.0018    142828.62   -48897.181    3771.7628   -52668.944   0.28088654 
   72800    275.68293   -1035.1091    142820.25     -48828.6    3785.8412   -52614.441   0.28388308 
   72900    279.74713   -1026.3466    142831.48   -48838.237    3841.6532   -52679.891   0.29893664 
   73000    279.22894   -997.59219    142808.53    -48849.95     3834.537   -52684.487   0.28541622 
   73100     277.4707   -1012.6413     142810.5   -48805.455    3810.3919   -52615.847   0.28164784 
   73200    282.14023   -995.76189    142849.13   -48796.974    3874.5166   -52671.491   0.29223612 
   73300    279.56533   -995.70541    142889.06   -48769.172    3839.1566   -52608.329    0.2842685 
   73400    279.03908   -988.91834    142917.44    -48754.05    3831.9298    -52585.98   0.26832512 
   73500    280.22671   -1013.3228    142918.62   -48763.087    3848.2391   -52611.326   0.29838967 
   73600    280.13676   -981.32857    142941.22   -48807.377    3847.0039    -52654.38   0.27436994 
   73700    275.63381    -1037.224    142882.19   -48868.208    3785.1667   -52653.375   0.28140511 
   73800    271.47438    -1008.624    142833.32   -48952.237    3728.0468   -52680.284   0.29288855 
   73900    276.96138   -995.62723    142813.59   -48933.391    3803.3977   -52736.789   0.27608244 
   74000    271.95823    -1019.668    142813.04   -48863.534    3734.6914   -52598.225   0.28584309 
   74100     281.7883   -1007.2594    142867.25   -48696.041    3869.6837   -52565.725   0.29516297 
   74200    276.74058    -990.1189     142862.5   -48857.701    3800.3655   -52658.066   0.27548728 
   74300    276.89261   -1000.6038    142847.14   -48857.646    3802.4533   -52660.099   0.28393924 
   74400    278.91697   -1033.8982    142831.32   -48893.437     3830.253    -52723.69   0.28985884 
   74500    277.27724    -1001.608    142807.68   -48904.131    3807.7352   -52711.866   0.26888356 
   74600    275.65179   -1042.6423    142837.98   -48913.997    3785.4135    -52699.41   0.29005564 
   74700    277.80215    -991.6451    142854.53   -48823.022    3814.9436   -52637.966   0.29052797 
   74800    279.66926   -1007.0149    142841.35   -48881.758    3840.5838   -52722.341   0.26895865 
   74900    277.88464   -1037.7291    142848.98   -48887.908    3816.0764   -52703.984    0.2805317 
   75000    277.33094   -996.51816       142845   -48868.128    3808.4727   -52676.601   0.29270145 
   75100    277.75839   -997.78688    142867.32    -48798.18    3814.3426   -52612.523   0.27515779 
   75200    277.34779   -1015.5693    142867.91   -48847.678     3808.704   -52656.382   0.27786495 
   75300    274.85142   -970.46633    142855.33    -48895.71    3774.4225   -52670.132   0.29238517 
   75400    279.85544   -996.99336     142843.4   -48907.844    3843.1405   -52750.985   0.26297015 
   75500    279.13025   -954.78464    142837.94   -48906.135    3833.1818   -52739.317   0.27131119 
   75600    280.97358   -961.67225    142857.51   -48827.654    3858.4955    -52686.15   0.29130387 
   75700    283.07498   -1005.6104    142897.69   -48792.234    3887.3532   -52679.587   0.26098175 
   75800     276.5067   -1036.9569    142895.08   -48812.688    3797.1536   -52609.842   0.27965874 
   75900    281.56633    -1019.962    142866.44    -48826.49    3866.6355   -52693.126   0.28328192 
   76000    280.04858   -1012.3684    142912.93   -48836.043    3845.7928   -52681.835   0.26820089 
   76100    272.78911   -986.42558    142858.07   -48913.766    3746.1016   -52659.867    0.2733407 
   76200    272.04729   -990.80675    142834.16   -48954.789    3735.9144   -52690.703   0.27560215 
   76300    274.81338   -1012.2638    142858.39   -48900.194       3773.9   -52674.094    0.2750045 
   76400    279.17036   -993.54484    142853.74   -48895.074    3833.7327   -52728.806   0.27136012 
   76500    280.51601   -964.84781     142887.4   -48887.729    3852.2119   -52739.941   0.27542311 
   76600    275.33375   -999.16898    142866.14   -48930.192     3781.046   -52711.238    0.2711194 
[...]
   81900    278.05379   -1022.6256    142768.52   -48922.603    3818.3993   -52741.002   0.27928047 
   82000    282.97976   -1021.7914    142789.28   -48832.944    3886.0455   -52718.989   0.27231648 
   82100    284.84233   -980.36906    142840.51   -48783.802    3911.6234   -52695.425   0.27382777 
   82200    279.90265   -1014.5972    142855.04   -48791.951    3843.7888    -52635.74   0.28278958 
   82300    277.32368   -1004.7152    142837.82   -48869.131    3808.3729   -52677.504   0.26671124 
   82400    278.67528   -1027.2623    142844.32    -48750.48    3826.9339   -52577.414   0.28074464 
   82500    283.43359   -996.79263    142901.02   -48655.436    3892.2778   -52547.714   0.28349579 
   82600    280.93333   -1051.4309    142899.38   -48758.979    3857.9427   -52616.922   0.26385534 
   82700    275.29833   -1023.5721    142840.37   -48838.016    3780.5596   -52618.576   0.29264486 
   82800    281.59096   -981.04187    142873.06   -48851.821    3866.9737   -52718.795   0.27602992 
   82900    279.86342   -1002.8257    142902.35   -48805.662    3843.2502   -52648.912   0.26509122 
   83000    280.93709   -972.53649     142910.9   -48749.394    3857.9944   -52607.388   0.27611605 
   83100    277.83262   -1036.4569    142896.95    -48788.07    3815.3619   -52603.432   0.28355219 
   83200    275.50767    -998.6699    142908.01   -48817.051    3783.4344   -52600.486   0.26994262 
   83300    283.40285   -997.69215     142870.8    -48805.28    3891.8557   -52697.136   0.27679743 
   83400    282.14876   -1013.1007    142875.06   -48884.234    3874.6338   -52758.868   0.27473278 
   83500    273.13585   -1008.5942    142792.14   -48984.009    3750.8632   -52734.872   0.27758905 
   83600    275.43382   -1022.1077    142795.58   -48931.495    3782.4202   -52713.915   0.27380906 
   83700    281.23255   -992.64249     142801.7   -48963.518    3862.0519   -52825.569   0.27280338 
   83800    281.59039   -936.88775    142788.16   -48921.709    3866.9659   -52788.675   0.27244709 
   83900    280.20766   -994.83232    142826.23    -48920.32    3847.9774   -52768.298   0.27547463 
   84000    276.73414   -1011.6885     142846.1   -48939.664     3800.277   -52739.941   0.27718556 
   84100    273.28469   -1002.3868    142836.69   -48869.631    3752.9071   -52622.538   0.27264857 
   84200    282.63269   -999.29587    142859.29   -48827.352    3881.2794   -52708.631   0.27983428 
   84300    274.24658   -1015.4228    142864.63   -48874.335    3766.1164   -52640.451      0.27159 
   84400    277.40744   -999.91617    142860.77   -48875.545    3809.5231   -52685.068   0.27637236 
   84500    274.75929   -1003.0574    142847.61   -48930.795    3773.1572   -52703.952   0.27222195 
   84600     278.5242   -946.87823    142858.01   -48846.577    3824.8591   -52671.436   0.27395822 
   84700    283.15813   -974.68357    142873.78   -48855.315    3888.4951    -52743.81   0.27075342 
   84800    277.21196   -1006.3312    142852.13   -48843.656    3806.8387   -52650.495   0.27629718 
   84900    281.85036   -989.51815    142869.93   -48775.443     3870.536   -52645.979    0.2788305 
   85000    284.76095   -984.59852    142860.86   -48841.018    3910.5059   -52751.524   0.26826961 
   85100     279.4269   -1028.3154     142854.2   -48859.437    3837.2556   -52696.692   0.27377997 
   85200       276.82   -1028.1196    142873.25   -48901.337     3801.456   -52702.793   0.28053201 
   85300     273.8931   -994.05683    142862.42    -48911.22    3761.2622   -52672.482    0.2698355 
   85400    278.11248   -1008.8915     142817.8   -48942.433    3819.2052   -52761.638   0.26960862 
   85500    279.60247   -1002.4249    142810.66   -48886.873    3839.6666    -52726.54   0.28329517 
   85600    278.36514   -1009.3148    142798.79   -48912.661    3822.6748   -52735.335   0.27690249 
   85700    277.45213   -1040.2469    142838.07   -48862.282    3810.1369   -52672.419   0.27218008 
   85800    278.71004   -1027.5695    142845.92   -48854.482    3827.4113   -52681.893   0.28240381 
   85900     277.2709   -991.76143    142851.72   -48822.847    3807.6481   -52630.495   0.28345373 
   86000    280.20909   -998.63892    142859.48   -48874.776    3847.9971   -52722.773   0.25670765 
   86100    278.70671   -986.62393    142829.03   -48846.919    3827.3655   -52674.284   0.29179035 
   86200    280.67597   -938.72532    142864.13   -48809.391    3854.4086     -52663.8   0.27657806 
   86300    277.30614   -1014.1045    142851.64   -48855.721     3808.132   -52663.853   0.26987835 
   86400    279.52091   -1038.3024    142827.33   -48918.733    3838.5466    -52757.28   0.28223518 
   86500    277.49599   -991.03738    142805.99   -48939.314    3810.7392   -52750.053   0.27736097 
   86600    281.31637   -978.03645    142855.34   -48790.644    3863.2029   -52653.847   0.26963119 
   86700    286.00872   -1003.9445    142877.29    -48789.86     3927.641   -52717.501   0.27543035 
   86800    274.26546   -1011.9873    142867.17   -48910.177    3766.3757   -52676.552   0.27550784 
   86900    274.88565    -997.3564    142854.69   -48896.039    3774.8924   -52670.932   0.27169952 
   87000    273.09054   -1047.8697    142854.89   -48870.608    3750.2409   -52620.849   0.27985836 
   87100    279.76363   -992.14978    142859.32   -48841.353    3841.8798   -52683.233    0.2656633 
   87200    281.24542   -981.57816    142904.82   -48784.441    3862.2286    -52646.67   0.27066229 
   87300    281.00438   -1003.8231    142894.95   -48790.583    3858.9185   -52649.501   0.27957358 
   87400    275.34763   -1030.4582    142869.45   -48842.954    3781.2366   -52624.191   0.27464721 
   87500     278.3159   -1023.4685    142888.47   -48819.489    3821.9987   -52641.487   0.27103324 
   87600    276.67849   -1023.5149    142871.75   -48842.342    3799.5128   -52641.855   0.28900947 
   87700    279.58425   -976.34206    142867.91   -48813.293    3839.4164    -52652.71    0.2624125 
   87800    276.50078   -972.39589    142833.16   -48895.142    3797.0724   -52692.214   0.27437132 
   87900    275.46885    -1017.613    142799.51    -48920.97    3782.9013   -52703.872   0.28374332 
   88000    276.05189   -1006.5855    142795.12   -48879.773    3790.9079   -52670.681   0.27562784 
   88100    276.33786   -1002.1857    142825.59   -48856.362     3794.835   -52651.197   0.27921543 
   88200    272.77053   -1028.1335     142793.8   -48945.726    3745.8464   -52691.573   0.28012051 
   88300    280.08966   -985.38426    142791.74    -48890.54    3846.3569   -52736.897   0.26783324 
   88400    282.20511   -994.91822    142809.19   -48822.436    3875.4076   -52697.844   0.27853159 
   88500    275.06549   -994.16103       142815   -48894.653    3777.3622   -52672.015    0.2816314 
   88600    277.11627   -999.92561    142808.96   -48887.744    3805.5246   -52693.269   0.27101894 
   88700    277.10826   -1028.9872    142781.93   -48857.022    3805.4147   -52662.437   0.28041808 
   88800    277.93804   -1009.8244    142811.65   -48915.211    3816.8097   -52732.021   0.28064269 
   88900    277.32801   -970.97486    142825.41   -48852.028    3808.4324   -52660.461   0.27889695 
   89000    285.50073   -1004.0011    142809.59   -48819.331     3920.665   -52739.996   0.27267239 
   89100    270.96193   -993.54835    142787.54   -48860.306    3721.0097   -52581.316   0.29012071 
   89200    280.90967   -991.58231    142812.62   -48823.551    3857.6179   -52681.169   0.27277998 
   89300    276.03559   -996.16385    142798.56   -48942.038    3790.6842   -52732.722   0.28069784 
   89400    279.22318   -981.58871    142822.91   -48849.553     3834.458   -52684.011   0.27540872 
   89500    279.77511   -991.22902     142821.4   -48944.523    3842.0374    -52786.56   0.27311139 
   89600      276.655   -990.27371    142770.52   -48972.139    3799.1901    -52771.33   0.27144157 
   89700    275.88105   -1018.9378    142764.75   -48888.243    3788.5619   -52676.804   0.28216476 
   89800     279.6934   -1001.3516    142809.09    -48827.01    3840.9153   -52667.925   0.28338029 
   89900    282.82448   -972.37839    142832.99   -48806.636    3883.9132   -52690.549   0.27399781 
   90000    281.72055   -986.96733    142812.49   -48829.587    3868.7533    -52698.34   0.27219612 
   90100      277.194   -1005.1298    142821.21   -48810.543     3806.592   -52617.135   0.28685031 
   90200    273.54978   -991.48885    142840.37   -48886.452    3756.5475   -52642.999    0.2715457 
   90300    274.72229   -982.12445    142811.46   -48866.198     3772.649   -52638.847   0.26946847 
   90400    280.38493   -988.05043    142840.91   -48853.271    3850.4118   -52703.683   0.27826309 
   90500    277.89198   -1028.0104    142849.94   -48865.893    3816.1771    -52682.07    0.2696966 
   90600    275.98727   -1029.3662       142856   -48891.837    3790.0205   -52681.858   0.27266562 
   90700    277.20409   -1005.8636    142834.28   -48922.412    3806.7306   -52729.142   0.27214849 
   90800    280.16811   -1009.3635    142836.43   -48939.846    3847.4343   -52787.281   0.26767998 
   90900      276.397   -1029.2525    142839.16   -48914.668    3795.6472   -52710.315    0.2716165 
   91000    273.97187   -1021.7266    142821.74    -48928.66    3762.3438   -52691.004   0.28062955 
   91100    268.54825   -989.21488    142785.33   -49029.465    3687.8636   -52717.329    0.2659962 
   91200    269.02478   -1021.7044    142772.02   -48978.389    3694.4075   -52672.797   0.28335856 
   91300    274.29265   -992.88094     142799.4    -48910.83    3766.7491   -52677.579   0.28567102 
   91400    277.49681   -1005.1626    142810.13   -48883.926    3810.7505   -52694.676   0.27007351 
   91500    283.98216   -974.87424    142879.11    -48731.97    3899.8111   -52631.781   0.27787728 
   91600    280.77567   -981.48833    142902.34    -48791.05    3855.7777   -52646.827    0.2784052 
   91700    277.84222   -992.48331    142874.42   -48863.513    3815.4938   -52679.006   0.26289867 
   91800     281.5086   -1015.6362    142873.12   -48839.845    3865.8427   -52705.687   0.27969393 
   91900    280.62146   -1028.8236    142896.73   -48829.833    3853.6599   -52683.493    0.2818502 
   92000    279.41332   -999.90491    142876.84   -48872.797    3837.0692   -52709.866   0.26470882 
   92100    277.72088   -1043.2371    142889.16   -48862.652    3813.8275    -52676.48   0.28137219 
   92200    279.68052   -959.88679    142845.94   -48887.511    3840.7384    -52728.25   0.27894518 
   92300    280.83277   -1002.4465    142896.34   -48769.591    3856.5619   -52626.153   0.27118874 
   92400    280.73276   -1003.0756    142880.12   -48818.788    3855.1885   -52673.977   0.27165926 
   92500    281.10235   -985.77752    142854.13   -48807.261    3860.2639   -52667.525   0.28562508 
   92600     282.1252   -975.82421    142906.24   -48725.621    3874.3102   -52599.931   0.26834901 
   92700    275.59618   -1031.9493    142890.98   -48844.666    3784.6498   -52629.316   0.28440184 
   92800    278.93815   -1017.3836    142862.96   -48854.129    3830.5438   -52684.673   0.27180604 
   92900    277.36457      -1012.2    142857.53   -48894.213    3808.9344   -52703.147   0.27163628 
   93000    279.66857   -992.98419    142851.52   -48903.111    3840.5744   -52743.686   0.27875504 
   93100    282.40155      -984.18    142849.34    -48816.77    3878.1052   -52694.875   0.26731261 
   93200    282.30537   -1001.4894    142853.11   -48876.263    3876.7845   -52753.048   0.26503871 
   93300    280.79812   -1010.6728    142819.94   -48922.058     3856.086   -52778.144   0.28800124 
   93400    272.04296   -1034.6906    142815.28   -48974.814     3735.855   -52710.669   0.27729708 
   93500    274.87009    -998.7622    142811.39   -48974.838    3774.6787   -52749.517   0.26677476 
   93600     277.7193   -996.18096     142846.9   -48929.666    3813.8059   -52743.471   0.28167101 
   93700     279.6945   -967.42335    142863.96   -48911.265    3840.9304   -52752.196   0.26424743 
   93800    277.93893   -990.68708    142851.96   -48910.015    3816.8219   -52726.837   0.26555784 
   93900    272.91947   -1012.9044    142845.27    -48983.49    3747.8917   -52731.381   0.28090117 
   94000    280.29238    -1002.024    142859.51   -48961.354    3849.1409   -52810.495   0.27058999 
   94100    273.66457   -998.69889    142879.61   -48845.101    3758.1239   -52603.225   0.25864931 
   94200    279.17999   -967.75454    142879.13   -48827.768    3833.8649   -52661.632   0.28853905 
   94300    279.57625   -1006.9305    142888.12   -48842.994    3839.3065   -52682.301   0.27202103 
   94400    278.33321   -985.84611    142882.88   -48833.743    3822.2364   -52655.979   0.26378115 
   94500    278.98935   -948.93219    142917.56   -48833.485    3831.2468   -52664.731   0.27547218 
   94600    283.72556   -985.12059    142892.98   -48844.538    3896.2874   -52740.826   0.26992787 
   94700    279.59683   -980.94676    142879.59   -48883.991    3839.5892    -52723.58   0.25776689 
   94800    277.82203   -998.91186     142843.4   -48920.319    3815.2166   -52735.536    0.2757201 
   94900    272.44234   -1025.0921    142818.79   -48947.183    3741.3395   -52688.522   0.27255319 
   95000     271.8433   -1009.2598    142799.65   -48901.934    3733.1131   -52635.047   0.27752511 
   95100    278.99914   -999.59218    142823.58   -48868.547    3831.3814   -52699.928    0.2804775 
   95200    278.50836   -991.62598    142811.67   -48892.892    3824.6416   -52717.533   0.27506444 
   95300    273.88107   -1032.4042    142816.33   -48845.222    3761.0969   -52606.319   0.28782865 
   95400    280.95731   -995.66876    142831.85   -48818.373    3858.2721   -52676.645   0.27307323 
   95500    276.42483   -1004.8169    142870.34   -48839.202    3796.0293   -52635.231    0.2766437 
   95600    286.57094   -947.59765    142897.02   -48818.081    3935.3617   -52753.442   0.26781294 
   95700    279.55253   -1029.8634    142872.59    -48861.08    3838.9808   -52700.061   0.28558922 
   95800    281.73732   -983.64727    142871.57   -48808.797    3868.9837    -52677.78   0.26453507 
   95900    279.13513   -944.24665    142867.71   -48822.675    3833.2488   -52655.924   0.28027793 
   96000    279.04161   -1037.7627       142875   -48795.366    3831.9645    -52627.33   0.29274858 
   96100    286.13409   -980.42669    142878.71   -48741.407    3929.3626    -52670.77   0.26742184 
   96200    280.41463   -992.29252    142897.31   -48763.797    3850.8197   -52614.617   0.27154187 
   96300    281.94955   -1015.8804    142864.35    -48782.38    3871.8981   -52654.278   0.28851319 
   96400    283.54253   -983.53475    142818.81   -48832.737    3893.7738   -52726.511   0.27100943 
   96500    279.35297   -996.92622    142828.93    -48830.47    3836.2403   -52666.711    0.2707554 
   96600    272.88674    -1021.436    142835.06   -48878.235    3747.4422   -52625.678   0.28598338 
   96700    277.28747   -1008.3101    142840.41   -48850.637    3807.8756   -52658.512   0.27670185 
   96800    274.39868    -1012.101    142823.22   -48869.647    3768.2051   -52637.852   0.27038672 
   96900    282.33579   -951.95091    142794.28   -48873.036    3877.2022   -52750.238    0.2807019 
   97000    273.36052   -1034.3404     142788.8   -48946.824    3753.9485   -52700.772   0.28940405 
   97100    275.07304   -985.30492    142807.27   -48910.664    3777.4657    -52688.13    0.2663565 
   97200     280.8446    -983.0386    142814.37   -48860.098    3856.7243   -52716.822   0.28505011 
   97300    281.03171   -995.26084    142819.37   -48751.846    3859.2938   -52611.139   0.28853032 
   97400    279.45212   -986.01494    142824.24   -48839.084     3837.602   -52676.686   0.27335187 
   97500    281.13916   -1023.5242    142817.48   -48810.408    3860.7694   -52671.177    0.2779147 
   97600    278.93584   -982.82236     142847.2   -48749.131    3830.5121   -52579.643   0.28715226 
   97700    281.07463   -983.64556    142871.69   -48703.047    3859.8831    -52562.93   0.27642655 
   97800    284.72667   -1004.9568    142857.56   -48808.726    3910.0352   -52718.762   0.27798156 
   97900    278.44717   -1024.4162    142853.09   -48769.491    3823.8014   -52593.292   0.28348053 
   98000    277.27229   -1016.2043    142815.72   -48860.287    3807.6672   -52667.954   0.27934698 
   98100    275.34272   -1001.1539    142830.33   -48847.246    3781.1693   -52628.415   0.28306741 
   98200    275.63549   -1013.2289     142821.4    -48844.23    3785.1897    -52629.42   0.27360392 
   98300    282.77032    -984.3367    142899.96   -48791.739    3883.1694   -52674.909   0.26862796 
   98400    276.16043   -1027.0965    142859.71   -48826.189    3792.3985   -52618.588   0.29032114 
   98500    277.15732   -994.51591     142839.2   -48803.594    3806.0884   -52609.682   0.26898557 
   98600    283.61141   -985.53178    142856.69   -48816.594    3894.7197   -52711.314   0.26775089 
   98700    281.43958   -1000.9193       142885   -48786.915    3864.8949    -52651.81   0.29454211 
   98800    278.96679   -992.48064    142883.39   -48793.357    3830.9371   -52624.294   0.26448716 
   98900    275.73329   -1035.1185     142874.3   -48855.143    3786.5328   -52641.676   0.26469409 
   99000    280.80919   -997.41381    142858.26   -48853.431     3856.238   -52709.669   0.28671047 
   99100    278.87545   -983.42475    142801.96   -48906.949    3829.6828   -52736.631   0.26905171 
   99200    273.93996   -1014.4167    142802.03   -48911.651    3761.9056   -52673.557   0.25837432 
   99300    279.43048   -957.23062    142819.28   -48839.532    3837.3047   -52676.836   0.29551635 
   99400    274.19388    -1022.029    142836.62   -48875.152    3765.3927   -52640.545   0.27740158 
   99500    278.07828    -1003.237    142846.23   -48831.711    3818.7355   -52650.446   0.26120299 
   99600    276.66849   -1010.1871    142855.54   -48829.931    3799.3755   -52629.307   0.29194852 
   99700    276.95256   -1037.3568    142835.36   -48873.143    3803.2764   -52676.419   0.28028028 
   99800    272.10313   -1043.5899    142848.26   -48892.114    3736.6813   -52628.795   0.26472828 
   99900     273.5146   -1016.7526    142832.98   -48945.169    3756.0644   -52701.233   0.28326419 
  100000    277.06202   -993.83347    142845.46   -48861.564    3804.7796   -52666.343   0.27643145 
Loop time of 112.297 on 6 procs for 100000 steps with 4608 atoms

Performance: 384.695 ns/day, 0.062 hours/ns, 890.497 timesteps/s
98.8% CPU use with 6 MPI tasks x no OpenMP threads

MPI task timing breakdown:
Section |  min time  |  avg time  |  max time  |%varavg| %total
---------------------------------------------------------------
Pair    | 94.125     | 95.014     | 96.663     |   8.3 | 84.61
Neigh   | 6.469      | 6.6182     | 6.855      |   6.4 |  5.89
Comm    | 6.0349     | 7.9057     | 8.824      |  33.2 |  7.04
Output  | 0.16798    | 0.16885    | 0.1719     |   0.3 |  0.15
Modify  | 1.8502     | 1.9167     | 1.9752     |   3.1 |  1.71
Other   |            | 0.6731     |            |       |  0.60

Nlocal:        768.000 ave         784 max         756 min
Histogram: 1 0 2 0 0 2 0 0 0 1
Nghost:        1659.50 ave        1686 max        1640 min
Histogram: 1 0 1 1 2 0 0 0 0 1
Neighs:        0.00000 ave           0 max           0 min
Histogram: 6 0 0 0 0 0 0 0 0 0
FullNghs:      24109.0 ave       24759 max       23625 min
Histogram: 1 1 0 1 0 2 0 0 0 1

Total # of neighbors = 144654
Ave neighs/atom = 31.391927
Neighbor list builds = 6689
Dangerous builds = 0

undump              1
unfix               2
unfix               3
unfix               4




################################################
#######         Run Simulation         #########
################################################

reset_timestep      0
log                 log.run_${NAME}
log                 log.run_ice_279K_-1000atm_mW
