

read_data data.ice_${TEMP}K_${PRES}atm_mW group ice
read_data data.ice_279K_${PRES}atm_mW group ice
read_data data.ice_279K_-1000atm_mW group ice
Reading data file ...
  orthogonal box = (0.38301084 0.34045408 0.34045408) to (56.887499 50.566666 50.566666)
  3 by 1 by 2 MPI processor grid
  reading atoms ...
  4608 atoms
  reading velocities ...
  4608 velocities
  read_data CPU = 0.018 seconds
read_data data.liq_${TEMP}K_${PRES}atm_mW add append shift ${X_HI} ${YZ_LO} ${YZ_LO} group water
read_data data.liq_279K_${PRES}atm_mW add append shift ${X_HI} ${YZ_LO} ${YZ_LO} group water
read_data data.liq_279K_-1000atm_mW add append shift ${X_HI} ${YZ_LO} ${YZ_LO} group water
read_data data.liq_279K_-1000atm_mW add append shift 50.566665918966 ${YZ_LO} ${YZ_LO} group water
read_data data.liq_279K_-1000atm_mW add append shift 50.566665918966 -0.34045408103183 ${YZ_LO} group water
read_data data.liq_279K_-1000atm_mW add append shift 50.566665918966 -0.34045408103183 -0.34045408103183 group water
Reading data file ...
  orthogonal box = (0.38301084 -0.36650999 -0.36650999) to (104.35444 50.592722 50.592722)
  3 by 1 by 2 MPI processor grid
  reading atoms ...
  4608 atoms
  reading velocities ...
  4608 velocities
  read_data CPU = 0.022 seconds

write_data data.icewater_test
System init for write_data ...
WARNING: Communication cutoff is 0.0. No ghost atoms will be generated. Atoms may get lost. (../comm_brick.cpp:167)

# Define potential
#
pair_style sw
pair_coeff * * /data/emrosky-sim/Freezing_Simulations/Melting/mW_fancy/mW.sw mW
Reading sw potential file /data/emrosky-sim/Freezing_Simulations/Melting/mW_fancy/mW.sw with DATE: 2019-02-27

# Delete water and ice atoms that are overlapping
#
delete_atoms overlap 2.5 water ice
System init for delete_atoms ...
Neighbor list info ...
  update every 1 steps, delay 10 steps, check yes
  max neighbors/atom: 2000, page size: 100000
  master list distance cutoff = 6.3065
  ghost atom cutoff = 6.3065
  binsize = 3.15325, bins = 33 17 17
  2 neighbor lists, perpetual/occasional/extra = 1 1 0
  (1) command delete_atoms, occasional, copy from (2)
      attributes: full, newton on
      pair build: copy
      stencil: none
      bin: none
  (2) pair sw, perpetual
      attributes: full, newton on
      pair build: full/bin/atomonly
      stencil: full/bin/3d
      bin: standard
Deleted 709 atoms, new total = 8507

# set timestep
#
timestep 10.0

# Define output
#
compute 1 all msd
thermo 50
thermo_style custom step temp press vol etotal ke pe c_1[4]

# Neighbor lists
#
neigh_modify delay 0 every 1 check yes

# Set fixes
#
fix 1 all momentum 10 linear 1 1 1 rescale
fix 2 all nph iso ${PRES} ${PRES} ${PCOUPL}
fix 2 all nph iso -1000 ${PRES} ${PCOUPL}
fix 2 all nph iso -1000 -1000 ${PCOUPL}
fix 2 all nph iso -1000 -1000 10000.0
fix 3 all temp/csvr ${TEMP} ${TEMP} ${TCOUPL} 837492
fix 3 all temp/csvr 279 ${TEMP} ${TCOUPL} 837492
fix 3 all temp/csvr 279 279 ${TCOUPL} 837492
fix 3 all temp/csvr 279 279 5000.0 837492


# Fix ice atoms in place
#
velocity ice set 0.0 0.0 0.0
fix 4 ice setforce 0.0 0.0 0.0

# Run 1.0 ns equilibration of water
#
dump 1 all atom 1000 eq.all.${NAME}.dump
dump 1 all atom 1000 eq.all.coexist_279K_-1000atm_mW.dump
run 100000
Neighbor list info ...
  update every 1 steps, delay 0 steps, check yes
  max neighbors/atom: 2000, page size: 100000
  master list distance cutoff = 6.3065
  ghost atom cutoff = 6.3065
  binsize = 3.15325, bins = 33 17 17
  1 neighbor lists, perpetual/occasional/extra = 1 0 0
  (1) pair sw, perpetual
      attributes: full, newton on
      pair build: full/bin/atomonly
      stencil: full/bin/3d
      bin: standard
Per MPI rank memory allocation (min/avg/max) = 4.595 | 4.603 | 4.613 Mbytes
Step Temp Press Volume TotEng KinEng PotEng c_1[4] 
       0    128.14373    -1918.366    269997.51   -85740.251    3249.0547   -88989.306            0 
      50    151.89447   -1654.0371    268264.74   -85464.157    3851.2495   -89315.407    0.9528231 
     100    159.90876   -827.37734    264831.78   -85194.188    4054.4498   -89248.638    2.1968237 
     150    167.84725   -307.33187    263054.95    -84890.83    4255.7284   -89146.559    3.5118006 
     200    173.69761   -806.81437    263419.83   -84675.898    4404.0631   -89079.961    4.6356982 
     250    174.97501   -699.06191    264605.68   -84388.266    4436.4512   -88824.717    5.8181773 
     300    181.55176   -1111.8764    265963.05   -84059.786    4603.2033   -88662.989    7.1961622 
     350    185.14097    -1187.834    266775.13   -83848.196    4694.2067   -88542.402     8.720501 
     400    185.53834   -1222.8394    266727.86   -83634.207    4704.2819   -88338.489    10.358868 
     450    194.02362   -1112.2848    266093.24   -83396.915    4919.4243   -88316.339    12.072488 
     500    200.55774   -900.00058    265632.39   -83222.386    5085.0954   -88307.482    13.840767 
     550    202.35213   -929.14865    265731.18   -83038.306    5130.5917   -88168.898    15.676936 
     600    203.84396   -966.86318    266338.12   -82852.146    5168.4167   -88020.563    17.449041 
     650     205.6203   -1000.0612    267188.54    -82653.36    5213.4554   -87866.815    19.351616 
     700    211.29624   -1180.4396    267886.99   -82457.185    5357.3676   -87814.552    21.257998 
     750     211.2879   -967.00816    268073.01    -82304.07    5357.1562   -87661.227    23.306793 
     800    218.07428    -1108.614    268048.06   -82133.098    5529.2233   -87662.322    25.427651 
     850    220.31443   -1016.8573    267845.89   -81959.174    5586.0217   -87545.196    27.587454 
     900    223.75494   -1004.4348    267847.38   -81808.107    5673.2552   -87481.362    30.145905 
     950    222.69329   -941.09438    268089.22   -81655.257    5646.3371   -87301.594    32.544824 
    1000    230.07727   -1057.5628    268408.18   -81526.531    5833.5563   -87360.087      34.9854 
    1050    229.41999    -869.0864    268677.36   -81413.075     5816.891   -87229.966    37.705558 
    1100     231.0212   -1214.6032    268845.14   -81314.362    5857.4895   -87171.851    40.079994 
    1150    234.86124    -1039.841    268724.91    -81208.46    5954.8527   -87163.313    42.662077 
    1200    234.90287   -909.83755    268927.85   -81123.501    5955.9083   -87079.409     45.16955 
    1250    236.26517   -984.72545     269375.7   -81019.694    5990.4491   -87010.143    47.766756 
    1300    238.77447   -1182.0917    269489.49   -80941.823    6054.0718   -86995.895    50.868822 
    1350    236.75597   -970.12244    269114.58   -80865.422    6002.8932   -86868.315    53.799627 
    1400    240.07289   -741.57689    268960.43   -80756.331     6086.993   -86843.324     56.30352 
    1450    245.05366   -890.80054    269453.09   -80651.251    6213.2791    -86864.53    58.897432 
    1500    239.76826   -1199.0568    270080.94   -80570.535    6079.2692   -86649.804    61.815303 
    1550    248.77458   -906.93931    270416.23   -80498.425    6307.6224   -86806.047    64.718342 
    1600    245.81972     -1080.37    270618.28   -80416.142    6232.7025   -86648.845    67.690658 
    1650     252.3995   -1001.0193    270380.53   -80363.249    6399.5314    -86762.78    70.625154 
    1700    253.05324   -952.63949    270331.18   -80277.385    6416.1067   -86693.491      73.4317 
    1750    254.24134   -1095.7722    270746.52   -80217.201    6446.2307   -86663.432    77.052084 
    1800    249.71201   -1354.5634    271186.72   -80119.447    6331.3905   -86450.838    79.982513 
    1850     254.5117   -1019.3189    270960.25   -80048.719    6453.0856   -86501.805    82.794194 
    1900    255.89728   -821.35333    270490.85   -79975.334    6488.2166    -86463.55    86.084717 
    1950    259.32636   -900.23781    270279.75   -79915.268    6575.1602   -86490.429    89.265699 
    2000    259.46788   -1145.8328    270341.93   -79832.568    6578.7484   -86411.316    92.222233 
    2050    261.82075   -921.24113    270438.97   -79826.775    6638.4049   -86465.179    95.723695 
    2100    260.63837   -903.11384    270962.22   -79794.473    6608.4261   -86402.899    98.996663 
    2150    265.99413   -1040.5317    271522.64   -79735.432      6744.22   -86479.652    102.26913 
    2200    263.32772   -1184.3702    271841.22   -79663.429    6676.6138   -86340.043      105.491 
    2250    260.29748   -1016.1954    271617.62   -79638.112    6599.7827   -86237.894    108.33016 
    2300    265.11696   -920.15257    271289.94    -79553.19    6721.9796    -86275.17    111.08271 
    2350    268.70712   -653.67322    271107.58   -79482.116    6813.0073   -86295.124    113.97358 
    2400    271.28713   -923.75843    271376.97   -79460.596    6878.4228   -86339.019    116.96898 
    2450    267.00054   -1050.5534    271840.05   -79405.911    6769.7373   -86175.648    119.79221 
    2500    272.66986   -1189.8675    272234.15   -79331.457    6913.4817   -86244.939    122.95897 
    2550    267.98786   -1125.2027    272333.18    -79303.62    6794.7705    -86098.39    126.25083 
    2600    271.46866   -1114.0034    272080.85   -79292.731    6883.0255   -86175.756    129.72956 
    2650    270.94813   -927.88339    271393.35   -79226.384    6869.8275   -86096.211    133.13855 
    2700    276.12852   -1057.8316    271017.28   -79207.586    7001.1752   -86208.761    136.25843 
    2750    270.66806   -1022.4217    271251.22   -79222.283    6862.7265    -86085.01    139.51579 
    2800    272.34963   -728.66516    271859.83    -79190.06    6905.3623   -86095.422    142.58269 
    2850    266.38234   -1167.8941    272714.39   -79185.395     6754.063   -85939.458     146.2075 
    2900    272.52835   -1117.4064    272821.34   -79193.001    6909.8937   -86102.894    150.04162 
    2950    270.95176   -1024.9285    272491.62   -79189.614    6869.9197   -86059.534    154.04823 
    3000    273.82399   -965.81685    271977.47   -79150.867    6942.7445   -86093.612    157.77534 
    3050    274.97907   -941.74461    271575.78   -79169.645    6972.0312   -86141.676    161.33954 
    3100    269.64144   -1010.4908    271468.28   -79162.139    6836.6969   -85998.836     164.9693 
    3150    275.73232    -996.7966    271620.95   -79166.076    6991.1297   -86157.205     168.6095 
    3200    271.74508   -1150.4007    271942.99   -79124.964     6890.034   -86014.998     171.9435 
    3250     274.0006    -1123.688    272165.89   -79096.176    6947.2223   -86043.399    174.85203 
    3300    275.67192   -940.26638    272093.94   -79053.491    6989.5983    -86043.09    178.93562 
    3350    279.03114   -943.98524    271968.18    -78963.43    7074.7705   -86038.201    182.26648 
    3400    274.67441   -923.96723    271908.28   -79016.547    6964.3066   -85980.853    185.42952 
    3450    274.36378   -942.38314    271873.42   -79031.663    6956.4307   -85988.093    188.75441 
    3500    276.24785   -963.65638    271988.21   -79020.559    7004.2008    -86024.76    191.32183 
    3550      276.164   -1165.5092     272239.8   -78972.675    7002.0749    -85974.75    194.81687 
    3600    278.28493   -1109.7501    272412.04    -78985.39    7055.8505   -86041.241    199.26376 
    3650    272.78378   -1099.1379    272448.53   -78989.319      6916.37   -85905.689    203.59624 
    3700     275.4788   -1116.4637       272449   -78982.463    6984.7018   -85967.165     207.4401 
    3750     273.0163   -918.25937    272345.31   -79008.542    6922.2655   -85930.808    210.75383 
    3800    274.48778   -1013.2831     272345.9   -79010.592    6959.5746   -85970.167    214.23322 
    3850    274.21588   -1063.4222    272396.14   -78989.444    6952.6808   -85942.125    217.52818 
    3900    275.97266   -1090.6331    272537.17   -78992.919    6997.2233   -85990.142    220.55536 
    3950    276.09864   -832.28388    272589.52   -78949.832    7000.4175    -85950.25    224.37428 
    4000     276.3627   -897.46764    272544.35   -78955.821    7007.1127   -85962.934    227.54961 
    4050    276.45132   -1201.3943    272264.32    -78945.44    7009.3598     -85954.8    229.03834 
    4100    275.31831   -1014.8927    271806.56   -78946.589    6980.6325   -85927.222    231.16778 
    4150    278.34977    -694.0972    271762.91   -78913.421    7057.4944   -85970.915    234.07462 
    4200    276.17128    -1082.338    272404.62   -78902.601    7002.2594    -85904.86     238.0467 
    4250    278.18572   -1265.9401    272733.25   -78872.571    7053.3351   -85925.906    241.39524 
    4300    276.77365   -1017.2057    272541.44   -78888.805    7017.5324   -85906.338    244.25217 
    4350     283.3799   -936.42571    272329.66   -78915.252    7185.0324   -86100.284    247.29244 
    4400    280.88067   -1178.6719    272273.03   -78906.043     7121.665   -86027.708    250.31298 
    4450    281.07469   -774.93983    272253.95   -78849.115    7126.5841   -85975.699    254.10162 
    4500    279.59936   -1067.2817    272487.41   -78796.776    7089.1776   -85885.954    257.19751 
    4550    281.96529   -952.74787    272521.28   -78758.368    7149.1651   -85907.533    260.81303 
    4600    274.75372   -1166.9072    272536.33   -78750.862    6966.3175    -85717.18    264.18051 
    4650    282.71996   -1013.3628    272377.34   -78698.286    7168.2997   -85866.585    267.17685 
    4700    280.09166   -908.02964     272264.8     -78682.9    7101.6598   -85784.559    270.53941 
    4750    284.71664   -778.42353    272363.04   -78705.322     7218.925   -85924.247    273.22906 
    4800     280.5801   -837.91551    272846.27   -78701.434    7114.0441   -85815.478    275.94116 
    4850    284.95089   -1420.6435    273442.78   -78699.605    7224.8643   -85924.469    279.16024 
    4900    282.60593   -1300.1578    273336.53   -78695.671    7165.4083    -85861.08    282.14947 
    4950    278.50019   -1032.8885    272689.99   -78709.961    7061.3084   -85771.269    284.84833 
    5000     279.7276   -923.76637    272204.49   -78735.032    7092.4291   -85827.461    287.21771 
    5050    283.01426   -1033.7898    272033.14   -78749.696    7175.7617   -85925.457    290.04661 
    5100    282.97329   -1069.4369     272038.1   -78766.375    7174.7227   -85941.098    293.74717 
    5150    280.73233   -977.98282    272243.92   -78784.551    7117.9038   -85902.454    296.71466 
    5200    278.24844   -997.81283    272306.13   -78783.269    7054.9253   -85838.195    299.36038 
    5250    279.86066   -916.11034    272383.34   -78768.219    7095.8028   -85864.022     301.8795 
    5300     279.7837   -787.98842    272565.01   -78756.351    7093.8515   -85850.202    305.73826 
    5350    281.45261   -1307.4396    272908.86   -78720.375    7136.1662   -85856.542       309.96 
    5400    280.77921   -978.19745    272823.48   -78777.233    7119.0924   -85896.325     313.5033 
    5450    282.00652   -1090.9214    272851.89   -78758.249    7150.2104   -85908.459    316.73178 
    5500    279.49621   -962.75486    272695.69   -78759.842    7086.5622   -85846.404    319.63907 
    5550    278.93749   -1003.7759    272392.32   -78808.896    7072.3961   -85881.292    323.18365 
    5600    276.41788   -922.12705    272194.42   -78871.975    7008.5119   -85880.487    327.06992 
    5650    278.47645   -942.76903    272165.99     -78957.1    7060.7063   -86017.806    330.91865 
    5700    280.30324   -1159.4946    272208.22   -78932.924    7107.0243   -86039.949    334.76511 
    5750    280.96237   -955.34603    272093.12   -78915.262    7123.7364   -86038.999    338.19586 
    5800    278.17027   -943.99808    272136.41   -78912.494    7052.9433   -85965.437    341.91936 
    5850    281.66999   -1260.4161     272486.1   -78846.683    7141.6778   -85988.361    345.08025 
    5900    277.05394   -852.39866    272582.02   -78878.289    7024.6391   -85902.928    348.33721 
    5950    278.31832   -953.88798    272514.85   -78890.404     7056.697   -85947.101    351.08197 
    6000    274.12817   -1037.7439    272506.59   -78890.732    6950.4569   -85841.189    354.54526 
    6050    280.89983   -1031.9481    272611.75   -78836.238    7122.1508   -85958.389    357.38964 
    6100     279.0615   -1208.5967    272770.31   -78838.924    7075.5402   -85914.464    359.61419 
    6150    279.93094   -1066.3482    272683.29   -78822.428    7097.5848   -85920.013    361.42137 
    6200     275.8098   -912.94845    272451.01   -78837.846    6993.0941    -85830.94    364.23855 
    6250    275.42258   -917.65862    272266.16   -78819.997    6983.2762   -85803.273    366.41214 
    6300    275.96482   -882.18432    272156.47    -78788.42    6997.0247   -85785.445       369.25 
    6350    282.91872   -1114.5292    272168.84   -78761.579    7173.3391   -85934.919     371.2956 
    6400    283.47373   -1083.6974    272703.83     -78815.8    7187.4114   -86003.212    375.37009 
    6450    273.33121    -951.1137    273374.25   -78809.679    6930.2501   -85739.929    378.13003 
    6500    276.49384   -1029.0966    273507.28   -78749.744    7010.4378   -85760.182    379.85035 
    6550    277.61124   -1163.4187    273238.68   -78738.579    7038.7692   -85777.348    383.29182 
    6600    280.42136   -1030.9871    272578.29   -78764.124    7110.0191   -85874.143    386.57679 
    6650     278.4745   -894.14267    271853.52   -78816.817    7060.6569   -85877.473      390.008 
    6700    280.26627   -871.49788    271809.38   -78833.181    7106.0868   -85939.267    393.49186 
    6750    272.39435   -980.68776    272607.14   -78848.214    6906.4963   -85754.711    397.90775 
    6800    278.28324   -1253.3218    273456.56   -78810.776    7055.8076   -85866.584    402.06282 
    6850    274.61121   -1086.8989    273499.28   -78800.233    6962.7041   -85762.937    404.71609 
    6900    275.89535   -1143.5166     272896.9   -78778.291    6995.2631   -85773.554    406.52181 
    6950    281.49463   -795.36051    272038.01   -78782.553    7137.2317   -85919.785    409.34635 
    7000    284.24779   -882.80342    271695.47   -78773.111    7207.0374   -85980.149     413.8883 
    7050    281.21739   -733.57975    272052.79     -78759.9    7130.2023   -85890.103    417.29828 
    7100     278.0793   -1049.7052    272744.28   -78755.374    7050.6369   -85806.011    421.72897 
    7150    276.44958   -1048.0869    273412.89   -78792.666    7009.3156   -85801.981    425.79437 
    7200    278.29255   -1292.2587    273729.02   -78825.925    7056.0436   -85881.969    429.65277 
    7250    276.57272   -968.05545    273085.03   -78786.799    7012.4379   -85799.236     432.9645 
    7300    280.05084   -872.96327    272139.48   -78777.585    7100.6247   -85878.209    436.73769 
    7350    287.78141   -1036.8404    271756.79   -78780.936    7296.6315   -86077.567    440.33833 
    7400    284.28656   -881.37858     271963.7   -78743.438    7208.0205   -85951.459    444.28079 
    7450    279.90539   -824.01261    272712.06   -78708.493    7096.9369    -85805.43    449.06271 
    7500    279.74651    -1206.362    273337.89   -78763.604    7092.9086   -85856.513    452.23409 
    7550    282.31762   -1302.7572    273376.14   -78799.389    7158.0985   -85957.487    454.21648 
    7600      280.677   -1010.1976    272865.28   -78752.153     7116.501   -85868.654    456.53271 
    7650    281.27403   -958.95978    272345.68   -78773.563    7131.6385   -85905.201    458.10587 
    7700    282.96064   -1035.8975    272069.49    -78772.51    7174.4019   -85946.912    461.91015 
    7750    279.92377   -999.48757    271991.47   -78736.224     7097.403   -85833.627    466.37466 
    7800    283.78908   -939.52772    272062.09   -78774.098    7195.4068   -85969.505    470.24265 
    7850    277.66326   -809.25946    272383.05   -78739.666    7040.0881   -85779.754    475.25964 
    7900    279.24955   -1062.1169    272597.47   -78771.216    7080.3083   -85851.524    480.14479 
    7950    279.73533   -1195.8832     272776.7   -78808.085    7092.6251    -85900.71    483.80517 
    8000    278.81027   -887.06763    272800.83   -78794.922    7069.1704   -85864.092    486.16962 
    8050    277.28868   -906.17337    272887.85   -78777.737    7030.5907   -85808.328    488.82853 
    8100    279.98347   -855.04178    272703.61   -78818.526    7098.9164   -85917.443    493.17508 
    8150    283.69549   -1076.6577    272554.95   -78773.905     7193.034   -85966.939    496.15612 
    8200    283.06566   -821.76667    272631.09   -78802.656    7177.0647   -85979.721    498.69437 
    8250    276.69924   -881.91398    272853.75   -78792.794    7015.6456    -85808.44    500.37566 
    8300    283.86871   -933.57817     272838.4   -78774.868    7197.4258   -85972.294    505.00864 
    8350    280.22138   -789.92537    272777.59   -78829.417    7104.9487   -85934.365    508.39681 
    8400    278.83999   -962.64377    272578.74   -78839.167    7069.9239   -85909.091    511.13747 
    8450     278.3631   -942.13491    272332.36   -78836.717    7057.8325    -85894.55    514.43657 
    8500    277.84968   -899.01034    272390.16   -78817.182    7044.8147   -85861.997    518.13987 
    8550    279.45431   -1148.2243    272696.17   -78846.589       7085.5   -85932.089    521.59173 
    8600    273.95887   -1228.4407    272853.13   -78831.536    6946.1643     -85777.7    525.26999 
    8650    272.54879   -1031.8492    272685.43   -78829.571     6910.412   -85739.983    527.28635 
    8700    277.12974   -962.96666    272307.96   -78831.871     7026.561   -85858.432    530.85949 
    8750    279.86872   -903.03811    272114.48    -78803.71    7096.0071   -85899.717    534.04857 
    8800    280.86875   -956.65577    272220.66    -78822.16    7121.3627   -85943.522    537.24386 
    8850    276.37153   -987.74932    272540.87   -78856.608    7007.3368   -85863.945     540.6472 
    8900    281.06264   -1076.0096    272710.61   -78879.997    7126.2787   -86006.276    545.15363 
    8950    279.15202    -1152.783    272603.17   -78864.398    7077.8355   -85942.233     548.2974 
    9000    280.11636   -858.02574    272302.21   -78852.485    7102.2859   -85954.771    550.44988 
    9050    273.43841   -539.81721    272292.94   -78848.861     6932.968   -85781.829    554.12135 
    9100    275.76044   -1014.1238    272672.58   -78902.245    6991.8426   -85894.088    558.09281 
    9150    275.84123   -1114.0048    272808.43   -78854.994    6993.8911   -85848.886    561.20522 
    9200    275.94455   -981.63785    272595.94   -78861.067    6996.5106   -85857.577    563.17156 
    9250    281.15995   -838.76538     272211.8   -78904.627    7128.7458   -86033.373    565.16376 
    9300    273.77159    -732.6019    272336.74   -78945.925    6941.4159    -85887.34    567.66289 
    9350    278.43257   -1154.2063    272707.04   -78916.771    7059.5938   -85976.365    569.12578 
    9400    279.45213   -899.94651    272816.04   -78904.486    7085.4446   -85989.931    570.87542 
    9450    280.36178   -985.68139    272741.95   -78862.311    7108.5085   -85970.819    574.22267 
    9500    277.04121    -955.8725    272571.17    -78878.06    7024.3161   -85902.376    575.82028 
    9550      275.967     -1024.77    272479.49   -78863.349      6997.08   -85860.429    577.42327 
    9600    281.97172    -1054.175    272206.62   -78846.542    7149.3281    -85995.87    579.80182 
    9650    280.67127   -861.94578    272001.02   -78889.564    7116.3556   -86005.919     583.5231 
    9700    279.07169   -883.96303    272213.43   -78889.067    7075.7985   -85964.865    587.52242 
    9750    280.03865   -1195.9323    272821.14   -78890.323    7100.3157   -85990.639    591.40066 
    9800    277.37564   -1244.0263       273492   -78877.778    7032.7957   -85910.574    594.83215 
    9850    277.96335   -1393.6842    273513.05   -78871.996    7047.6968   -85919.692    596.91257 
    9900    279.61277   -1046.5208    272576.56    -78886.86    7089.5174   -85976.377    598.32516 
    9950    281.49051   -732.60633       271707   -78882.529    7137.1271   -86019.656     599.7655 
   10000    275.75601   -572.61296    271542.17   -78881.332    6991.7303   -85873.062    602.85063 
   10050    279.89728   -916.73712    272186.31   -78874.821    7096.7313   -85971.552    606.91619 
   10100    279.57345   -1158.1959    272857.59   -78836.887    7088.5207   -85925.407    610.44116 
   10150    276.85138   -1142.0487    273174.32   -78811.974    7019.5032   -85831.478    614.50322 
   10200    276.77975   -976.39386    272880.88   -78802.213    7017.6869     -85819.9    615.52816 
   10250    278.86369   -841.48785    272466.37   -78813.234    7070.5248   -85883.759    616.62972 
   10300    281.04886   -1003.4987    272383.43   -78795.828    7125.9294   -85921.757    619.02539 
   10350    282.95521   -1132.5039    272420.45   -78798.476    7174.2644   -85972.741    623.02923 
   10400    280.72436   -897.56563    272492.64   -78864.498    7117.7016     -85982.2    625.87446 
   10450    279.79879   -1154.0082    272399.82   -78841.201    7094.2341   -85935.435    629.35749 
   10500    281.33185    -1022.064    271980.88   -78850.822    7133.1043   -85983.927    631.71146 
   10550    279.13814   -915.82235    271941.42   -78832.996    7077.4835   -85910.479    634.06744 
   10600    280.56319   -1132.3389    272465.13   -78823.075    7113.6154   -85936.691    637.80137 
   10650    279.15571   -1063.9919    273017.76   -78795.952    7077.9289   -85873.881    641.60889 
   10700    281.09518   -1291.0822    273270.73     -78820.3    7127.1037   -85947.404    644.94276 
   10750     277.5263   -1146.6956    272881.75   -78793.021    7036.6155   -85829.637    647.12933 
   10800    283.03372   -902.94378    272288.04   -78829.393    7176.2549   -86005.648    649.83796 
   10850    281.85296   -885.75295    272072.98     -78780.3     7146.317   -85926.617     653.6128 
   10900    280.97299   -1122.9721    272443.73   -78784.317    7124.0055   -85908.323     656.6895 
   10950    284.12468   -1318.0201    272823.62   -78787.579     7203.916   -85991.495     658.5308 
   11000     276.6881   -1098.8987    272940.01   -78815.639    7015.3632   -85831.002    661.24344 
   11050     280.8461   -1084.4266    272592.69   -78852.115    7120.7885   -85972.903    663.60815 
   11100    282.13402   -873.98366    272181.82   -78840.162    7153.4433   -85993.605    666.40001 
   11150    281.26308   -956.08528    271985.86   -78857.184    7131.3607   -85988.545    669.57873 
   11200    282.55378   -886.40652    271970.48   -78849.302    7164.0863   -86013.388    673.14012 
   11250    277.74834     -818.374    272326.11   -78871.861    7042.2454   -85914.106    677.40766 
   11300    282.97659   -1116.0292    272910.46   -78856.166    7174.8063   -86030.973    680.19786 
   11350     281.3657   -1221.1556    272988.92   -78886.966    7133.9626   -86020.929    683.36395 
   11400    276.94514    -970.7326     272713.6   -78895.661    7021.8803   -85917.541    685.08363 
   11450    273.24442   -1052.8566    272546.21   -78942.464    6928.0496   -85870.514    688.35633 
   11500    278.30536   -1038.8665    272219.34   -78939.263    7056.3685   -85995.631    689.16793 
   11550    280.32544   -1029.4438    271850.53   -78972.586    7107.5871   -86080.173    690.21626 
   11600     275.6325   -980.75632    271940.55   -78954.418    6988.5988   -85943.017    694.20834 
   11650    277.06309   -1094.3699    272343.13   -78932.465     7024.871   -85957.336    699.26627 
   11700    282.54805   -1082.5883     272325.8   -78901.817     7163.941   -86065.758    701.83572 
   11750    275.27771    -1083.807    272086.05   -78915.942     6979.603   -85895.545    705.10279 
   11800    277.20989    -907.9654     271873.1   -78942.292    7028.5932   -85970.885    706.08626 
   11850    279.18531   -856.18661    271976.78   -78873.578    7078.6793   -85952.258    707.86679 
   11900    277.10465   -855.08588    272604.14   -78945.519    7025.9247   -85971.444    712.62069 
   11950     274.0758   -1069.6147    273278.43   -78920.837     6949.129   -85869.966    715.11193 
   12000    277.33255   -1294.0179    273053.13   -78924.173    7031.7031   -85955.876    717.25247 
   12050    276.64464   -813.11418    272143.13   -78926.816    7014.2613   -85941.077    717.95248 
   12100      279.225   -879.49113    271668.67   -78910.785    7079.6858   -85990.471    719.09597 
   12150    275.73842   -731.80224    271618.38   -78902.435    6991.2842   -85893.719    719.87865 
   12200     281.9728   -773.77359    272069.52   -78889.162    7149.3556   -86038.518    721.55325 
   12250    276.13089    -1149.082    272855.16    -78845.59    7001.2353   -85846.825    725.86491 
   12300    280.25263   -1044.2881    273127.78   -78847.867    7105.7411   -85953.608    728.74432 
   12350    279.64866    -1132.708    273136.65       -78871    7090.4277   -85961.428    730.89854 
   12400    276.65935   -999.25907    272819.71   -78907.441    7014.6342   -85922.075    733.80992 
   12450    277.49188   -1166.0375    272298.06   -78887.171    7035.7429   -85922.914    735.71355 
   12500    275.82241   -862.52427     271690.8   -78863.229    6993.4137   -85856.643    736.90101 
   12550    278.30506   -740.33377    271436.08   -78921.436    7056.3609   -85977.797    739.95507 
   12600    278.83371   -871.50509    272068.28   -78863.835    7069.7646   -85933.599    743.19635 
   12650    275.40465   -1053.7001     272972.7   -78867.901    6982.8217   -85850.722    748.97421 
   12700    280.74683   -1164.3726    273301.87   -78840.254    7118.2714   -85958.525    754.46887 
   12750    274.93769   -1254.6485    273107.58   -78889.879     6970.982   -85860.861    757.10227 
   12800    274.77904   -1126.7116     272517.9   -78916.275    6966.9595   -85883.234    756.92866 
   12850    272.51017    -914.9552    271946.69   -78915.362    6909.4327   -85824.795    758.13031 
   12900    280.57341   -925.97212     271763.9   -78902.863    7113.8744   -86016.737    761.09796 
   12950    278.43125   -1085.9607    272104.38   -78908.016    7059.5603   -85967.576    764.19178 
   13000    276.67817   -1002.3312     272467.2    -78879.42    7015.1115   -85894.531    767.41829 
   13050    275.13135     -894.201    272632.97   -78862.358    6975.8923    -85838.25    770.94121 
   13100    279.98927    -1041.494    272889.28    -78835.52    7099.0636   -85934.584    774.11479 
   13150    277.10466    -1169.907    273017.06   -78846.975    7025.9251     -85872.9    777.21152 
   13200    279.84817   -932.76606    272743.88   -78867.985     7095.486   -85963.471    779.07862 
   13250    274.81169   -773.79607    272434.18   -78913.144    6967.7872   -85880.931    779.53518 
   13300    280.57237   -1000.5097    272122.72   -78920.042    7113.8479    -86033.89    782.27521 
   13350    278.26301    -896.4437    271951.68   -78904.971    7055.2946   -85960.265    786.36405 
   13400    280.41902   -1118.3144    272223.72   -78935.263    7109.9599   -86045.222    790.07303 
   13450    278.25983   -1046.2505    272377.68   -78956.295     7055.214   -86011.509    793.73253 
   13500    274.57596   -916.71098    272544.36   -78916.935    6961.8104   -85878.746    797.24933 
   13550    272.36446   -1212.7929     272444.6   -78995.051    6905.7382   -85900.789    799.46439 
   13600    276.07418   -860.20973    272030.56   -79005.765    6999.7975   -86005.562    801.51628 
   13650    274.85989   -777.48262    272170.01   -79010.188    6969.0094   -85979.197    805.33039 
   13700    272.50259   -1202.9717    272472.36   -78996.061    6909.2406   -85905.302    809.47789 
   13750    275.30043   -937.30741    272484.13   -78976.219    6980.1791   -85956.398    812.32563 
   13800    278.58832   -1124.5564    272219.44   -79033.801    7063.5428   -86097.344    814.44878 
   13850    275.54153   -1001.8275    271976.19   -79022.249    6986.2923   -86008.542    817.23321 
   13900    281.52072   -906.49492    272008.46   -78999.416    7137.8931   -86137.309    819.60906 
   13950    275.86701   -928.80242    272194.96   -79015.391    6994.5447   -86009.936    823.35821 
   14000    276.26909   -1036.5641     272141.4   -78964.395    7004.7394   -85969.134    826.97508 
   14050    279.57347   -888.74877    271837.89   -78957.352    7088.5212   -86045.873    829.52132 
   14100    277.67452   -981.31031    271990.81   -78948.551    7040.3736   -85988.925    831.70138 
   14150    277.18331   -1055.4464    272370.21   -78941.968    7027.9193   -85969.887    834.57561 
   14200    279.18459    -951.0632    272552.85   -78934.818    7078.6612   -86013.479      836.532 
   14250    277.40585   -944.45965     272770.9   -78855.808    7033.5616    -85889.37     841.1419 
   14300    280.00319   -1138.2284    272887.95   -78877.384    7099.4165     -85976.8    846.54241 
   14350    278.53619   -926.56955    272682.26   -78883.667    7062.2211   -85945.888      848.145 
   14400    281.89612    -959.8013    272385.66   -78860.703    7147.4114   -86008.114    850.04887 
   14450    277.11692   -1150.5079    272094.72   -78916.073    7026.2358   -85942.309      851.793 
   14500    283.25349   -915.76379    271929.64   -78933.707    7181.8271   -86115.534    854.11441 
   14550    277.07455   -910.39536    272096.96   -78974.736    7025.1615   -85999.898    856.89391 
   14600    281.24247   -1058.0819    272167.86   -78965.344    7130.8382   -86096.182    859.06625 
   14650    277.26293   -1005.4281    272367.96   -78977.834    7029.9379   -86007.772    861.74667 
   14700    272.45592    -961.7318    272687.34   -78939.426    6908.0573   -85847.484    865.16108 
   14750    276.83841   -1320.5079    272629.04   -78943.176    7019.1743    -85962.35    867.78035 
   14800    273.97921   -1115.9197    272239.89    -78990.84    6946.6799    -85937.52    869.11655 
   14850    279.60223   -1051.2589    271894.56   -79014.852    7089.2504   -86104.103    870.57142 
   14900    275.94057   -953.39401    271870.97   -79021.019    6996.4098   -86017.428    873.36693 
   14950    274.71222   -1082.6989    272334.39   -79082.545    6965.2651    -86047.81    877.33621 
   15000    280.44393   -1262.8218    272539.97   -79071.381    7110.5913   -86181.972    879.08058 
   15050    274.10014   -1012.0648    272091.15   -79081.226    6949.7462   -86030.973    880.47727 
   15100    274.61105   -871.64695     271512.7   -79065.583       6962.7   -86028.283    881.12101 
   15150     271.2806   -658.89622       271618   -79071.398    6878.2572   -85949.655    882.80804 
   15200    278.45069   -1110.2416    272420.99   -79048.738    7060.0533   -86108.791    884.99227 
   15250    275.13709   -1277.8792     272931.1   -79043.713    6976.0376   -86019.751    889.63612 
   15300    274.92653   -1124.3077    272674.64   -79005.292    6970.6989    -85975.99    891.52822 
   15350    276.69274   -834.65106    271890.12   -79018.744    7015.4809   -86034.225    893.18598 
   15400    278.45576   -980.48888    271508.21   -78989.277    7060.1819   -86049.459    894.87286 
   15450    276.17534   -695.32432    271651.56   -78999.868    7002.3622    -86002.23    898.60317 
   15500    275.58398   -1056.5283    272112.19   -78979.137    6987.3684   -85966.505    902.13407 
   15550    275.58047   -1147.8389    272393.68   -78981.261    6987.2794    -85968.54    905.93959 
   15600    277.06194   -1109.0726    272493.57   -78980.004    7024.8419   -86004.845    907.93686 
   15650    279.56111   -1162.9967    272590.55   -78983.313    7088.2077    -86071.52    911.82076 
   15700    276.01916   -899.07091    272310.25   -78954.232    6998.4025   -85952.634    913.25616 
   15750    275.59264    -1036.354    271965.62   -78964.187     6987.588   -85951.775     914.7653 
   15800    277.52059   -841.07659    271886.67   -78968.338    7036.4707   -86004.809    917.20832 
   15850    277.89714   -1052.1247     272295.8   -78946.309    7046.0182   -85992.327    919.19745 
   15900    277.14916   -997.47416    272810.79   -78941.319    7027.0533   -85968.372    922.70247 
   15950     282.2763   -1094.5745    273040.16   -78908.945    7157.0506   -86065.996    925.76113 
   16000    274.68788   -1033.2684    272823.67   -78881.841    6964.6482    -85846.49    928.50643 
   16050    277.85333     -1096.29    272463.49   -78845.632    7044.9075   -85890.539    930.56483 
   16100    278.81941   -1089.6138    272079.81   -78845.294    7069.4022   -85914.696    933.57954 
   16150    280.13907    -839.3908    272003.26   -78845.539    7102.8616     -85948.4    935.86864 
   16200    274.09695    -834.7011    272509.78    -78784.92    6949.6652   -85734.585    940.41072 
   16250    278.85439   -1109.9286    273210.09   -78753.221     7070.289   -85823.509    944.94471 
   16300    279.50928   -952.13365    273355.37   -78766.782    7086.8935   -85853.675    948.53711 
   16350    280.17932   -1065.6351    273122.69   -78794.016    7103.8823   -85897.898    949.44649 
   16400    280.88219   -864.74558    272614.54   -78781.881    7121.7035   -85903.584    949.86729 
   16450    280.64628   -799.46987    272345.71   -78824.059     7115.722   -85939.781    951.04999 
   16500    284.03028   -951.15238    272284.32   -78796.221    7201.5224   -85997.744    953.05109 
   16550    283.41666   -871.90432     272276.6   -78767.491    7185.9642   -85953.455    955.11235 
   16600      281.009   -1084.9861    272617.53   -78738.914    7124.9185   -85863.833    957.01387 
   16650     280.4008   -1127.2072    272775.02   -78686.993    7109.4979   -85796.491    960.12788 
   16700     284.2432   -984.91207    272643.84    -78773.75    7206.9211   -85980.671     963.7715 
   16750    276.16201   -800.23379    272481.55   -78789.485    7002.0242   -85791.509    963.96638 
   16800    280.08195   -1147.0685    272471.32   -78804.823    7101.4134   -85906.237    967.68314 
   16850    279.07221   -993.27974    272572.81   -78833.241    7075.8119   -85909.052    971.92427 
   16900    277.88277   -889.32935    272657.91    -78824.14    7045.6539   -85869.793    976.08019 
   16950     288.3393   -955.40115    272475.28   -78798.665    7310.7766   -86109.441     977.5089 
   17000    279.88231   -1012.2749    272311.27   -78836.114    7096.3517   -85932.465    979.38522 
   17050    278.86528   -873.73986    272062.91   -78807.896    7070.5651   -85878.461    981.44491 
   17100    283.79565   -1164.5342    272212.44   -78814.022    7195.5736   -86009.596    983.44633 
   17150    281.32657   -1074.4477    272562.46   -78751.973    7132.9706   -85884.944    987.08802 
   17200    281.09992     -1068.39    272807.84    -78707.36    7127.2238   -85834.584     990.2795 
   17250    280.91825   -1015.1033    272847.29   -78709.673    7122.6176    -85832.29    993.64126 
   17300    284.29005   -1123.4238    272879.39   -78662.918    7208.1089   -85871.027    996.66729 
   17350    283.78741   -1114.9525    272851.64   -78707.419    7195.3646   -85902.784    999.07517 
   17400    279.10368   -995.46879     272681.6   -78730.012    7076.6096   -85806.621    999.29011 
   17450    283.46624   -1028.9508    272494.28   -78703.947    7187.2214   -85891.168    999.15943 
   17500    280.65579   -921.12419    272531.08   -78755.378    7115.9632   -85871.341    1002.6357 
   17550    279.13495   -834.31034    272732.48   -78795.825    7077.4025   -85873.228    1005.6713 
   17600    281.49197   -932.67196    273103.46   -78769.519    7137.1642   -85906.683    1008.7033 
   17650     283.0371   -1055.8703    273353.74   -78717.699    7176.3407   -85894.039    1012.0691 
   17700    280.07764   -1161.6694    273356.56    -78694.56    7101.3042   -85795.864    1014.3519 
   17750    276.40642   -699.22086    272860.23   -78691.603    7008.2213   -85699.824    1016.5616 
   17800    284.24509   -1007.9562    272673.65   -78697.058    7206.9689   -85904.027    1016.9232 
   17850    279.01894   -965.77335    272489.04   -78726.476    7074.4613   -85800.937    1019.3773 
   17900    281.34839   -1097.7243    272563.97   -78747.239    7133.5238   -85880.763    1022.4169 
   17950    278.61532   -1091.8467    272905.88   -78761.811    7064.2274   -85826.039    1025.0424 
   18000    278.18731   -1106.8102    273011.85   -78816.884    7053.3752   -85870.259    1027.7171 
   18050    278.20988   -1264.0874    272755.94   -78847.071    7053.9475   -85901.018    1029.1389 
   18100    276.54861   -1036.3108    272191.42   -78878.948    7011.8266   -85890.774     1028.774 
   18150    282.20569   -1024.9732    271932.85   -78915.458    7155.2603   -86070.718    1030.9816 
   18200    284.53017   -937.64868    271726.88   -78868.576    7214.1972   -86082.773    1033.7747 
   18250    285.31074    -1100.773    271957.67   -78819.316    7233.9883   -86053.304    1037.5644 
   18300    281.74354   -1053.0241    272507.02   -78794.419    7143.5428   -85937.962    1041.5614 
   18350    280.05342   -1191.6966    273122.18   -78776.487    7100.6902   -85877.177    1044.8424 
   18400    281.96534   -1126.1373    273151.63   -78780.821    7149.1664   -85929.987    1047.3033 
   18450    281.26278   -1141.8202    272690.32   -78815.716    7131.3531   -85947.069    1048.4682 
   18500    280.60927    -1087.307    272138.28   -78797.649    7114.7836   -85912.433    1050.1705 
   18550    281.97045     -580.323    271874.43    -78776.16    7149.2959   -85925.455    1052.2795 
   18600    283.75727   -1028.6831    272317.62   -78742.623    7194.6004   -85937.224    1055.5603 
   18650    280.86032   -971.11426    272962.15   -78749.366     7121.149   -85870.515    1058.8819 
   18700    279.04193   -1021.2081    273418.89   -78756.799    7075.0441   -85831.843    1062.9359 
   18750    279.47923   -1045.8294    273501.52   -78684.315    7086.1316   -85770.447    1066.1241 
   18800    279.27583   -994.34348    272985.96   -78702.953    7080.9744   -85783.927    1068.5143 
   18850    286.61291   -954.06058    272297.23   -78748.329    7267.0044   -86015.334    1069.4639 
   18900    283.15582   -689.33146    272039.57   -78768.143    7179.3507   -85947.494     1071.897 
   18950    281.00635   -900.20817    272436.89   -78798.266    7124.8514   -85923.118    1075.2169 
   19000    279.90354   -1037.2899    273079.04   -78760.747    7096.8899   -85857.637    1080.5908 
   19050    281.19884   -1024.5823       273372   -78734.179     7129.732   -85863.911    1086.4497 
   19100    280.55764   -908.26973    273219.36   -78775.296    7113.4746    -85888.77     1089.574 
   19150    280.92085   -877.83991    272882.97   -78746.298    7122.6837   -85868.981    1091.8871 
   19200     276.4218   -991.67224    272547.66   -78764.665    7008.6113   -85773.276    1094.1608 
   19250    281.43031   -828.40355    272371.64    -78762.08     7135.601   -85897.681    1095.6905 
   19300    284.65596   -1158.7388     272391.7   -78785.359    7217.3864   -86002.745    1098.1952 
   19350    279.51557   -948.44547    272213.47    -78817.03    7087.0531   -85904.083    1100.1025 
   19400    282.44449   -785.77835    272140.11     -78826.8    7161.3152   -85988.116    1101.7858 
   19450    278.10106   -1239.3324    272471.21   -78844.588    7051.1885   -85895.777    1104.1771 
   19500    275.90436    -992.3726    272506.06   -78905.896    6995.4917   -85901.388    1106.6455 
   19550    278.27472   -953.90552     272321.1   -78841.623    7055.5916   -85897.214    1109.2642 
   19600    279.01469   -975.15221    272291.65   -78834.175    7074.3535   -85908.528    1110.3285 
   19650    278.66344   -838.61864    272363.33   -78791.152    7065.4476     -85856.6    1114.1607 
   19700    282.17712   -923.64357     272691.4   -78737.718    7154.5361   -85892.254    1118.1989 
   19750    279.87435   -1037.3823    273028.62   -78754.721    7096.1499   -85850.871    1123.6302 
   19800    284.48263   -1040.0045    272895.06   -78783.845    7212.9917   -85996.837    1125.4364 
   19850      282.686   -1058.4797    272563.15   -78767.722    7167.4385    -85935.16    1129.2309 
   19900     285.5867   -964.72789    272296.55    -78719.74    7240.9851   -85960.725     1133.472 
   19950    283.52846   -1140.0813    272357.92   -78724.135    7188.7991   -85912.934    1135.6029 
   20000    280.73909   -1021.8714    272497.45   -78688.573    7118.0751   -85806.649    1139.5351 
   20050     278.6323   -1095.3977    272765.38   -78722.744    7064.6579   -85787.402    1144.1783 
   20100    280.27342    -1175.255     273134.7   -78740.536    7106.2683   -85846.804    1148.4825 
   20150    276.26689   -1086.3332    273465.72   -78755.591    7004.6836   -85760.275    1151.9589 
   20200    278.41611   -1112.0899    273481.25   -78742.736    7059.1765   -85801.912    1154.6734 
   20250    283.91124    -1159.849    272750.72   -78774.813    7198.5044   -85973.317    1153.7505 
   20300     282.1961    -929.3153    271758.78   -78770.548    7155.0173   -85925.565    1153.3843 
   20350    283.05098   -799.64338    271618.89   -78768.092    7176.6925   -85944.785    1156.9076 
   20400    279.81868   -935.94428    272259.85   -78731.464    7094.7382   -85826.203    1163.7627 
   20450    278.36689   -778.95783     272813.4   -78677.639    7057.9286   -85735.568     1169.275 
   20500    283.36429   -1332.5483    272967.07   -78679.765    7184.6364   -85864.401    1172.2894 
   20550    277.03797   -753.63904    272532.33    -78677.36    7024.2342   -85701.594      1174.26 
   20600    279.81315   -691.90283     272223.9   -78671.098    7094.5982   -85765.696    1177.9732 
   20650    285.00598   -1172.6526    272343.36   -78627.632     7226.261   -85853.893    1181.5268 
   20700    283.74625   -981.35278    272473.46   -78709.546    7194.3209   -85903.867    1183.6133 
   20750    282.56364   -1043.6014    272684.49   -78703.401    7164.3362   -85867.738    1187.8151 
   20800    281.70268   -1025.5477    272722.49   -78689.522    7142.5066   -85832.028    1192.1873 
   20850    282.96159   -1131.3425    272673.56   -78695.034     7174.426    -85869.46    1195.4519 
   20900    282.96693   -985.37427    272596.09   -78625.466    7174.5616   -85800.027    1199.7413 
   20950    286.39177   -1147.5343    272632.83   -78683.455    7261.3976   -85944.853    1203.0294 
   21000    283.00307   -1088.7799    272701.57    -78710.35    7175.4779   -85885.828    1206.7643 
   21050    285.81044   -930.75885    272681.68   -78669.711    7246.6581   -85916.369    1208.6056 
   21100    286.89013   -925.63022    272603.27    -78662.06    7274.0333   -85936.093    1211.1568 
   21150    282.20274   -932.95986    272624.76   -78694.934    7155.1856    -85850.12    1214.0839 
   21200    278.86502   -878.20442    272599.67   -78713.281    7070.5584   -85783.839    1213.7439 
   21250    280.81707   -1081.0827    272612.94   -78757.388    7120.0522   -85877.441    1216.5767 
   21300     279.3879   -948.58387    272455.63   -78754.899    7083.8161   -85838.715    1218.6668 
   21350    285.87731    -984.6849    272052.47   -78832.778    7248.3536   -86081.132    1222.1739 
   21400    280.93922   -877.23514       271954    -78834.96    7123.1494   -85958.109    1226.6929 
   21450    281.87041   -894.01197     272250.2   -78821.646    7146.7595   -85968.406     1230.907 
   21500    280.92153    -1066.501    272588.04   -78790.278    7122.7009   -85912.979    1234.1646 
   21550    281.85127   -984.98979    272718.76   -78801.198    7146.2742   -85947.472    1238.2373 
   21600     274.6734   -932.23091    272811.54   -78835.799    6964.2808    -85800.08    1241.7178 
   21650    280.39056   -1056.5342    272434.46   -78851.128    7109.2383   -85960.366    1243.9978 
   21700    280.10493   -959.80814    272014.56    -78831.07    7101.9961   -85933.066    1245.0471 
   21750    281.66663   -852.21944    271831.93   -78836.309    7141.5927   -85977.901    1248.5291 
   21800    282.16232   -1056.8442    271955.35   -78850.939    7154.1608     -86005.1    1251.4736 
   21850    281.74291   -911.88673    272244.18   -78847.282    7143.5266   -85990.809    1255.1536 
   21900    280.87958   -1251.2094    272536.44   -78825.403    7121.6372   -85947.041    1258.2824 
   21950    278.75727   -1067.3269    272427.17   -78840.904    7067.8267    -85908.73    1259.5715 
   22000    280.83088   -1005.7527    272198.99   -78801.701    7120.4025   -85922.104    1263.3975 
   22050    283.21087   -1185.3584    272225.45   -78797.269    7180.7465   -85978.015    1267.9389 
   22100     281.7937   -905.48115    272226.88   -78780.049    7144.8145   -85924.863    1272.3953 
   22150    282.35113   -861.48487    272593.41   -78766.751     7158.948   -85925.699    1277.3175 
   22200    281.59835   -1173.5142     272863.1   -78757.787    7139.8615   -85897.649    1281.4492 
   22250     282.4541   -971.31377    272786.92   -78779.623    7161.5589   -85941.182    1284.2882 
   22300    277.93323   -917.54109    272737.82   -78803.492    7046.9332   -85850.425    1287.0473 
   22350    278.17081   -970.19417    272667.31   -78811.381    7052.9569   -85864.338    1291.4054 
   22400    279.40985   -875.27985    272460.71   -78833.431    7084.3727   -85917.803    1295.3155 
   22450    280.71266   -852.26159    272511.51    -78808.93     7117.405   -85926.335    1296.1204 
   22500    278.61475    -885.2175    272626.85   -78733.031    7064.2129   -85797.244     1297.556 
   22550    283.64131   -932.47191    272708.73     -78764.4    7191.6603    -85956.06    1302.2973 
   22600    280.20626   -969.00976    272559.16   -78792.788    7104.5653   -85897.354     1304.372 
   22650    277.50519   -1001.5151    272333.56   -78775.482    7036.0804   -85811.562    1304.4643 
   22700    279.90965   -1084.5376    272279.72   -78795.312    7097.0449   -85892.356    1306.9481 
   22750     281.3542   -863.17402    272314.22   -78771.142    7133.6711   -85904.813     1310.265 
   22800    283.76071   -1050.3406    272718.33   -78789.259    7194.6875   -85983.946    1314.7313 
   22850    277.86332   -1023.3778     273059.7   -78767.681    7045.1606   -85812.842    1319.0828 
   22900    279.88338   -1068.7517    273143.44   -78706.264    7096.3788   -85802.643    1322.0023 
   22950    281.02561   -1017.9702    272902.68   -78724.304    7125.3397   -85849.644    1323.8319 
   23000    282.21523   -907.28321    272344.56   -78791.536    7155.5022   -85947.039    1325.9801 
   23050    283.11765   -818.46558    271951.45   -78787.996    7178.3829   -85966.379    1328.7094 
   23100    281.56053    -907.1735    271976.32   -78836.188    7138.9024    -85975.09    1332.8318 
   23150    280.62041   -1114.8981    272258.91    -78835.74     7115.066   -85950.806    1336.6492 
   23200    282.82382   -1065.6151    272740.18   -78790.153     7170.933   -85961.086    1343.0968 
   23250    278.67569   -1095.7845    273011.69   -78769.687     7065.758   -85835.445    1347.8219 
   23300    283.57152   -989.06124    272807.49   -78784.971    7189.8909   -85974.862    1347.9638 
   23350    282.22275    -826.2939    272343.97    -78807.43     7155.693   -85963.123     1346.605 
   23400    285.62145   -1009.3374    272107.88   -78798.057    7241.8662   -86039.923    1346.7306 
   23450     281.1383   -1057.1408    272039.96   -78818.452    7128.1969   -85946.649    1348.3031 
   23500    274.99916   -579.76562    272137.01    -78837.21    6972.5404   -85809.751    1352.6459 
   23550    276.09717    -985.6268    272690.43   -78824.639    7000.3803   -85825.019    1357.9922 
   23600    279.21875    -1228.489    273113.05   -78820.947    7079.5272   -85900.474    1361.1987 
   23650    276.25657   -1175.7564    272709.86   -78859.229     7004.422   -85863.651    1361.5858 
   23700    278.11981   -960.06288    271996.25    -78885.24    7051.6639   -85936.904    1361.4758 
   23750    283.61848   -961.45969    271535.59   -78890.563    7191.0814   -86081.644    1361.8486 
   23800    284.18879   -838.27124     271324.1   -78868.016    7205.5416   -86073.558    1363.3544 
   23850    284.89994   -904.72694    271887.82   -78835.979    7223.5726   -86059.551    1366.9554 
   23900    280.18016   -1133.9417    272956.07   -78841.982    7103.9035   -85945.886    1375.7621 
   23950    277.48137   -1305.7162    273735.74   -78868.388    7035.4765   -85903.865    1383.2829 
   24000    279.97423   -1077.1938    273476.98   -78848.638    7098.6822    -85947.32    1383.8139 
   24050    278.99363   -1091.6652    272674.84   -78857.174    7073.8195   -85930.993    1383.2012 
   24100    279.40264   -1034.9565    271787.73   -78869.832    7084.1897   -85954.022    1381.4849 
   24150    280.74699   -518.60642    271369.19   -78854.276    7118.2754   -85972.552    1381.6901 
   24200    280.22499   -987.02656    271898.58   -78857.618    7105.0402   -85962.658    1385.9443 
   24250     278.2628   -1184.2006    272546.09   -78785.917    7055.2894   -85841.206    1390.9902 
   24300     282.7255   -1242.6943    272974.68   -78811.981    7168.4402   -85980.421    1396.9808 
   24350    280.57086   -1194.3489    272869.03   -78842.841    7113.8098    -85956.65    1400.9929 
   24400    277.42227   -1021.2311    272344.07   -78866.117    7033.9779   -85900.095    1401.8252 
   24450    282.88262   -757.79594    271748.83   -78878.263    7172.4239   -86050.687     1402.064 
   24500    277.36769   -813.59761    271708.25   -78879.722     7032.594   -85912.316    1402.4631 
   24550     277.9853   -1167.2457    272158.89    -78902.99    7048.2535   -85951.244    1405.6507 
   24600    281.20368   -1102.2275    272464.49   -78923.141    7129.8547   -86052.995    1408.4349 
   24650    279.85759   -880.48358    272471.35   -78911.532    7095.7249   -86007.257    1409.4536 
   24700    274.29194   -893.14572    272297.71   -78912.999    6954.6091   -85867.609    1411.1978 
   24750    279.44133    -995.1071    272055.87   -78904.531    7085.1708   -85989.702    1414.2863 
   24800    275.77294   -975.45709    272011.09   -78927.503    6992.1595   -85919.663    1415.2324 
   24850    279.55845   -937.74041    272158.18   -78923.606    7088.1402   -86011.746    1418.9903 
   24900    272.64479   -917.43328    272367.27   -78952.673     6912.846   -85865.519    1422.3473 
   24950    276.45435   -962.58637    272421.16   -78951.264    7009.4366   -85960.701    1423.8815 
   25000     277.2634   -1108.7806    272434.48   -78920.408    7029.9497   -85950.357    1426.5362 
   25050    279.20893   -1112.8836     272397.2   -78896.294    7079.2782   -85975.572    1429.5708 
   25100    278.74798   -883.59989    272232.63   -78925.242     7067.591   -85992.833    1431.8994 
   25150    276.97188   -902.92569    272095.89   -78901.931    7022.5585   -85924.489    1435.2734 
   25200    277.39129   -902.63247    272187.32    -78864.31    7033.1925   -85897.503    1437.1491 
   25250     278.8607   -1135.6017     272366.7     -78849.1     7070.449   -85919.549     1440.209 
   25300    279.39406   -1097.0303    272328.15   -78823.682    7083.9722   -85907.654    1442.2155 
   25350    282.99285   -1001.9916    272229.43   -78834.255    7175.2187   -86009.474    1443.9292 
   25400     281.2609   -996.74833    272286.82   -78856.276    7131.3054   -85987.582    1446.3122 
   25450    277.51865   -1035.2495     272618.5   -78874.016    7036.4216   -85910.437    1450.3469 
   25500    272.70692   -1058.3134    272737.29   -78885.655    6914.4212   -85800.077    1452.4683 
   25550    279.20695   -1020.7377    272512.18   -78894.467     7079.228   -85973.695    1453.4263 
   25600    277.10226    -944.5213    272095.99   -78911.289    7025.8641   -85937.153    1455.9366 
   25650    282.78998   -978.76405    272115.25   -78898.893     7170.075   -86068.968    1458.6009 
   25700    280.79601   -1027.3233    272543.68   -78860.103    7119.5183   -85979.621    1461.4468 
   25750    280.58256   -1295.4764    272847.42   -78867.277    7114.1065   -85981.383    1467.1568 
   25800    279.26183   -970.18951     272753.6   -78848.339    7080.6195   -85928.958    1470.9827 
   25850     281.8617   -1130.8308     272538.5   -78855.299    7146.5387   -86001.837    1473.8694 
   25900    282.72157   -819.22418    272048.02   -78898.373    7168.3404   -86066.714     1474.324 
   25950    280.19828    -843.1954    272009.77   -78914.332     7104.363   -86018.695    1475.5013 
   26000    271.73149   -1223.4692    272578.32    -78929.75    6889.6896    -85819.44    1477.6426 
   26050    272.93114   -993.76733    272872.35    -78924.03    6920.1064   -85844.136    1479.5464 
   26100    274.16508   -1090.6719    273009.81   -78930.323    6951.3927   -85881.716    1483.0165 
   26150     279.8117   -1009.1945    272869.37   -78875.999    7094.5614   -85970.561    1483.5021 
   26200    272.05473   -1069.0329    272774.74     -78862.1    6897.8853   -85759.985    1486.1357 
   26250    281.89066   -987.19561     272297.6   -78844.372    7147.2728   -85991.645    1487.0624 
   26300    279.63898   -743.37305    271718.03   -78851.706    7090.1822   -85941.888    1486.1433 
   26350    280.77081   -790.06766    271759.58   -78802.722    7118.8795   -85921.602    1489.3635 
   26400    284.30985   -1119.3212    272175.27   -78800.985     7208.611   -86009.596    1495.5493 
   26450    281.60058   -1028.6991     272558.8    -78841.12     7139.918   -85981.038    1499.4886 
   26500    279.68333   -1240.2505    273125.55   -78801.789    7091.3065   -85893.095    1504.9528 
   26550    280.06741   -1110.4442    273143.85   -78838.349    7101.0449   -85939.394    1506.8528 
   26600    281.88549   -879.58013    272619.03   -78833.284    7147.1419   -85980.425    1507.2653 
   26650    277.12912   -1027.4661    272059.94   -78871.634    7026.5453   -85898.179    1506.3767 
   26700    282.01806   -1011.1277    271602.21    -78930.93    7150.5031   -86081.433    1506.3296 
   26750    279.65377   -870.82152    271687.25   -78965.243     7090.557     -86055.8    1508.7953 
   26800    280.32741   -1015.1739    272336.18   -78960.809    7107.6372   -86068.447    1513.2811 
   26850    277.21806   -1138.6172    272690.68   -78994.955    7028.8001   -86023.755     1518.339 
   26900    277.02535   -985.62874    272467.46   -79021.569     7023.914   -86045.483    1519.2446 
   26950    271.93667   -980.42842    272145.42   -79015.506    6894.8917   -85910.398    1518.6253 
   27000    277.62004    -861.8886    271819.07   -79040.539    7038.9924   -86079.532    1521.3784 
   27050    277.10298   -877.75067    271794.56    -79033.46    7025.8825   -86059.342    1523.9337 
   27100    275.46354   -940.69269    272141.03   -79066.771    6984.3147   -86051.085    1526.0324 
   27150    278.58343   -967.82373    272478.83   -78966.092    7063.4189   -86029.511    1528.8879 
   27200    279.22615   -1045.9345    272569.16   -78969.147    7079.7149   -86048.862    1531.8325 
   27250    279.79703   -1048.5503    272299.37   -78980.259    7094.1894   -86074.449    1534.5116 
   27300    277.31686    -927.5566       271893   -78962.752    7031.3053   -85994.057    1537.4346 
   27350    273.73595   -961.38993    271853.95   -78970.231    6940.5122   -85910.743    1538.5481 
   27400    279.54723   -708.87981    271986.39   -78933.495    7087.8559   -86021.351    1541.9113 
   27450    277.58849    -1094.924    272226.69   -78898.177    7038.1925    -85936.37    1546.7392 
   27500    279.17234    -839.4026    272287.21   -78852.081    7078.3506   -85930.432    1548.5105 
   27550     284.3537   -869.25142    272252.91   -78847.787    7209.7227    -86057.51     1551.293 
   27600    278.37568   -889.82381    272403.32   -78827.235    7058.1514   -85885.387    1553.3419 
   27650    280.46001   -1036.1065    272554.81   -78858.206    7110.9992   -85969.205    1556.5743 
   27700    279.18935   -940.69959    272425.21   -78865.182    7078.7818   -85943.964    1559.3726 
   27750    282.23267   -870.20891    272319.66   -78838.015    7155.9445    -85993.96    1561.8078 
   27800    281.46028   -1205.0165    272399.23   -78895.337    7136.3607   -86031.698    1566.8082 
   27850    280.40143   -914.08265    272450.05    -78863.81    7109.5139   -85973.323    1571.3677 
   27900    280.66908   -681.31895    272575.04   -78790.712       7116.3   -85907.012    1577.4132 
   27950    278.85213   -1194.3357    273019.22   -78790.366    7070.2316   -85860.598    1582.2105 
   28000    279.73773   -1257.3735    272967.07   -78792.073    7092.6858   -85884.759    1586.0016 
   28050    281.11286   -859.31192    272504.22   -78780.236    7127.5519   -85907.788    1586.7961 
   28100    280.43827   -981.82376    272187.09   -78783.591    7110.4479   -85894.039    1588.8422 
   28150    282.62845   -1021.1175    272262.08   -78814.129    7165.9794   -85980.108    1591.5483 
   28200    280.18236   -1263.6823    272593.65   -78836.028    7103.9593   -85939.987    1597.0298 
   28250    276.89621   -882.70382    272799.14   -78777.308    7020.6398   -85797.948    1602.7594 
   28300    279.62246   -1044.0966    272639.39   -78791.631    7089.7631   -85881.395    1604.3397 
   28350    279.47438   -890.32856    272287.47     -78824.1    7086.0087   -85910.109    1607.1529 
   28400    282.92148    -1037.867    272107.45   -78822.113    7173.4093   -85995.522    1609.7164 
   28450    284.46355   -940.20301    272062.89   -78829.208     7212.508   -86041.716    1612.1587 
   28500    282.31583   -1035.0111    272312.64   -78776.686    7158.0531   -85934.739    1616.2322 
   28550     281.0475   -919.61643    272557.82   -78735.747    7125.8948   -85861.641    1619.6926 
   28600    281.28246   -1088.8821    272828.46    -78696.07    7131.8523   -85827.922    1623.3362 
   28650    278.40253   -974.37645    272749.42   -78706.799    7058.8322   -85765.631    1625.4214 
   28700     279.6088   -980.13728    272655.62   -78663.269     7089.417   -85752.686    1627.9502 
   28750    288.85328   -1173.4857     272719.6   -78701.673    7323.8085   -86025.482    1630.0319 
   28800    281.52217   -1106.8729    272690.04   -78772.465      7137.93   -85910.395    1633.1947 
   28850    281.86315   -1026.6933    272447.37   -78785.169    7146.5755   -85931.745    1636.6974 
   28900    284.36987   -899.05015    272323.13   -78789.645    7210.1327   -85999.777    1640.7118 
   28950     282.0482   -1247.8244    272521.34   -78794.625    7151.2673   -85945.892    1645.1263 
   29000    275.25006   -1099.2609    272672.23   -78824.929    6978.9021   -85803.831    1649.7221 
   29050    280.32134   -1060.0801    272775.91   -78827.364    7107.4831   -85934.847    1651.8988 
   29100    286.28942   -1073.5907    272697.54   -78818.646    7258.8025   -86077.448    1654.9268 
   29150    278.16119   -989.06275    272577.71   -78823.495     7052.713   -85876.208    1658.6098 
   29200    280.93183   -893.58968    272274.87   -78823.626    7122.9619   -85946.588    1658.2273 
   29250     285.8951   -981.47863     272080.9   -78787.469    7248.8046   -86036.274    1659.6454 
   29300    284.83134   -1199.4172    272253.54   -78825.618    7221.8332   -86047.451    1664.3937 
   29350    276.28406   -1127.5837    272543.27   -78848.274    7005.1189   -85853.393    1669.7593 
   29400    279.06852   -829.15657    272518.85   -78867.448    7075.7182   -85943.166     1670.297 
   29450    281.18722   -1076.2441    272264.69   -78876.769    7129.4373   -86006.206    1671.4132 
   29500    279.57473   -704.67151    271628.81    -78899.77     7088.553   -85988.323    1671.1335 
   29550    281.62597   -845.69434    271624.99   -78869.149    7140.5617   -86009.711    1672.8212 
   29600    283.28511   -1178.1404    272364.03   -78837.555    7182.6288   -86020.183    1677.8179 
   29650    275.26492   -1084.8347    273118.91   -78804.851    6979.2788    -85784.13    1683.1403 
   29700     276.9191   -1245.9063    273292.82   -78827.983    7021.2203   -85849.203    1686.9766 
   29750     281.8881   -1016.4895     272761.3   -78818.369    7147.2079   -85965.577    1686.3679 
   29800    284.67246   -918.15093     272065.2   -78811.154    7217.8049   -86028.958    1685.6113 
   29850    281.83601   -804.50285    271805.49   -78806.435    7145.8874   -85952.323    1687.1361 
   29900    283.58309   -938.07781    271969.54   -78767.986    7190.1841    -85958.17    1692.6643 
   29950    283.17691   -928.79357    272567.89   -78749.065    7179.8855   -85928.951     1697.056 
   30000    283.59315   -1235.2685     273128.2   -78775.232    7190.4391   -85965.671    1703.1122 
   30050     280.7882   -1524.6347    273112.95   -78798.017    7119.3203   -85917.338    1706.5918 
   30100    280.81626   -945.79134    272534.57   -78759.796    7120.0318   -85879.828    1705.7389 
   30150    282.91606   -803.04795    271901.74   -78772.642    7173.2717   -85945.914    1704.3482 
   30200    285.83217   -837.73203    271690.85   -78785.428    7247.2091   -86032.637    1704.9977 
   30250    282.34554    -824.3033    272120.34   -78791.914    7158.8063    -85950.72    1708.8886 
   30300    278.70842   -1141.3254    272738.43   -78765.337    7066.5881   -85831.925    1715.3419 
   30350    278.77238   -1147.7665    272891.41   -78780.775    7068.2097   -85848.985    1718.5382 
   30400    280.73765   -1189.0217    272494.44   -78854.867    7118.0386   -85972.906    1721.1667 
   30450     277.5858   -690.81393    271736.68   -78895.014    7038.1241   -85933.138    1722.7354 
   30500    280.77242   -772.98871    271553.94   -78851.556    7118.9202   -85970.476    1724.6557 
   30550     279.3176   -801.57379    271993.91   -78841.846    7082.0335    -85923.88    1727.5439 
   30600    283.03685   -1237.1989    272682.85   -78867.646    7176.3342    -86043.98    1732.7242 
   30650    278.90751   -1108.3861    272876.69   -78879.469    7071.6358   -85951.105    1737.5391 
   30700    279.39145    -1202.193    272773.54   -78873.841     7083.906   -85957.747     1738.277 
   30750    277.77058   -922.68522    272477.24   -78911.133    7042.8092   -85953.942    1739.7307 
   30800    276.68801   -1016.6391       272268   -78953.559    7015.3611    -85968.92    1743.4245 
   30850    276.36676   -854.26608    272227.76    -78973.08    7007.2157   -85980.296    1745.3952 
   30900    280.92715   -1134.9745    272212.04   -78954.402    7122.8433   -86077.246    1748.0588 
   30950    275.68013   -944.03813    272109.93   -78964.802    6989.8063   -85954.608    1749.6444 
   31000    275.51832    -928.3862    272185.21   -78965.593    6985.7036   -85951.297    1752.7136 
   31050    277.75369   -1038.5535    272372.79   -78952.721    7042.3811   -85995.102    1754.1237 
   31100    278.82015   -1170.8633    272417.78   -78927.719     7069.421    -85997.14    1755.7607 
   31150    280.76334   -737.76002    272052.48   -78906.485    7118.6901   -86025.175    1757.7087 
   31200     281.0373   -1002.7289    272053.03   -78894.119    7125.6362   -86019.755    1759.8017 
   31250    282.29664   -1124.8905    272225.93   -78894.228    7157.5666   -86051.795    1763.1794 
   31300    282.86788   -1066.4685    272410.28   -78888.783    7172.0501   -86060.833    1767.5895 
   31350     280.3513   -1027.0504    272594.92   -78901.942    7108.2427   -86010.185    1771.4517 
   31400    277.78419   -1031.5758    272538.69   -78925.404    7043.1544   -85968.559    1772.6968 
   31450    277.62043   -935.21126    272099.07   -78918.793    7039.0021   -85957.795    1773.1265 
   31500    279.26894   -907.93762    271650.27   -78921.861    7080.7999   -86002.661    1773.7068 
   31550    283.03082   -1170.8535    271514.53   -78937.782    7176.1814   -86113.963     1776.678 
   31600    276.93424   -871.84606     271753.6    -78955.51     7021.604   -85977.114    1779.7193 
   31650    279.44653   -888.42641    272045.79   -78891.072    7085.3027   -85976.375    1783.5075 
   31700    280.67761   -1017.9359    272465.71   -78901.072    7116.5163   -86017.589    1789.1318 
   31750    273.63085   -1156.2577    272798.26   -78885.674    6937.8474   -85823.521    1793.5984 
   31800    276.70277   -1059.3813    272556.97   -78888.281    7015.7353   -85904.016    1794.4767 
   31850    282.86005   -997.51976    272161.89   -78931.488    7171.8516   -86103.339    1792.5237 
   31900    276.88651   -901.11935    271701.08   -78967.542    7020.3939   -85987.936    1792.1212 
   31950    278.51267   -836.35903    271575.55   -78935.838    7061.6248   -85997.463    1794.7446 
   32000    276.10266   -915.73878    271785.48   -78953.297    7000.5195   -85953.816    1799.1728 
   32050    279.42947   -1050.8839    272178.03   -78962.795    7084.8699   -86047.665    1803.2401 
   32100     283.4756   -1092.6856    272407.98   -78944.686    7187.4587   -86132.145    1804.5182 
   32150    281.36092   -1036.7984    272300.21   -78985.811    7133.8416   -86119.653    1807.3795 
   32200    276.36374   -863.89818    272140.02   -78959.186    7007.1393   -85966.325    1809.0293 
   32250    279.94845   -921.53918     272106.4   -78944.835    7098.0286   -86042.864    1810.3993 
   32300    275.24638   -843.06056    272093.09   -78965.444    6978.8087   -85944.252    1814.0288 
   32350    280.75653   -1136.9369    272313.07   -78968.519    7118.5173   -86087.036     1819.682 
   32400     277.8258   -1032.3745    272300.72   -78964.723    7044.2093   -86008.932    1824.5974 
   32450     276.0526   -832.20707    272302.85   -78998.541    6999.2502   -85997.791    1824.8191 
   32500    276.99323   -1064.9611    272431.19   -78968.102    7023.0997   -85991.202    1827.6291 
   32550    276.90405   -1045.8112    272411.86   -78981.677    7020.8387   -86002.515    1830.7066 
   32600    279.49375   -957.37258    272165.09   -78927.765    7086.4997   -86014.264    1831.8338 
   32650    278.10011    -739.7687    271969.45   -78930.594    7051.1645   -85981.759    1834.1653 
   32700    281.81934   -1173.3836    272207.37   -78940.544    7145.4647   -86086.009    1836.1286 
   32750    281.19363   -886.37182     272684.3   -78918.392    7129.5999   -86047.992    1840.5503 
   32800    275.96976   -1141.3031    273150.46    -78924.07    6997.1498    -85921.22    1846.8771 
   32850    278.31539   -1147.1966    272959.67   -78914.918    7056.6227   -85971.541    1849.0582 
   32900    277.35922   -1019.3531    272197.49   -78946.685    7032.3793   -85979.065    1847.9917 
   32950    274.45968    -924.0575     271683.4   -78991.383    6958.8622   -85950.245    1847.8183 
   33000     278.5991   -867.75309    271562.36   -78945.235    7063.8161   -86009.051    1850.5964 
   33050    283.11578   -878.54742    271859.92    -78945.72    7178.3356   -86124.056    1855.1994 
   33100    277.89642    -837.4957    272568.71   -78949.545    7045.9999   -85995.545    1861.6938 
   33150    278.19977   -1110.2444     273031.7   -78950.822    7053.6913   -86004.513    1866.6634 
   33200    276.03461   -1069.6582    272834.73   -78976.567    6998.7942   -85975.361    1870.4757 
   33250    276.75746   -1012.1816    272159.01   -78990.073    7017.1219   -86007.195    1871.3546 
   33300    277.01089   -652.23805    271693.65   -78984.884    7023.5476   -86008.431    1871.5848 
   33350    279.05338   -1003.9724    271848.79   -79015.437    7075.3343   -86090.771    1874.1688 
   33400    277.25068   -959.12724    271971.84   -78975.919    7029.6273   -86005.546    1878.1247 
   33450    279.20833   -851.65458    271918.19   -78958.161    7079.2631   -86037.424    1880.1559 
   33500    280.26958   -936.65026    271969.52   -78983.269    7106.1709    -86089.44    1883.6674 
   33550    277.59586   -958.72915    272431.89   -78954.502    7038.3793   -85992.881    1889.0039 
   33600    280.69848   -1440.1531    272808.46   -78960.623    7117.0454   -86077.668    1892.4799 
   33650     277.9708   -1055.5235    272603.94   -78964.253    7047.8858   -86012.139    1894.3984 
   33700    279.56444   -1157.9554    272081.28   -78946.641    7088.2922   -86034.933    1893.8403 
   33750    284.59008   -883.08812    271446.14   -78937.754     7215.716    -86153.47    1894.9887 
   33800    279.34864   -797.22633    271524.07   -78948.041    7082.8206   -86030.862    1897.9323 
   33850    281.30739   -711.18605    272265.29    -78946.36    7132.4841   -86078.844    1904.5762 
   33900    276.81124   -1057.0213    273091.75   -78947.434    7018.4855    -85965.92    1910.2848 
   33950    272.55385   -1149.5422    273366.15   -78943.423    6910.5402   -85853.963    1913.6512 
   34000     277.8864    -971.4002    272868.07   -78910.143    7045.7458   -85955.889    1912.7945 
   34050    280.79727   -1057.5165    272088.83   -78936.561    7119.5503   -86056.111     1914.194 
   34100    281.73214   -914.97771     271528.1   -78967.882    7143.2538   -86111.136    1913.3796 
   34150    281.26723   -877.05865    271637.47   -78965.117     7131.466   -86096.583    1915.9167 
   34200     276.4387   -963.76693    272048.39   -78971.741    7009.0398   -85980.781    1917.1587 
   34250      280.552   -1214.6775    272413.73   -78963.442    7113.3316   -86076.773    1920.3667 
   34300    276.71562   -1015.5401     272408.2   -78915.679    7016.0609   -85931.739    1925.3712 
   34350    277.26797   -934.31322     272219.6    -78939.78    7030.0658   -85969.846    1926.5058 
   34400    280.12424   -1028.0461    271926.76   -78988.558    7102.4858   -86091.044    1926.1988 
   34450     281.3165   -958.60294    271803.73   -78953.757    7132.7153   -86086.472    1928.1964 
   34500     276.7241   -888.19503    272054.43   -78984.337    7016.2761   -86000.613    1932.8753 
   34550    278.97748   -1157.7128    272587.55   -79024.782    7073.4098   -86098.192    1938.2033 
   34600    277.28987   -1365.4005    272905.79   -79051.317     7030.621   -86081.938    1941.4091 
   34650    277.19365   -1143.4537    272488.38    -79036.13    7028.1812   -86064.311    1941.4916 
   34700    279.31747   -804.91609    271783.02   -79018.801    7082.0303   -86100.831    1940.4901 
   34750    281.26052    -816.9583    271522.16   -79043.991     7131.296   -86175.287    1941.7338 
   34800    279.34046   -949.85577     271878.3   -79011.261    7082.6132   -86093.875    1944.0133 
   34850    279.10259   -1267.2022    272515.83   -79029.272    7076.5821   -86105.854    1948.7639 
   34900    276.23696   -1052.5765    272722.93   -79031.012    7003.9248   -86034.937    1951.7021 
   34950    277.83484   -1040.1452    272365.66   -78989.202    7044.4386    -86033.64    1951.6978 
   35000    276.23511   -1169.4652    271974.61   -78992.623    7003.8778   -85996.501    1952.4061 
   35050    275.87096   -749.08499    271634.59   -78985.642    6994.6448   -85980.287    1952.4916 
   35100    273.66604   -1118.6786    271937.96   -79013.673    6938.7395   -85952.412    1956.7435 
   35150    278.60195   -1104.3204    272183.32   -79022.592    7063.8884   -86086.481    1963.0811 
   35200    273.59328   -1307.2363    272112.99   -79013.331    6936.8948   -85950.226    1966.0362 
   35250    278.44888   -733.97071    271775.65   -78975.494    7060.0073   -86035.501     1966.923 
   35300    281.15795   -543.50166    271746.42   -78952.413    7128.6954   -86081.109    1969.2501 
   35350    279.37617   -911.11261     272426.9   -78923.477    7083.5187   -86006.995    1974.8237 
   35400    278.39286   -1333.6672    272981.59   -78950.219    7058.5869   -86008.806    1979.9632 
   35450    276.68548   -900.62829    272802.75   -78930.225    7015.2968   -85945.522    1980.9154 
   35500    280.21066   -996.25434     272336.1   -78913.984    7104.6769   -86018.661    1983.4157 
   35550    274.04605   -924.88612     271810.3    -78955.73    6948.3747   -85904.104    1982.5552 
   35600    275.33603   -918.69074    271607.97   -78877.072    6981.0817   -85858.153    1983.7703 
   35650     277.6875   -751.43561     271904.5   -78871.079    7040.7029   -85911.782    1988.0046 
   35700    276.92905   -1116.8306     272533.6   -78911.955    7021.4724   -85933.428    1992.8857 
   35750    280.13198   -1213.5523    272732.38   -78905.442    7102.6821   -86008.124    1996.9794 
   35800      276.856   -1299.9814    272555.17   -78922.508    7019.6202   -85942.128    1999.5384 
   35850    279.81565   -759.48613    272152.21    -78894.32    7094.6616   -85988.982    2001.1899 
   35900    277.38255   -813.54797    272223.39   -78890.388    7032.9708   -85923.359    2005.1159 
   35950    274.87967   -717.11224    272574.25   -78895.738    6969.5108   -85865.249    2007.4754 
   36000    279.92934   -1542.9859    272679.44   -78917.778    7097.5442   -86015.322    2011.2043 
   36050    277.69487   -1120.4529    271917.64   -78961.766    7040.8896   -86002.656    2009.1891 
   36100    283.91209   -762.48162    271162.49   -78945.993    7198.5257   -86144.519    2007.6624 
   36150    281.55922   -870.58449    271106.64   -78940.421    7138.8693    -86079.29    2008.2275 
   36200    280.26455   -834.34457    271659.52   -78944.242    7106.0433   -86050.286    2013.6609 
   36250    280.41488   -1190.0095     272486.9   -78918.248    7109.8548   -86028.103    2019.7812 
   36300    275.63572   -1013.9923    272977.15   -78948.443    6988.6803   -85937.123    2024.6522 
   36350    275.76015    -1189.987    273233.09   -78873.937    6991.8353   -85865.773    2029.3606 
   36400    280.72988   -996.11262    272945.11   -78928.475    7117.8417   -86046.317    2029.8424 
   36450    283.13744   -1243.8316    272422.87   -78914.873    7178.8847   -86093.758    2028.7377 
   36500    274.76299   -776.76897    271624.62   -78924.408    6966.5524   -85890.961    2027.7231 
   36550    282.32088   -733.57793    271335.02   -78894.241     7158.181   -86052.422     2028.067 
   36600    282.28224   -1063.4262    271833.98   -78872.936    7157.2013   -86030.138    2035.5763 
   36650    277.10356   -933.17298    272388.87   -78887.952    7025.8972   -85913.849    2043.0342 
   36700    280.91245   -1142.1684    272856.47   -78872.471    7122.4706   -85994.942     2049.168 
   36750    284.05237   -1140.1499    272932.93   -78897.309    7202.0825   -86099.392    2052.4529 
   36800    278.57774   -930.03312    272519.02   -78860.324    7063.2745   -85923.598    2054.4785 
   36850    275.72179   -862.66322    271642.23    -78878.74    6990.8626   -85869.602    2052.5383 
   36900    282.30535   -644.82679    271146.66   -78897.882    7157.7873    -86055.67    2050.9734 
   36950    281.47733   -766.12162    271689.79   -78933.272     7136.793   -86070.065    2056.0833 
   37000    277.88173   -1124.3738    272545.41   -78945.429    7045.6273   -85991.056    2062.9157 
   37050    276.00465   -1173.9682    272897.44   -78941.061    6998.0345   -85939.096    2064.2555 
   37100    283.15642   -1128.2906    272668.11   -78902.017    7179.3661   -86081.383    2064.9573 
   37150    282.62375    -823.9032    272011.22   -78917.381    7165.8602   -86083.241    2064.3021 
   37200    282.71463   -911.44735    271686.22   -78940.445    7168.1646    -86108.61    2063.7267 
   37250    277.25185   -893.08302    271538.32   -78936.649    7029.6568   -85966.306    2065.8612 
   37300    282.99531   -919.60912    271802.99   -78952.551     7175.281   -86127.832    2070.0664 
   37350    279.59608   -918.70466    272514.73   -78935.411    7089.0945   -86024.505    2074.7697 
   37400    277.27375   -1401.7309    273104.72   -78909.061    7030.2122   -85939.273    2081.3026 
   37450    279.76198   -1027.6031    272993.26   -78916.185    7093.3008   -86009.486    2081.6806 
   37500    279.56909   -1037.3428    272499.81   -78921.335    7088.4101   -86009.745      2082.81 
   37550      281.476   -645.29177    271832.36   -78925.005    7136.7592   -86061.764    2084.1656 
   37600    274.50004    -968.7206    271901.99   -78932.896    6959.8855   -85892.782    2086.2725 
   37650     273.9945   -990.54583    272445.29   -78917.471    6947.0677   -85864.539    2090.6396 
[...]
   90850    282.37956    -938.7836    272275.87   -78741.548    7159.6688   -85901.217    4913.2687 
   90900    282.77123   -1197.1882    272233.51   -78750.211    7169.5995    -85919.81    4915.6223 
   90950     283.2554   -767.36631    272158.94   -78779.332    7181.8756   -85961.207    4920.9181 
   91000    280.29162    -936.1253    272487.82   -78749.818    7106.7295   -85856.548    4928.5626 
   91050     282.3654   -1160.3384    272602.84   -78784.471    7159.3099   -85943.781    4934.9548 
   91100    288.45682   -1036.1453    272223.03   -78748.052    7313.7564   -86061.808    4931.4292 
   91150    282.08406   -891.79502    271945.84   -78770.291    7152.1766   -85922.467    4929.7523 
   91200    277.87015   -855.78386    271921.23   -78797.132    7045.3339   -85842.466    4930.5319 
   91250    278.73883   -1012.2059    272183.28   -78806.981     7067.359    -85874.34    4936.3507 
   91300    279.19454   -893.29175    272479.87   -78800.905    7078.9133   -85879.818    4941.1635 
   91350    281.06884   -981.73604    272734.45    -78805.88    7126.4358   -85932.316    4947.5682 
   91400    274.86659   -1236.8113    272852.25   -78830.583    6969.1793   -85799.762    4953.4805 
   91450    278.48023   -956.36814    272476.63   -78858.084    7060.8022   -85918.886    4953.5022 
   91500    281.51991    -1192.978    272129.79   -78868.268    7137.8725    -86006.14    4957.8033 
   91550    283.09368   -919.14665    271731.25   -78864.117    7177.7752   -86041.892    4956.4601 
   91600    280.54707    -878.8285    271977.96   -78889.701    7113.2064   -86002.907    4965.3522 
   91650    277.35359   -1043.4496    272518.13   -78936.989    7032.2366   -85969.225     4975.182 
   91700    280.01217   -1091.2521    272675.16   -78951.742    7099.6442   -86051.386    4979.1677 
   91750    279.19292   -959.47354       272389   -78910.607    7078.8724   -85989.479    4975.9615 
   91800    284.36737   -1066.3475    272029.51   -78921.881    7210.0695    -86131.95    4974.4477 
   91850    280.78597   -1128.0383     271906.2    -78949.31    7119.2638   -86068.574    4977.8907 
   91900    275.02932   -836.47721    271902.46   -78931.095    6973.3053     -85904.4    4980.7094 
   91950    276.33184   -728.38203     271989.5   -78986.871    7006.3304   -85993.202    4983.1176 
   92000    281.05012   -1178.9809    272434.36    -78941.35    7125.9613   -86067.312    4989.1627 
   92050     278.4338   -1387.0503    272677.92   -78986.824     7059.625   -86046.449    4996.7728 
   92100    278.01391    -797.4783    272124.47    -78928.73    7048.9788   -85977.709    4992.8455 
   92150    276.97835   -866.59151    271704.93   -78933.278    7022.7223   -85956.001    4992.7075 
   92200    278.91094   -623.28136    271490.04   -78929.836    7071.7228   -86001.558    4992.5375 
   92250    277.55765   -711.65535    272011.59   -78904.731    7037.4104   -85942.142    5001.8104 
   92300    279.66482   -1121.3807    273002.28    -78901.82    7090.8372   -85992.657    5015.0651 
   92350    277.08476   -1213.1674    273498.26   -78898.461    7025.4205   -85923.881    5023.3917 
   92400    279.21216   -1137.7086    273213.04   -78899.635    7079.3601   -85978.995    5022.9089 
   92450    281.90002   -1053.2037    272333.47   -78904.637    7147.5102   -86052.147     5014.696 
   92500     277.8975   -827.99893    271489.57   -78933.523    7046.0274    -85979.55    5009.3238 
   92550    280.07689   -990.17349    271334.12   -78948.187    7101.2853   -86049.472     5010.246 
   92600    279.29948   -592.49216    271596.26   -78981.318    7081.5742   -86062.892    5015.1094 
   92650    278.87286   -1066.5766     272435.8   -78958.753    7070.7573   -86029.511    5027.3837 
   92700    279.41222   -1311.4386    272911.97   -78940.352    7084.4325   -86024.785    5036.1778 
   92750    279.63744   -1164.4097    272601.34   -79005.858    7090.1431   -86096.002    5033.3314 
   92800    277.47975   -1014.6243    271941.76   -79006.242    7035.4353   -86041.677    5026.2162 
   92850    277.09361   -878.32925    271528.76   -78988.441    7025.6447   -86014.086    5027.6418 
   92900    276.00091   -1004.1856     271463.9   -78999.459    6997.9396   -85997.399    5028.8072 
   92950    281.12555    -730.4929    271521.85    -78990.99    7127.8737   -86118.864    5028.9588 
   93000    271.67475   -1000.5756     271910.4   -78951.128    6888.2508   -85839.379    5034.8297 
   93050    283.35154    -1148.296     272268.7       -78924    7184.3132   -86108.313    5045.7925 
   93100    279.58638   -907.24532    272419.08   -78888.822    7088.8483    -85977.67     5054.275 
   93150    283.98258    -1138.111    272300.72   -78912.971    7200.3132   -86113.284    5056.9813 
   93200    279.21066   -774.75736    272093.19   -78891.143    7079.3221   -85970.465    5057.1448 
   93250    284.86243   -1228.8679    272267.97   -78867.426    7222.6214   -86090.047    5064.4311 
   93300    279.55308   -889.75896    272395.64   -78888.122    7088.0041   -85976.126    5067.5065 
   93350    282.05252   -1046.4075    272615.85   -78922.705    7151.3769   -86074.082    5072.6447 
   93400    276.93535    -1083.755    272504.08   -78931.445    7021.6321   -85953.077    5069.4306 
   93450     277.8909   -1106.3846    272204.14   -78928.725    7045.8599   -85974.585    5064.0529 
   93500    278.43523   -1088.2038     272021.8   -78921.623    7059.6612   -85981.284    5066.4829 
   93550    282.41263   -890.28506    271827.91   -78918.167    7160.5074   -86078.674     5070.313 
   93600    279.48347   -830.55248    271829.76   -78883.851    7086.2391    -85970.09    5073.1178 
   93650    277.85533   -1025.2293    272183.45   -78886.694     7044.958   -85931.652    5079.3411 
   93700     279.7544   -1149.3956    272295.84   -78877.158    7093.1085   -85970.266    5081.6791 
   93750    281.91695   -869.75607    272196.67   -78868.208    7147.9396   -86016.147    5084.5164 
   93800    281.65523   -926.01758    272234.05   -78861.605    7141.3037   -86002.909    5089.2481 
   93850    280.66099   -899.64342    272471.58   -78865.117     7116.095   -85981.212    5092.5198 
   93900    278.69171   -1113.6162    272594.95    -78852.07    7066.1643   -85918.234    5098.7659 
   93950     284.0879    -859.8509    272421.29   -78855.416    7202.9834     -86058.4    5098.5956 
   94000    279.22473   -992.95956    272151.02   -78838.943    7079.6789   -85918.622     5096.775 
   94050    280.61815   -921.86251    271904.23   -78805.934    7115.0087   -85920.943    5096.2795 
   94100    277.95193   -896.45644    272061.72   -78820.112    7047.4074   -85867.519    5097.4507 
   94150    276.89203   -1146.3513     272745.3   -78796.606    7020.5339    -85817.14    5109.0047 
   94200    278.45309   -1178.0438    273028.65     -78784.6    7060.1142   -85844.714    5114.5155 
   94250    282.00114   -927.72294     272608.8    -78761.29    7150.0741   -85911.364    5111.8924 
   94300    281.15363   -793.21814    272084.63    -78753.28    7128.5856   -85881.866    5106.6511 
   94350    281.65408   -846.35599    272121.45   -78773.817    7141.2744   -85915.091    5111.0037 
   94400    282.48806   -1072.9211    272723.38   -78789.848      7162.42   -85952.268    5121.3748 
   94450    282.05934   -1103.2304    273129.49   -78785.149    7151.5497   -85936.698    5129.8423 
   94500    279.52625   -985.85461    272970.17   -78764.353    7087.3239   -85851.677     5130.175 
   94550    279.43891   -1031.1056    272561.77   -78805.376    7085.1093   -85890.485    5130.2739 
   94600    287.41419   -793.96813    272152.55   -78802.898    7287.3207   -86090.219    5129.5416 
   94650    279.84537   -816.17243    272207.21   -78773.126     7095.415   -85868.541     5134.851 
   94700    287.54222   -1076.6192    272704.89   -78728.684     7290.567   -86019.251    5144.4321 
   94750    282.84749   -1154.3495    273130.95    -78774.28    7171.5332   -85945.813     5150.904 
   94800    285.06291    -1021.269    273204.31   -78792.006    7227.7045   -86019.711    5153.8242 
   94850    282.88525   -1330.0534    273035.03   -78801.903    7172.4905   -85974.394    5159.2556 
   94900    285.04012    -990.7543     272583.7   -78811.291    7227.1267   -86038.418    5157.4412 
   94950    278.44543   -900.78138    272236.56   -78853.914    7059.9198   -85913.834    5151.0873 
   95000    279.83448   -1159.9296    272147.88   -78864.356     7095.139   -85959.495    5152.5248 
   95050    281.49445   -782.92509    272360.41   -78832.197     7137.227   -85969.424    5159.1149 
   95100    280.30766   -1075.2679    272939.13   -78837.862    7107.1364   -85944.998    5167.6729 
   95150    282.47941   -1239.5332     273039.6   -78847.652    7162.2004   -86009.852    5169.9249 
   95200    280.67172    -1026.076    272427.65   -78859.819    7116.3671   -85976.186    5164.2275 
   95250     277.8632   -1002.4131    271911.06   -78859.037    7045.1575   -85904.194    5161.7195 
   95300     281.6348   -876.89477    271731.91   -78914.349    7140.7858   -86055.135     5162.056 
   95350    280.80342   -1174.6926    272048.96   -78935.344    7119.7061    -86055.05    5169.1797 
   95400    280.13032   -1199.0058    272545.01   -78877.579    7102.6399   -85980.219    5177.7189 
   95450    279.21454   -1164.1584    272794.52   -78887.805    7079.4206   -85967.225    5184.1194 
   95500    280.27987   -1226.0567    272726.24   -78882.049    7106.4317   -85988.481    5185.6125 
   95550    280.53296   -931.94828    272276.37   -78899.024    7112.8488   -86011.873    5185.8641 
   95600    287.37185   -1000.1404    271761.49   -78908.542    7286.2473   -86194.789     5183.519 
   95650    278.30923   -724.08193    271443.45    -78945.27    7056.4666   -86001.736    5187.0756 
   95700    283.55501   -873.34523    271728.04   -78928.063    7189.4721   -86117.535    5193.1674 
   95750    283.40397   -1075.1162    272353.31   -78909.865    7185.6425   -86095.508    5203.5375 
   95800    278.04938    -1052.803    272651.45   -78923.755    7049.8781   -85973.633    5208.6456 
   95850    276.51264   -850.85619    272603.27    -78901.13    7010.9145   -85912.044    5213.3306 
   95900    280.24422   -941.23945    272559.88    -78905.21    7105.5279   -86010.738    5216.9698 
   95950    280.87617   -872.06092       272699   -78897.867    7121.5508   -86019.418    5222.9433 
   96000    278.41976   -1199.2495    272739.09   -78896.545     7059.269   -85955.814    5227.2223 
   96050     281.9535   -1121.5436    272324.13   -78883.364    7148.8663    -86032.23    5225.8151 
   96100    283.08483   -708.66996    271791.13    -78821.87    7177.5509   -85999.421    5223.5269 
   96150    277.24615   -900.32517    271898.34   -78843.363    7029.5124   -85872.876    5224.9565 
   96200    282.97113   -1022.9528     272484.5   -78797.098     7174.668   -85971.766    5235.6059 
   96250    282.49746   -1230.1099    272916.34    -78783.73    7162.6583   -85946.388    5242.7204 
   96300    282.37023    -1018.021    272675.77   -78784.812    7159.4322   -85944.245    5239.4819 
   96350    280.64143   -879.06751    272351.31   -78803.696    7115.5991   -85919.295    5232.4933 
   96400     281.3694   -1081.2556    272437.56   -78836.374    7134.0565   -85970.431    5233.9692 
   96450    275.30345   -1049.2858    272601.59   -78796.215    6980.2558   -85776.471    5238.5433 
   96500    283.59578   -1128.0302    272663.35   -78798.506    7190.5059   -85989.012    5245.8203 
   96550    281.96086    -913.5569    272732.71   -78780.258    7149.0529   -85929.311    5244.0635 
   96600    284.31116   -991.15046     272565.7   -78783.615    7208.6443   -85992.259    5240.2107 
   96650    281.52624   -631.31183    272199.44   -78833.016    7138.0331   -85971.049    5237.4845 
   96700    284.08146   -1207.5066    272326.17   -78836.747      7202.82   -86039.567    5238.9094 
   96750    279.21264   -1111.7832    272536.71   -78811.292    7079.3723   -85890.665    5242.7416 
   96800     281.9405   -1042.6331    272855.28   -78814.493    7148.5367    -85963.03    5248.4489 
   96850    279.44615   -1100.9748    272984.61   -78850.105    7085.2928   -85935.398    5254.1036 
   96900    278.03954   -873.77988    272637.64   -78813.327    7049.6286   -85862.956    5252.5229 
   96950     276.4155     -894.551    272374.11    -78826.55    7008.4515   -85835.001    5253.7151 
   97000    277.99517   -926.13473    272202.79   -78834.645    7048.5038   -85883.149    5252.1928 
   97050    284.28262   -1015.2015    272186.45   -78827.116    7207.9205   -86035.036    5253.6178 
   97100    276.83911   -916.62235    272262.65   -78858.937    7019.1919   -85878.129    5258.5029 
   97150    281.22381   -935.75386    272029.79   -78868.045    7130.3651    -85998.41    5255.1937 
   97200    281.19373   -963.37725    271799.52   -78863.743    7129.6024   -85993.345    5255.8186 
   97250    274.42096   -889.28217    271965.97    -78865.22    6957.8804     -85823.1    5258.5647 
   97300    276.50105   -1039.2973    272473.62    -78878.55    7010.6205    -85889.17    5265.4188 
   97350    280.43077   -1253.7431    272920.62    -78892.09    7110.2577   -86002.348    5271.5756 
   97400    276.46608   -1112.7204    272902.27   -78912.482     7009.734   -85922.216    5275.8539 
   97450    276.99179   -893.58885    272444.58   -78934.063    7023.0633   -85957.126    5270.5171 
   97500    279.14455   -958.81805    272084.61   -78938.704     7077.646    -86016.35    5266.6445 
   97550    278.10922   -775.45905    271767.39   -78910.983    7051.3955   -85962.378    5263.4747 
   97600    278.48004   -890.67678    271871.28    -78889.76    7060.7975   -85950.558    5267.5562 
   97650     278.2762   -1123.5627    272364.71    -78868.89    7055.6292   -85924.519    5277.0535 
   97700    278.59952   -1206.9777    272803.95   -78861.448    7063.8268   -85925.275    5284.6872 
   97750    276.37537   -1013.0028     272910.8   -78856.484    7007.4339   -85863.917    5288.3115 
   97800      276.281   -1097.8785    272538.76   -78891.535    7005.0413   -85896.576    5282.1254 
   97850    279.20634   -720.96946    271900.99   -78929.413    7079.2127   -86008.626    5272.9372 
   97900    276.13985   -996.16464    271790.55   -78973.173    7001.4625   -85974.635       5270.3 
   97950    279.59465   -970.12703     271986.1   -78931.314    7089.0582   -86020.372    5275.9959 
   98000    272.14236   -998.34636    272425.22   -78945.539     6900.107   -85845.646    5287.6344 
   98050    279.34559   -1151.4088     272701.9   -78937.746    7082.7432   -86020.489    5295.3115 
   98100    277.45547   -1034.3802    272803.71   -78951.897    7034.8196   -85986.717    5300.1424 
   98150    281.20226   -1263.0671    272759.42   -78962.087    7129.8188   -86091.905    5298.6217 
   98200    276.61006   -1035.8374    271931.69   -78995.478    7013.3845   -86008.862    5287.5907 
   98250    282.73602   -898.81857    271197.75   -78996.572    7168.7068   -86165.279    5279.9112 
   98300     276.2909   -468.34372    271251.77   -79040.471    7005.2923   -86045.763    5286.9749 
   98350     277.5857    -1097.157     272284.9    -79033.57    7038.1218   -86071.692    5303.3799 
   98400    277.30043   -1114.5605     272986.1   -78990.098    7030.8888   -86020.987    5315.8484 
   98450    276.58077    -1139.584    273042.51   -78956.771    7012.6418   -85969.413    5322.7152 
   98500    278.81323   -1250.4282    272692.35   -78978.612    7069.2454   -86047.857    5323.4804 
   98550    276.56443    -1071.047    271797.63   -79016.176    7012.2276   -86028.403    5316.6421 
   98600    277.78739    -654.5269    271090.89   -79035.892    7043.2354   -86079.127    5305.0499 
   98650    277.69552   -688.22211    271127.17   -79039.728    7040.9061   -86080.634    5305.8334 
   98700    277.86937   -980.62023    272002.12   -79015.127     7045.314    -86060.44    5321.1382 
   98750     276.1353   -1230.6818    272821.21   -78981.933    7001.3472    -85983.28    5334.1203 
   98800    278.76067   -1185.0948    272630.25   -78983.387    7067.9128     -86051.3    5334.8684 
   98850    282.09054   -970.21355    271993.02   -78971.478    7152.3408   -86123.818    5327.8064 
   98900     278.5874   -962.48448    271667.24   -78980.268    7063.5195   -86043.787    5323.9314 
   98950    281.49494   -869.54494    271752.92   -78969.028    7137.2396   -86106.268    5328.9519 
   99000    275.74017   -854.45513    272204.45   -78940.161    6991.3287   -85931.489     5340.061 
   99050    279.85507   -944.29757    272648.38   -78944.295    7095.6609   -86039.956    5350.8069 
   99100    277.33438     -1149.62    272786.45   -78943.212    7031.7495   -85974.962    5354.5779 
   99150    278.08569   -851.16401    272207.83   -78953.475    7050.7989   -86004.274    5351.0004 
   99200    276.36621   -778.26072    271657.72     -78980.5    7007.2017   -85987.701    5344.1584 
   99250    282.49316   -844.15479    271606.61   -79005.979    7162.5491   -86168.528    5344.9665 
   99300    276.08205    -1063.357    272129.28   -79034.472    6999.9969   -86034.469    5351.7561 
   99350     273.9997   -1288.5382    272742.57    -79038.52    6947.1994    -85985.72    5361.4671 
   99400    275.92397   -1239.1812    272825.98   -79007.719     6995.989   -86003.708    5364.4479 
   99450    279.71162    -1011.007    272307.29   -79014.672    7092.0239   -86106.696    5362.0033 
   99500    277.35831   -1043.1079    271694.48   -79053.495    7032.3562   -86085.851    5357.9452 
   99550    279.98844   -749.75589    271317.55    -79011.76    7099.0426   -86110.803    5353.8744 
   99600    276.96841   -808.19986    271614.21   -79013.516    7022.4704   -86035.987    5361.2247 
   99650    277.36686   -1110.6482    272246.93   -79008.846    7032.5729   -86041.419    5370.3635 
   99700    278.02185   -1257.2715    272859.22   -78989.124    7049.1802   -86038.304    5385.4289 
   99750    274.39797   -1062.7973    272935.71   -78993.828    6957.2976   -85951.126    5388.2953 
   99800    279.22825   -1311.7874    272575.74   -78991.702    7079.7681    -86071.47     5388.601 
   99850    276.88035   -808.08321    271955.27   -78992.032    7020.2377   -86012.269    5384.7219 
   99900    280.85418   -998.25757     271528.5   -79018.768    7120.9933   -86139.761    5380.1015 
   99950     273.9301   -565.52733    271395.04     -79005.9    6945.4348   -85951.335    5381.3586 
  100000    278.64893    -952.8082    272227.05   -78960.624    7065.0796   -86025.704    5395.5401 
Loop time of 355.328 on 6 procs for 100000 steps with 8507 atoms

Performance: 243.155 ns/day, 0.099 hours/ns, 281.430 timesteps/s
99.6% CPU use with 6 MPI tasks x no OpenMP threads

MPI task timing breakdown:
Section |  min time  |  avg time  |  max time  |%varavg| %total
---------------------------------------------------------------
Pair    | 168        | 227.34     | 293.77     | 330.3 | 63.98
Neigh   | 36.58      | 39.755     | 42.491     |  33.8 | 11.19
Comm    | 11.996     | 81.172     | 143.68     | 575.9 | 22.84
Output  | 0.16209    | 0.16507    | 0.17843    |   1.5 |  0.05
Modify  | 5.4776     | 5.5155     | 5.5796     |   1.5 |  1.55
Other   |            | 1.379      |            |       |  0.39

Nlocal:        1417.83 ave        1463 max        1388 min
Histogram: 1 2 0 1 0 0 0 0 1 1
Nghost:        2168.83 ave        2204 max        2148 min
Histogram: 2 2 0 0 0 0 0 0 1 1
Neighs:        0.00000 ave           0 max           0 min
Histogram: 6 0 0 0 0 0 0 0 0 0
FullNghs:      44444.7 ave       45681 max       43201 min
Histogram: 1 1 0 1 0 0 0 1 1 1

Total # of neighbors = 266668
Ave neighs/atom = 31.346891
Neighbor list builds = 20861
Dangerous builds = 0

# Create data file for import to other simulations
#
write_data data.${NAME}
write_data data.coexist_279K_-1000atm_mW
System init for write_data ...

Total wall time: 0:05:55
