
# Import phase coexistance setup
#
read_data           data.coexist_${TEMP}K_${PRES}atm_mW
read_data           data.coexist_279K_${PRES}atm_mW
read_data           data.coexist_279K_-1000atm_mW
Reading data file ...
  orthogonal box = (0.24031014 -0.43645149 -0.43645149) to (104.49714 50.662663 50.662663)
  3 by 1 by 2 MPI processor grid
  reading atoms ...
  8507 atoms
  reading velocities ...
  8507 velocities
  read_data CPU = 0.024 seconds

# Define potential
#
pair_style 	    sw
pair_coeff	    * * /data/emrosky-sim/Freezing_Simulations/Melting/mW_fancy/mW.sw mW
Reading sw potential file /data/emrosky-sim/Freezing_Simulations/Melting/mW_fancy/mW.sw with DATE: 2019-02-27

# Reset velocity/set timestep
#
velocity	    all create ${TEMP} 120598 rot yes dist gaussian
velocity	    all create 279 120598 rot yes dist gaussian
timestep	    10.0

# Define output
#
compute	            1 all msd
compute             2 all orientorder/atom nnn NULL degrees 2 4 12
thermo              1000
thermo_style        custom step temp press vol etotal ke pe c_1[4]

# Neighbor lists
#
neigh_modify        delay 0 every 1 check yes

# Set fixes
#
fix                 1 all momentum 10 linear 1 1 1 rescale
fix                 2 all nph iso ${PRES} ${PRES} ${PCOUPL}
fix                 2 all nph iso -1000 ${PRES} ${PCOUPL}
fix                 2 all nph iso -1000 -1000 ${PCOUPL}
fix                 2 all nph iso -1000 -1000 10000.0
fix                 3 all temp/csvr ${TEMP} ${TEMP} ${TCOUPL} 837492
fix                 3 all temp/csvr 279 ${TEMP} ${TCOUPL} 837492
fix                 3 all temp/csvr 279 279 ${TCOUPL} 837492
fix                 3 all temp/csvr 279 279 5000.0 837492

# Run very short equilibration
#
dump		    1 all atom 50 eq.${NAME}.dump
dump		    1 all atom 50 eq.melt_279K_-1000atm_mW.dump
run	            500
Neighbor list info ...
  update every 1 steps, delay 0 steps, check yes
  max neighbors/atom: 2000, page size: 100000
  master list distance cutoff = 6.3065
  ghost atom cutoff = 6.3065
  binsize = 3.15325, bins = 34 17 17
  2 neighbor lists, perpetual/occasional/extra = 1 1 0
  (1) pair sw, perpetual
      attributes: full, newton on
      pair build: full/bin/atomonly
      stencil: full/bin/3d
      bin: standard
  (2) compute orientorder/atom, occasional, copy from (1)
      attributes: full, newton on
      pair build: copy
      stencil: none
      bin: none
Per MPI rank memory allocation (min/avg/max) = 4.600 | 4.601 | 4.603 Mbytes
Step Temp Press Volume TotEng KinEng PotEng c_1[4] 
       0          279   -951.31349    272227.05   -78951.723    7073.9809   -86025.704            0 
     500    328.81496   -1041.7295    265404.54   -80810.264    8337.0278   -89147.292    17.455794 
Loop time of 1.94847 on 6 procs for 500 steps with 8507 atoms

Performance: 221.712 ns/day, 0.108 hours/ns, 256.611 timesteps/s
99.9% CPU use with 6 MPI tasks x no OpenMP threads

MPI task timing breakdown:
Section |  min time  |  avg time  |  max time  |%varavg| %total
---------------------------------------------------------------
Pair    | 0.92371    | 1.259      | 1.6715     |  27.4 | 64.61
Neigh   | 0.13975    | 0.16308    | 0.18558    |   4.4 |  8.37
Comm    | 0.044302   | 0.47955    | 0.8383     |  46.9 | 24.61
Output  | 0.011186   | 0.011756   | 0.012294   |   0.4 |  0.60
Modify  | 0.025932   | 0.027728   | 0.029236   |   0.8 |  1.42
Other   |            | 0.007384   |            |       |  0.38

Nlocal:        1417.83 ave        1434 max        1405 min
Histogram: 1 0 1 2 0 0 0 1 0 1
Nghost:        2225.00 ave        2234 max        2216 min
Histogram: 1 1 0 1 0 1 0 0 0 2
Neighs:        0.00000 ave           0 max           0 min
Histogram: 6 0 0 0 0 0 0 0 0 0
FullNghs:      45203.0 ave       45516 max       44881 min
Histogram: 1 1 0 0 1 1 0 0 1 1

Total # of neighbors = 271218
Ave neighs/atom = 31.881744
Neighbor list builds = 83
Dangerous builds = 0

reset_timestep      0
undump              1
unfix               2
unfix               3


################################################
#######         Run Simulation         #########
################################################

log                 log.run_${NAME}
log                 log.run_melt_279K_-1000atm_mW
