LAMMPS data file via write_data, version 29 Oct 2020, timestep = 200000

4608 atoms
1 atom types

-0.11921772418616072 57.389727724184496 xlo xhi
-0.1059713103866251 51.01309131038394 ylo yhi
-0.1059713103866251 51.01309131038394 zlo zhi

Masses

1 18.015

Atoms # atomic

740 1 17.535900863060736 49.56767052609152 23.974176368749976 0 0 0
29 1 4.9517025050552785 1.9180704946239793 1.9355081587335747 0 0 0
285 1 11.012785380323937 1.1777691190457313 1.7890485172769746 0 0 0
541 1 17.14167039285372 1.6542139517477603 1.8222168858038292 0 0 0
30 1 1.589349991556845 4.819122255911466 1.5005419815541086 0 0 0
484 1 10.791407665701092 49.39424006867053 24.233768837834845 0 0 0
543 1 12.545054723351814 50.81588510699913 -0.0711752973516505 0 -1 0
286 1 7.932576472272704 4.748123785046986 1.2063689450806903 0 0 0
282 1 6.567454261117992 3.443755237799024 3.6201139344948405 0 0 0
542 1 14.127111010084391 4.944357445869028 1.1855121894807181 0 0 0
194 1 0.02734253213154908 41.51789059248463 22.6404095577 0 0 0
57 1 3.4271573651249603 6.7027516313880176 3.1726540930324783 0 0 0
61 1 5.069106850543658 8.117515743678075 1.3319201536931458 0 0 0
178 1 -0.03952213540457179 35.206552973354775 9.4372772541039 0 0 0
313 1 9.71993088790847 5.780386597977291 3.1452620234600004 0 0 0
317 1 11.131181549466733 7.721431150551985 1.5478038762271662 0 0 0
573 1 17.430987770037763 7.937601493499129 1.9110360370448443 0 0 0
62 1 1.2339361464333432 11.326399402458847 1.4945236400120594 0 0 0
66 1 -0.07065459815949282 15.86576510135367 22.341868097187785 0 0 0
314 1 6.490592440543206 9.547248403948007 2.9341459346312506 0 0 0
318 1 7.962407458419504 11.237663764487385 1.566541715688016 0 0 0
570 1 12.330344426063037 10.13573859729513 2.6699685679875493 0 0 0
574 1 14.292944731624157 11.46929347992264 1.0083457551240207 0 0 0
93 1 4.705710836503065 14.325863381557282 1.641827963222325 0 0 0
89 1 3.2675394010901067 12.706973836709182 3.1795829265837754 0 0 0
345 1 9.379051607429599 12.745235816595503 3.431775120043958 0 0 0
349 1 11.153033395070453 14.385951853719018 1.4139119779539189 0 0 0
601 1 16.00153171142905 12.712156864215983 2.469014209844494 0 0 0
605 1 17.632873589726298 14.571278752502057 1.1789830792270073 0 0 0
94 1 1.511010554196472 17.226640036070062 1.6217011896982647 0 0 0
128 1 3.1462767307110533 22.10221090416026 0.2927477582466713 0 0 0
346 1 6.090878852886139 15.913529057286091 3.4623093757798475 0 0 0
350 1 7.6901292574099145 17.39507620890263 1.5818650337818891 0 0 0
606 1 14.298149845345813 17.332240101061743 1.5720986541168054 0 0 0
602 1 12.611150559044118 15.811630179455241 3.1508493292042927 0 0 0
125 1 5.1352719195351 20.255581677892156 1.3441215730004445 0 0 0
381 1 10.592316370523431 20.92408901873381 1.3295898521360687 0 0 0
377 1 9.44607282793291 19.037686122223857 2.969748569272821 0 0 0
637 1 17.259638631769302 20.968104056554623 1.4220690950488784 0 0 0
633 1 15.914066344081174 18.900210858489636 3.1535617312895963 0 0 0
126 1 1.6340991839249885 23.922845503083373 1.6810670060512214 0 0 0
382 1 7.383030312915887 24.080809408549435 1.6177411914760482 0 0 0
378 1 6.119958617596331 22.17373210328048 3.1735214970431795 0 0 0
634 1 12.659859715575942 21.914671183142087 3.0372823121946135 0 0 0
638 1 14.173545043402164 23.780577124058237 1.8363614649488489 0 0 0
153 1 3.187843253198175 25.43913516400007 3.295066589301953 0 0 0
157 1 4.706785355168696 27.22008720469807 1.405669865527871 0 0 0
665 1 16.071886299149323 25.8011030981639 3.127686874932286 0 0 0
218 1 0.013766403543419875 41.43712614381167 3.228868545038354 0 0 0
410 1 6.052054981028807 28.889855424112252 2.926293126998896 0 0 0
413 1 10.918549368869305 27.22220698735428 1.83811146512346 0 0 0
130 1 -0.0041114613610964135 28.78627203606789 22.30206309352333 0 0 0
666 1 13.002234926235356 28.669511800231003 3.3030739612207163 0 0 0
669 1 17.662107500588455 27.2952550683771 1.1712159349217717 0 0 0
158 1 1.144702541027137 29.953166348093784 1.4946965028205301 0 0 0
185 1 3.047790923416461 31.69042384382414 3.0515183636133805 0 0 0
414 1 7.953384567319871 30.668303956142317 1.468377312180683 0 0 0
441 1 9.710261330242801 31.882425495872344 3.117699459720549 0 0 0
670 1 14.309930353610316 30.253719259565827 1.6992545428343768 0 0 0
697 1 16.244297732958124 31.673842559102265 3.1769937005009057 0 0 0
189 1 4.719012301056584 33.25652912202459 0.982754251723579 0 0 0
445 1 11.465223657800303 33.421447148151515 1.7011854700335585 0 0 0
698 1 12.858748408408015 34.988188002478836 3.301713841163085 0 0 0
701 1 17.596229454541128 33.32153872115411 1.4742466635560947 0 0 0
190 1 1.2141322033785682 36.91732360706085 1.4107015399445233 0 0 0
217 1 3.136139399145703 38.00326398838777 2.746410873482348 0 0 0
446 1 8.111610276267035 36.41227963961265 1.5068340889875884 0 0 0
473 1 9.209248310271647 38.3333844214209 3.07992940508057 0 0 0
702 1 14.03782443087721 36.534516920623545 1.6509400610648965 0 0 0
119 1 0.23576051183280833 18.909778979834556 6.4861338085229 0 0 0
729 1 15.907330545003266 37.872441897064476 3.2464583957387965 0 0 0
221 1 4.576886027995945 39.86831592590987 1.310156012337216 0 0 0
151 1 0.3495020223951234 25.70120823548978 6.458796367214496 0 0 0
477 1 11.159506352719216 39.693301388633785 1.7464212120361455 0 0 0
733 1 17.92038934175218 39.321204174473436 1.6210174390146652 0 0 0
79 1 -0.050266084853656384 12.827495484885127 12.680867046328311 0 0 0
222 1 1.245640464941222 43.076294731530226 1.151674007304808 0 0 0
55 1 -0.07089493281205103 6.219776791988453 6.437931308491956 0 0 0
736 1 16.078405238168752 40.89679765016223 0.30362451948209207 0 0 0
478 1 7.996240908578713 42.998844041042744 1.4990267228523653 0 0 0
505 1 9.501126695443688 44.280356088876346 3.255656762422074 0 0 0
1151 1 6.316379801315018 18.951556894197743 24.994470113527807 0 0 0
734 1 14.358011454965599 42.65047727795212 1.6552338102086985 0 0 0
320 1 9.450588563421414 9.489838211767479 -0.024326709618602435 0 0 0
253 1 4.6609532349403455 46.17615916933924 1.6529507855392886 0 0 0
509 1 11.333373155660661 45.84099975524377 1.689267889959799 0 0 0
762 1 12.666009404102212 47.76994673284162 3.254615452916122 0 0 0
765 1 17.600964583907903 46.078904948508296 1.5440049860318998 0 0 0
254 1 1.7951179153493897 49.692016939053545 1.4534680534870779 0 0 0
506 1 6.5131881406487855 47.64491428668235 3.2940033258085277 0 0 0
510 1 8.061489807759052 49.32798439262909 1.570920131867978 0 0 0
281 1 9.566038462692742 50.73903696354908 3.605336248852713 0 -1 0
207 1 0.08458950118607333 38.34121895094141 12.435516290810842 0 0 0
766 1 14.325671324646054 49.35382132699782 1.5303847980383516 0 0 0
106 1 -0.022787840675038182 22.018009613620364 16.25561692095792 0 0 0
27 1 1.4860407248724723 1.6765585049028546 4.555112522575816 0 0 0
25 1 3.3077818925012745 0.2137466968671191 3.163122579317112 0 0 0
279 1 6.2553526727207664 50.785521731080905 6.37686991450088 0 -1 0
283 1 7.75174930346483 1.3845100446865233 4.633866654506765 0 0 0
539 1 14.091594873239654 1.3253707854585803 4.807704123764112 0 0 0
28 1 4.914875370689919 5.021359200953728 4.973142951370085 0 0 0
24 1 3.1525885879360462 3.2034800442299747 6.145720681066294 0 0 0
280 1 9.69495252576937 2.7854092093050604 5.961390216289779 0 0 0
538 1 12.669953439665356 3.005380839034546 3.1534514412881127 0 0 0
284 1 11.24224036926823 4.565143013246228 4.7757453360158815 0 0 0
540 1 17.090730793707863 4.757195246338181 4.780436493814605 0 0 0
59 1 1.285051108440287 7.731218118175178 4.709806364036858 0 0 0
311 1 6.899968747799567 6.276525771797942 6.637381197081145 0 0 0
315 1 8.173672828263724 7.969215226779804 4.3762382596217675 0 0 0
571 1 14.01231979672917 8.13261600626485 4.289956491006848 0 0 0
567 1 12.924248070982623 6.239723405747212 6.333797532562472 0 0 0
569 1 15.726457800043955 6.424105049063268 3.0118463594107707 0 0 0
959 1 0.3735751747445057 32.04303172336434 25.187372818846065 0 0 0
60 1 4.54511139904397 10.737924082486808 4.688803633668011 0 0 0
56 1 3.123191105912529 9.289560043704034 6.42023271754407 0 0 0
316 1 11.103329139663149 11.034715963037153 4.913516638766145 0 0 0
312 1 9.711027140173641 9.225881737464212 6.487693827226641 0 0 0
572 1 17.217116279983248 11.144464047683378 4.691419664934158 0 0 0
91 1 1.6183444078036697 14.384895446897533 4.73164008522092 0 0 0
343 1 6.4547918232755155 12.333565552412008 6.191561685688513 0 0 0
347 1 8.068531306011712 14.457555854214572 5.003186971850896 0 0 0
599 1 13.040599074125991 12.455556034197457 6.159347148919723 0 0 0
603 1 14.41258930327688 14.039927868155493 4.284055896103122 0 0 0
122 1 0.14718392840802885 21.99200824016266 3.00764751997069 0 0 0
88 1 3.002497065855269 16.03885568449558 6.5930466245183075 0 0 0
92 1 4.434294752415539 17.649280171229005 4.91799696860652 0 0 0
344 1 9.719011165201373 15.77200400389643 6.605754104264546 0 0 0
348 1 10.975401966944768 17.420356797463015 4.696598446619366 0 0 0
604 1 17.665564152567164 17.35129940808293 4.715935735524504 0 0 0
600 1 15.872267076083503 15.545890256257774 6.1273007314781465 0 0 0
123 1 1.6606819836021223 20.54418572328564 4.733412817359548 0 0 0
121 1 3.097455167835678 19.107333648535114 2.9139270171685148 0 0 0
379 1 8.042592768599105 20.608568304837238 4.497567137344408 0 0 0
375 1 6.5081574056364255 19.013614079490246 6.276388050028216 0 0 0
631 1 12.963112409689417 18.73081118000034 6.174752203851326 0 0 0
635 1 14.301887220584586 20.270865453489535 4.4258989561205375 0 0 0
124 1 4.4232227356121765 23.735831156436145 4.848156080746573 0 0 0
380 1 11.073668816410077 23.926405983454853 4.510241713037571 0 0 0
376 1 9.426233111838267 22.27665208314043 5.96350258431572 0 0 0
632 1 15.767788898752423 22.109190581084366 6.052668938997418 0 0 0
636 1 17.53751120445574 24.15220767699004 4.618894927500523 0 0 0
155 1 1.5456995482861096 27.201203774716422 4.542525203076865 0 0 0
409 1 9.348426295919118 25.34641011544365 3.1429001000477936 0 0 0
411 1 7.551532808121571 26.94980485121917 4.611026671017203 0 0 0
663 1 12.523119633808571 25.2888664762642 6.334432032364054 0 0 0
228 1 4.743853015496294 49.29666323385018 23.921096289299843 0 0 0
135 1 -0.11700414386478997 25.43158090533685 19.257062862852667 0 0 0
408 1 9.219778535935403 28.44952914334519 6.18840068692217 0 0 0
667 1 14.407427480016919 26.80510308672317 4.9627423894485565 0 0 0
664 1 16.09420331157754 28.483575563703646 5.943193572437727 0 0 0
156 1 4.5900749195146275 30.260047866106365 4.704155956974704 0 0 0
439 1 6.1120923131445615 31.82551671842949 6.238319061312123 0 0 0
412 1 10.94343076994038 30.084371476710587 4.710736846984744 0 0 0
695 1 12.56023780495081 31.94857726062293 5.970692396772689 0 0 0
668 1 17.772532972134222 30.12175633099048 4.692612628517808 0 0 0
187 1 1.6638291341688471 33.740869169758696 4.598699867461914 0 0 0
442 1 6.43111557012315 34.77164989457509 2.712583317795652 0 0 0
443 1 7.979867022998681 33.27360004298632 4.499292735949021 0 0 0
440 1 9.162566783261264 34.72533486576654 6.276043535934853 0 0 0
699 1 14.687995101299599 33.264433438163124 4.673570233838725 0 0 0
696 1 16.145283436342105 35.19037320273979 6.452235995352032 0 0 0
188 1 5.02422144547734 36.372735949696974 4.329274546094168 0 0 0
471 1 6.240502787465154 37.76906339632721 6.482411023926284 0 0 0
444 1 10.90148553057456 36.64485881425993 4.587103780169302 0 0 0
700 1 17.963958582529877 36.37036319905013 4.576484135183169 0 0 0
768 1 15.837439612753403 47.840752210161554 0.06716523660504775 0 0 0
219 1 1.5690882878122012 39.575144357423184 4.691851848849349 0 0 0
7 1 0.2536861624076803 -0.07568052983211282 19.15036733023558 0 0 0
474 1 6.44526641081892 41.28851402505785 2.998441681595096 0 0 0
475 1 7.505471454339296 39.54695428314862 4.908612720728929 0 0 0
730 1 12.560256999522453 41.23223597882158 3.2205943381003745 0 0 0
731 1 14.38481894086573 39.742938838911925 4.74892682492474 0 0 0
249 1 2.794511408932097 44.81142668587795 3.044337695444629 0 0 0
220 1 4.506164697300235 42.94685415423788 4.446433242623696 0 0 0
476 1 10.749939872867092 42.62422806333592 4.788052950581864 0 0 0
761 1 16.008655846508002 44.48015444921484 3.205630291577704 0 0 0
732 1 17.599991694153374 43.293319001351236 4.960101442608359 0 0 0
231 1 0.005710210637531077 44.716100009300945 19.10133334451092 0 0 0
251 1 1.3646402542832872 46.33579088937459 4.726846805447404 0 0 0
248 1 2.9359362438421512 47.98414356749605 6.366611207964547 0 0 0
507 1 7.937897433138689 45.90721001511409 4.809501060536763 0 0 0
763 1 14.162741556733499 45.8038429021078 4.336848063395664 0 0 0
202 1 0.08859936343736763 41.42195115770964 15.703515824592229 0 0 0
252 1 4.6187395056539 49.1473198944896 4.803394302160062 0 0 0
504 1 9.492146973497288 47.50645292816297 6.374367712632208 0 0 0
508 1 11.11834112186321 49.10572189886774 5.069438442374949 0 0 0
537 1 16.01719046289807 50.682869832180614 3.3187080070520985 0 -1 0
764 1 17.370185524138602 49.34011399053851 4.915598467366043 0 0 0
416 1 9.544587198571827 29.03694747027811 0.2547262173908128 0 0 0
21 1 4.824745588438189 1.5419810873584558 7.70095817412208 0 0 0
277 1 11.420190033458109 1.3705634768678405 7.948037218553408 0 0 0
535 1 12.698062284923324 50.72852545115262 6.548550953410852 0 -1 0
533 1 17.451184648715955 1.2505088679843837 7.967928822961628 0 0 0
22 1 1.3202156218912837 4.335219473555233 7.802415245679655 0 0 0
15 1 0.14431739915120162 50.939809644041716 12.621890334313363 0 -1 0
278 1 8.428126781597637 4.496450043096265 7.810604161959336 0 0 0
534 1 14.096410576463512 4.573193669250978 7.97060548985311 0 0 0
536 1 15.76291464950744 2.8226293581458677 6.470649136887927 0 0 0
2 1 -0.09832086659344094 3.4437525547902235 22.052776196456442 0 0 0
53 1 4.7608892218297285 7.521948640314237 7.642641716834377 0 0 0
49 1 3.097998140983154 6.232178696909373 9.20167261671081 0 0 0
305 1 10.034580813652495 5.962645393310343 9.314981186318091 0 0 0
309 1 11.540570733883113 7.958666295368623 8.031634743428716 0 0 0
565 1 17.55983516928414 8.004084230873184 7.672350979281691 0 0 0
54 1 1.9180964925878277 10.891190650996396 8.090079971381114 0 0 0
306 1 6.501014914236135 9.15314255798146 9.16190358662116 0 0 0
310 1 8.344509037625926 10.808670606118879 8.010927487919794 0 0 0
562 1 12.962609795296467 9.551351882203507 9.788229467797606 0 0 0
568 1 15.761992021429318 9.550474487175453 6.197865773782317 0 0 0
566 1 14.269469747093153 11.118968865347224 8.000220051687057 0 0 0
85 1 4.944347304614866 14.119782065478725 7.776483329006092 0 0 0
81 1 3.402764924702609 12.625472952932194 9.706739965554064 0 0 0
341 1 11.586888177229305 14.24121085012022 8.060762899264981 0 0 0
337 1 9.79474586385543 12.586831146904753 9.523047489586883 0 0 0
593 1 16.01641804241253 12.492239995087521 9.638304052912838 0 0 0
597 1 17.434301245093504 13.995651976405414 7.844697375853036 0 0 0
86 1 1.5700327487464214 17.55973192309284 8.291921698866737 0 0 0
342 1 8.099729919748876 17.42758940336024 7.808652815066158 0 0 0
338 1 6.543011690801642 15.57662900401569 9.248402378531775 0 0 0
598 1 14.313603269804194 17.24529821262029 7.730649200434957 0 0 0
594 1 13.000883978737589 15.796597541311886 9.805353266001461 0 0 0
113 1 3.2936719880774517 19.445795776764715 9.587065391924277 0 0 0
117 1 4.925728300020575 20.972603912582297 7.884453958861889 0 0 0
373 1 10.99809002916067 20.38179889520976 7.760481864287179 0 0 0
625 1 15.940865477024062 19.12429740562559 9.261822410309636 0 0 0
629 1 17.39456704557905 20.69961660135154 7.581943772293115 0 0 0
739 1 14.405271010127242 46.217837772166405 24.116609596358668 0 0 0
118 1 1.7624851250559443 23.946568693332267 8.142920870077967 0 0 0
120 1 2.9713558468645083 22.101096368156693 6.363655897686789 0 0 0
374 1 7.675682672343191 23.89345425642369 7.7424966890334135 0 0 0
626 1 12.563464273487073 21.829441993413067 9.471072284488143 0 0 0
630 1 14.114920798768134 23.682389028097504 7.981672296711427 0 0 0
98 1 -0.03209848649343883 22.35159109145851 22.311932658112266 0 0 0
407 1 6.0387581502180785 25.413861705926617 6.511954799925672 0 0 0
149 1 4.581782639045861 27.146803474301656 7.920821381867087 0 0 0
401 1 9.299752800404978 25.775581413757354 9.521762889751251 0 0 0
661 1 17.479996547316052 27.091200535190843 7.7647992650361415 0 0 0
152 1 2.9475398321655617 28.455930965859984 6.297614676068439 0 0 0
150 1 1.170800203738616 29.882393587095187 7.6868278414253055 0 0 0
402 1 5.911963044307301 28.799208149297247 9.530452634249603 0 0 0
405 1 10.866298335768237 26.973874103774737 7.863588825324325 0 0 0
658 1 12.699701399533017 28.585523228620776 9.094584095859666 0 0 0
177 1 2.8772067411080027 31.708757766235866 9.144868103228037 0 0 0
406 1 7.621352792450338 30.224588028856907 7.784934489829956 0 0 0
433 1 9.384068424225728 31.85895827643259 9.516416626055847 0 0 0
662 1 14.127271511620162 30.03012193665637 7.388972868562856 0 0 0
689 1 15.774834924177847 31.49644048576702 9.546447815235906 0 0 0
184 1 3.4624956510895935 35.01990698216048 6.021144783947678 0 0 0
181 1 4.4485613878571435 33.480107765589295 7.866118204935221 0 0 0
434 1 6.139408430754045 35.02280086679028 9.375245153257193 0 0 0
437 1 11.18959644346779 33.32354240108724 7.878881613973937 0 0 0
690 1 12.868663252827824 34.503806366426986 9.55027463168642 0 0 0
693 1 17.393549333612828 33.29478079625069 8.102693976016015 0 0 0
1247 1 6.467710536967535 38.310463047431256 25.38596890647541 0 0 0
182 1 1.8185147067499707 36.44766122229538 7.837209713816202 0 0 0
438 1 8.105354024871247 36.804990759792545 8.098095934866885 0 0 0
465 1 10.018406649122149 38.11157956544437 9.670552458363362 0 0 0
727 1 12.543041365919246 38.168665320533535 6.413851481261806 0 0 0
694 1 14.093574296435591 36.69291022764729 8.073767551522138 0 0 0
721 1 16.192010077963683 38.24185000898184 9.209814872201143 0 0 0
216 1 2.93861753849373 41.49570674029022 6.2218139512759185 0 0 0
213 1 4.796681492170147 39.796801564438596 7.871926572932045 0 0 0
466 1 6.472512543638695 41.140100351309655 9.816048431203441 0 0 0
472 1 9.154068154814585 41.04792677098334 6.400601303869216 0 0 0
469 1 11.199986986118985 39.74736663217395 7.981722754883611 0 0 0
728 1 16.059928747085188 41.2809267783033 6.261420017828502 0 0 0
722 1 12.666845174135089 41.26399997505048 9.412960247927346 0 0 0
725 1 17.80749518152996 39.76679901200478 7.826840185149055 0 0 0
482 1 6.689251733534264 47.99484365355191 22.575034711719496 0 0 0
214 1 1.8734649118709432 43.268146345731054 8.05573116796301 0 0 0
241 1 3.29973398281583 44.98772608504672 9.567971383434555 0 0 0
483 1 7.694039126107618 46.065620795971796 24.128446040243126 0 0 0
503 1 6.013398046675884 44.429753296934535 6.282069125582304 0 0 0
470 1 7.91613870724658 42.75430548196371 7.963032758889364 0 0 0
497 1 9.575665821634434 44.252401099524135 9.673366736892982 0 0 0
759 1 13.003527592796862 43.989108931827246 6.261472666940705 0 0 0
726 1 14.640950920062005 42.74842497664298 7.872656210615097 0 0 0
245 1 4.59989144906395 46.33934605618262 7.782946035264963 0 0 0
501 1 11.284401550788813 45.73223796600354 7.817564279036418 0 0 0
754 1 12.610462747468738 47.49396755321965 9.6243219836169 0 0 0
760 1 15.645657511030018 47.394341862690396 6.3107841864385 0 0 0
757 1 17.337528317571156 46.34972814847643 7.876196210619322 0 0 0
246 1 1.3336975100006232 49.20263030468273 7.897950080874205 0 0 0
502 1 8.171168058025636 49.277404459296534 7.884311454257381 0 0 0
758 1 14.243408797276436 49.19523568896321 7.832592214315137 0 0 0
19 1 1.7990485305560353 1.603560264395451 10.959908317634218 0 0 0
17 1 3.376400335581522 50.88191521537895 9.398816353946659 0 -1 0
273 1 9.717090988729423 50.73394713994591 9.507547027766156 0 -1 0
275 1 7.855559045248333 1.336801533672851 11.016808191019905 0 0 0
530 1 12.617335847551518 3.31854239510887 9.898341972291824 0 0 0
529 1 15.737364949108587 50.793653786102695 9.66463722978993 0 -1 0
531 1 13.850200978173474 1.1770338640476299 11.134094080066406 0 0 0
20 1 4.835889011223467 4.815202193215803 10.97912450236693 0 0 0
274 1 6.152134544681446 3.137403744396542 9.406036173015567 0 0 0
276 1 10.95207627913218 4.8375999760293285 11.619850283557208 0 0 0
532 1 17.425819565795642 4.269640591747623 11.049040320730658 0 0 0
51 1 1.8018798274448482 7.827990834085584 11.09265135562035 0 0 0
307 1 8.228445651626096 7.7798275242335695 11.213325004735584 0 0 0
563 1 14.487893167000715 7.617270597498664 11.175838658672772 0 0 0
559 1 12.899694284430318 6.081804883010425 12.87873297223708 0 0 0
561 1 16.01651108490058 6.087281740191052 9.348256600497116 0 0 0
512 1 9.612014454278983 47.33048418556244 0.08663730338098238 0 0 0
10 1 -0.11026187749530436 3.1723656740316994 15.813971483410793 0 0 0
52 1 5.192694363458773 10.93571371787431 11.042414508025544 0 0 0
308 1 11.333261911199605 11.06051077050265 11.131109646023711 0 0 0
304 1 9.759455419697339 9.482036439354003 12.696579718203298 0 0 0
560 1 16.36573820116099 9.095414289053744 12.377237615368147 0 0 0
564 1 17.67060965399636 10.873268800856785 11.07329601285412 0 0 0
210 1 0.004225277626203089 41.544805044553826 9.275350951170216 0 0 0
83 1 1.7281815413594108 14.284250758676507 11.16643747832614 0 0 0
339 1 8.098687905796591 13.95757209918574 11.137303138627505 0 0 0
335 1 6.430729827324279 12.521143084514442 12.624526034584042 0 0 0
595 1 14.556129869973844 14.361744206656002 11.421008570933848 0 0 0
591 1 13.192711962582873 12.50805399830821 12.973433995359464 0 0 0
183 1 0.027079762471480223 32.31177507351114 6.297441211568927 0 0 0
84 1 5.120656752002241 17.513348940502038 10.715021923789918 0 0 0
80 1 3.428656775560742 15.918363058778063 12.602259853609016 0 0 0
336 1 9.689864370714222 15.744359740479888 12.736703564158047 0 0 0
340 1 10.99254788016496 17.20587551135514 11.15545971053776 0 0 0
596 1 17.519470087198492 17.63722657738311 10.674418691302312 0 0 0
592 1 16.057967213928794 16.29699431907894 12.592151703571334 0 0 0
115 1 1.4571942498668002 20.716210273973036 11.046543002082712 0 0 0
239 1 0.02216743888945416 44.266078268299 12.528952388432412 0 0 0
371 1 8.062411810345086 20.718530357701997 10.746716052272333 0 0 0
369 1 9.741765897074536 18.783084823771095 9.602357248763283 0 0 0
623 1 12.42415674829688 18.777322618935937 12.68717295464727 0 0 0
627 1 14.11299482737976 20.25958314370231 11.057769367077071 0 0 0
64 1 3.142271994509819 9.392979253916861 0.12572954564475494 0 0 0
116 1 4.730255056815875 24.34878371562862 11.271044589528689 0 0 0
370 1 6.226196963498759 22.65011279570787 9.380306382932059 0 0 0
372 1 10.992280477747908 24.147176607968415 10.851095289955003 0 0 0
628 1 17.47822432983777 23.861155996098105 10.86442098631577 0 0 0
227 1 1.3193774356603747 46.38447120009225 24.008528496809816 0 0 0
145 1 3.108366178773688 25.68637981149413 9.754146268413843 0 0 0
399 1 6.348017847485899 25.869523718800764 13.056985807519178 0 0 0
403 1 7.754281926092746 27.503077317781546 11.123264660855822 0 0 0
657 1 15.734654092712644 25.383193045593863 9.312443241125589 0 0 0
147 1 1.3854555423391108 27.228026780929415 11.385018785324831 0 0 0
400 1 9.603911547136269 28.826488827029213 12.739313429949034 0 0 0
659 1 14.136963240236682 26.797393024111074 10.747221867988038 0 0 0
735 1 12.583592546835336 38.21057801984094 0.035325006220270655 0 0 0
148 1 4.3089029941248995 30.36476320141823 11.167968971057293 0 0 0
431 1 6.207379817380785 31.667338609043412 12.562544071213422 0 0 0
404 1 11.332064846335678 30.67415754019735 11.029709826427908 0 0 0
687 1 12.986992083474718 31.921310402303607 12.519039944701314 0 0 0
660 1 17.702179325812804 30.185318379133754 11.00589800016525 0 0 0
32 1 3.308208325711433 3.2251200408969303 0.1745033125136103 0 0 0
179 1 1.6414493103712238 33.33473345745172 10.795740704901702 0 0 0
176 1 3.185959580775912 34.87456655220619 12.548345578456365 0 0 0
435 1 7.752205888551427 33.564872216359504 10.94543322606592 0 0 0
691 1 14.62399349140368 33.27315984099479 11.265618723924153 0 0 0
688 1 16.100995751785533 34.7426066429522 12.886931143338483 0 0 0
209 1 3.221543682310935 38.256632483316224 9.152859110170995 0 0 0
180 1 4.425786426715166 36.80863885479798 11.186169180970754 0 0 0
463 1 6.508691864476276 37.77206541097509 12.78373751401187 0 0 0
436 1 11.727403367849018 36.50360590870409 11.285780956013154 0 0 0
719 1 13.184353861700762 38.33746552722597 12.872685366348337 0 0 0
692 1 17.50308486596164 36.83631314061357 11.376797960142314 0 0 0
211 1 1.8390944512316505 40.135146119189045 11.00839831621124 0 0 0
467 1 8.08164405319062 39.393216976674196 11.25347957640554 0 0 0
464 1 9.457403354732383 41.253209016902645 12.673405589301863 0 0 0
723 1 14.462749138359996 39.83848848696367 10.915405422471787 0 0 0
1376 1 15.747024358901951 16.21632736854074 24.95220529250377 0 0 0
212 1 5.070110780443658 43.1403109651379 11.239788328788702 0 0 0
468 1 11.214087917373341 42.60873890258489 10.938002427848033 0 0 0
751 1 12.700432767968715 44.626976378623084 12.54426188500568 0 0 0
753 1 16.333136948800128 44.36232529930146 9.517866287135398 0 0 0
724 1 17.492747992135186 42.7170112955437 11.11376124872182 0 0 0
82 1 -0.05655611310409185 16.038161559996507 9.710044027406937 0 0 0
243 1 1.373000238840399 46.05002943061693 11.255996415474678 0 0 0
499 1 7.613793674199134 45.85717400999148 11.141805956579566 0 0 0
498 1 6.4243761387230185 47.50568465161017 9.52394242369979 0 0 0
496 1 9.27310284267759 47.3489110071916 12.577451680049101 0 0 0
755 1 14.356002953262543 45.99281161810727 10.795533124321729 0 0 0
244 1 5.045939125854774 49.51307756524909 11.085678634927746 0 0 0
500 1 10.829598341958807 49.02272576764827 11.06369623222834 0 0 0
756 1 17.5676732723446 49.47661207336394 11.1055118142907 0 0 0
215 1 0.00401141749342529 38.21915874255633 6.341659650856651 0 0 0
13 1 4.6814981449070405 1.766791288675081 14.192382084311312 0 0 0
269 1 10.915429732893124 1.386169921190842 14.062569510037207 0 0 0
708 1 17.131999929170593 42.93748548099643 23.83619972457846 0 0 0
525 1 17.225298379115312 1.5456598407841684 14.329593417110246 0 0 0
1088 1 9.430258799155489 9.314079665820431 25.335503550873455 0 0 0
14 1 1.3054438078143042 4.590586555961922 14.188301666825803 0 0 0
16 1 3.0685622265948234 3.208093892527932 12.665267542579398 0 0 0
272 1 9.355791191488981 2.7380275402376486 12.785213717403863 0 0 0
270 1 8.10612195843267 4.732317154984184 14.576908111592827 0 0 0
522 1 12.621824940245068 2.8282509086697596 15.797910912822493 0 0 0
526 1 14.55927310877586 4.6450924819582005 14.367411160261685 0 0 0
528 1 15.6124484856796 2.980043877706977 12.848866657560976 0 0 0
41 1 3.1332431204570264 6.015878034367835 15.677381362042151 0 0 0
23 1 -0.03813464070315066 0.11428837342818005 6.312401069940174 0 0 0
45 1 4.64163132324288 7.754673817047017 14.061694664320235 0 0 0
303 1 6.453482228950901 6.153572062482308 12.643775094669175 0 0 0
301 1 11.323787380589335 7.928481483841702 14.46211800259683 0 0 0
553 1 16.19695077381676 6.4085945162954125 15.770501070582176 0 0 0
557 1 17.899109377823336 7.699169045592285 14.255414689695261 0 0 0
46 1 1.5584471495414556 11.3326960011375 14.351230518184682 0 0 0
48 1 3.454350606516143 9.723224721638328 12.86979860838744 0 0 0
302 1 8.080231430943709 10.895186271203693 14.285843548526875 0 0 0
554 1 13.181471742138935 9.641193458838027 15.702888527276567 0 0 0
558 1 15.18519103247088 10.819846007801777 14.317175018789076 0 0 0
799 1 0.23853378328401875 -0.03461005912614083 25.108404837342196 0 0 0
73 1 3.292587030644837 12.86228751323039 15.687980424936594 0 0 0
77 1 4.933570847193296 14.368303141819647 14.153721204466462 0 0 0
329 1 9.540075352947508 12.64975622419406 15.911430714294802 0 0 0
333 1 11.221273017495983 14.223195217245987 14.475385865471466 0 0 0
589 1 17.214143350887884 14.264077696988391 14.029408169612434 0 0 0
585 1 16.11268693399435 12.701192705634362 15.89722173978587 0 0 0
452 1 10.993667316140554 42.728304132727644 23.616631104791537 0 0 0
78 1 1.7862740602093257 17.663011892993637 14.202219560650553 0 0 0
334 1 8.043420006131042 17.258366379150072 14.175516859507596 0 0 0
590 1 14.392763017862832 17.624145557956318 14.370374637880476 0 0 0
109 1 4.71701012846218 20.373398955927403 13.775114313383078 0 0 0
105 1 3.453295857700586 19.164461623155134 15.612133650595753 0 0 0
367 1 6.620599573885303 19.038628919832284 12.524731090911471 0 0 0
365 1 10.985987158250422 20.495875902722485 14.060696438052153 0 0 0
621 1 17.218421703094847 21.152826290659014 14.198940570499541 0 0 0
110 1 1.3402727483762946 23.77848182568875 14.609919151893102 0 0 0
112 1 2.938494004240737 22.549967984744924 12.664231353036495 0 0 0
366 1 7.9223493894279216 23.693567211439927 14.192348852815929 0 0 0
368 1 9.485486937521936 22.308078930228945 12.419085938071424 0 0 0
624 1 15.4669672635387 22.47778910040212 12.488850540314688 0 0 0
618 1 12.278886298953596 22.3561162522532 15.478198075079868 0 0 0
622 1 14.24746299569332 23.931923908692813 14.06608730614318 0 0 0
137 1 2.919610170318883 25.324781091132426 16.034482177754466 0 0 0
655 1 12.553250791301632 25.780389988210977 12.60362241504944 0 0 0
393 1 9.279093913525587 25.745759853593206 15.799014262572982 0 0 0
649 1 15.767556773455064 25.497225402999028 15.783730838961707 0 0 0
653 1 17.4077829770574 26.969893393299223 14.422266289572107 0 0 0
144 1 3.07369357515507 28.586239633080208 13.121924498484468 0 0 0
141 1 4.667518886386161 27.09409208425648 14.54986139647472 0 0 0
394 1 6.4443996403055275 28.884498572817435 16.05205743684818 0 0 0
397 1 11.269021440305373 27.37755328935758 14.603119794473239 0 0 0
656 1 15.865029206992567 28.324321044365078 12.748584896105857 0 0 0
142 1 0.8662702761975166 29.949607207810747 14.038916520004252 0 0 0
398 1 7.7628091362509695 30.151244331076615 14.037971401603878 0 0 0
425 1 9.498403171179222 31.854168484478905 15.469838786685607 0 0 0
654 1 14.556317095631645 30.52466314204492 14.111656619864995 0 0 0
1407 1 12.441860442128306 19.390465549038638 25.010553692561206 0 0 0
173 1 4.613410671988822 33.0962099276295 14.233861037233526 0 0 0