LAMMPS data file via write_data, version 29 Oct 2020, timestep = 100000

8532 atoms
1 atom types

-0.21761986602644612 104.76003105388767 xlo xhi
-0.24848529574996903 51.36754791652048 ylo yhi
-0.24848529574996903 51.36754791652048 zlo zhi

Masses

1 18.015

Atoms # atomic

733 1 -0.1151691547297114 1.8392388467958924 0.2637720207560206 0 1 0
184 1 4.455119888806603 2.8125373079838094 1.91504872565937 0 1 0
90 1 6.353126765775789 1.3073098117422823 0.402822740625955 0 1 0
186 1 10.966929360567372 2.770861181062374 2.181592562413692 0 1 0
87 1 12.517504545713454 1.4325770996869087 0.3633608875899549 0 1 0
188 1 17.230516269215247 3.0056935189164986 2.0274636379730433 0 1 0
1381 1 18.98568995780033 1.6584978534142432 0.38003584248042366 0 1 0
937 1 23.689587331473724 3.137567786192694 1.4742894827052604 0 1 0
932 1 25.35634653368075 1.3706778404705497 0.21407313951309143 0 1 0
934 1 31.513390655869788 1.3292680053094934 0.10751006288641246 0 1 0
939 1 30.07514955922408 2.9446008687844816 1.9292685098541522 0 1 0
97 1 3.141699973789879 5.403087998264157 0.2716961677991335 0 0 0
92 1 9.41171109398671 4.407244014439166 0.714740423718385 0 0 0
187 1 15.874979949409568 4.350971387338587 0.4275738233567671 0 0 0
936 1 21.524561921777295 5.5178046113682315 -0.12841815822507832 0 0 0
938 1 28.40316080267287 5.1508067194901095 0.3121602094933116 0 0 0
867 1 34.66185213914752 4.421149892840428 0.5043990878404369 0 0 0
96 1 1.316537126750393 6.8686473278102005 1.66630061163184 0 0 0
99 1 7.59401425205896 6.576050328525656 1.7452026632543445 0 0 0
9 1 6.407494811408368 8.639163292210535 0.729545865500361 0 0 0
104 1 12.521455989148633 8.199965518160411 0.2620068649868159 0 0 0
100 1 13.94576761611178 6.516799991176562 1.9193666421723345 0 0 0
754 1 18.461002165963144 8.473672548772763 0.35673301434274274 0 0 0
863 1 20.10743252892789 7.007516846834083 2.0988701961719327 0 0 0
869 1 24.944991306527122 8.46769175162207 0.09454778865666658 0 0 0
864 1 26.850634587096803 7.202877196924995 2.1237281426514376 0 0 0
865 1 31.817438291057528 8.112157501678638 0.13818908255257012 0 0 0
866 1 33.396474316203594 6.839571666357808 2.18740189828645 0 0 0
12 1 3.261299663005709 11.904280885153684 0.2812455840491147 0 0 0
101 1 4.7518119700659724 10.219730384867125 2.0851162047170178 0 0 0
105 1 11.091061321329782 9.762657310591784 1.8873478279347524 0 0 0
15 1 9.565892567148643 10.980183422625515 0.2538020654114418 0 0 0
112 1 15.583701218880178 11.62511093579396 0.12013581382604188 0 0 0
106 1 16.950536653847998 9.95507026516466 1.892047796885337 0 0 0
788 1 21.873672782056932 11.490256789351731 0.17692524458089615 0 0 0
870 1 23.35286036557328 9.891387555708855 1.8418902482606958 0 0 0
874 1 28.53465039043671 11.56418843559749 0.41248108007135564 0 0 0
871 1 30.239780023464135 9.98680917197478 1.965460712755446 0 0 0
107 1 1.1151700022262137 12.934679085768575 1.82128500629659 0 0 0
109 1 8.016730253343344 13.17312321166577 1.4870903786765408 0 0 0
20 1 6.3304886253699175 14.754120324505294 0.0422894484768051 0 0 0
110 1 13.866343641447607 13.336830898132218 1.400646551610962 0 0 0
736 1 18.90655434369587 14.866589050769603 0.4253464036449339 0 0 0
872 1 20.249273290128535 13.021060209479453 1.6484243619033228 0 0 0
796 1 25.4519095319798 14.726556599837885 0.23252581217100327 0 0 0
875 1 26.898079348441836 13.13136525834092 2.084827800947957 0 0 0
797 1 31.73881519653938 14.676644195817815 0.035015976036605945 0 0 0
876 1 33.46139912734162 13.245053909559562 2.019456481464772 0 0 0
114 1 4.381353490445545 15.947032385756778 1.8002428276180447 0 0 0
25 1 3.1013818970501252 17.919780501262558 0.2881874316593346 0 0 0
26 1 9.224373031272378 17.95811434658791 0.5408533042849466 0 0 0
7982 1 0.1938867352908064 1.9102505313037175 7.240157854017365 0 0 -2
116 1 10.951889182161153 16.244381714689705 2.0253778991854765 0 0 0
118 1 17.077159523250046 16.354335933317895 1.8028637724361039 0 0 0
5132 1 0.07542315773272007 32.0495185879967 23.45278398303774 1 1 0
878 1 23.505564509317402 16.33895490886548 1.3509362423004265 0 0 0
882 1 28.39630888095435 17.979376075570165 0.19372816817001248 0 0 0
879 1 30.201906515099832 16.12113809052262 1.6891867068756417 0 0 0
961 1 31.82588028619986 17.886395270295687 2.867428909242578 0 0 0
119 1 1.4490893086428578 19.600853662246394 1.843159736596332 0 0 0
32 1 5.930024276969705 21.132358423731183 0.5714449108873344 0 0 0
121 1 7.911391249369771 19.673650543737 2.1152166552811074 0 0 0
35 1 12.462542662208238 21.030268154664167 0.25939986549434746 0 0 0
123 1 14.267364952890409 19.255238149274007 1.3947348739341356 0 0 0
880 1 20.425398531081946 18.952555587450657 1.544391725947695 0 0 0
849 1 19.33731087673879 21.06480890366762 -0.13738834115840015 0 0 0
881 1 26.600140140737395 19.62292243063512 1.6994297444617743 0 0 0
807 1 31.476384255107604 20.92582483996914 0.22221807082908468 0 0 0
883 1 33.287429637929364 19.415469701843605 1.380849075612023 0 0 0
132 1 2.9309782036390137 24.332161768044074 0.022032554898321233 0 0 0
126 1 4.270328702811683 22.87136970654598 2.029866644190855 0 0 0
38 1 9.291520134164333 24.262383426493443 0.07795895365085709 0 0 0
128 1 10.823721730647105 22.64201635819972 1.8080522811512005 0 0 0
40 1 15.771662138054221 24.124649950293225 0.26211736214001624 0 0 0
129 1 17.526449691590336 22.572829262003744 1.8274258902561265 0 0 0
885 1 23.63279899216185 22.45644828719316 1.2994041916561836 0 0 0
890 1 22.25443035447884 24.413125112428126 0.1521842560629209 0 0 0
892 1 25.095595822631065 24.071676380078063 2.6973154892364968 0 0 0
809 1 28.716376337122433 24.064250140195732 0.4206294657890648 0 0 0
888 1 30.022456477891073 22.29005860271535 1.8597461712972057 0 0 0
124 1 -0.024834373128361176 27.2222544903222 0.11592908792928919 0 0 0
131 1 1.491506404855044 25.7717126055218 1.8449357983632115 0 0 0
43 1 5.959158660653201 27.40431967569204 0.2821146172586001 0 0 0
133 1 7.885403992983926 25.836216113445545 1.60864714196819 0 0 0
44 1 12.511343306554428 27.144772175226223 0.14561954160509588 0 0 0
136 1 14.156454944372035 25.497878972818857 1.536844350216598 0 0 0
889 1 20.445780599906538 25.95233557358904 1.6590999606968886 0 0 0
891 1 27.273376444349807 25.70072119503295 1.7621590350422056 0 0 0
894 1 33.35136778802991 25.63087817008117 1.8555071650256552 0 0 0
137 1 4.259235890028763 28.969352736303936 1.9598945779113004 0 0 0
138 1 10.922173149501905 29.16028550986948 1.621345523641777 0 0 0
141 1 17.398156228445742 29.38651131470011 1.7302028156508393 0 0 0
827 1 18.996174888568127 27.676426610679332 0.4748836234285274 0 0 0
897 1 23.847267217458576 28.978776491289317 1.9696268028288801 0 0 0
898 1 25.392123380954764 27.52899523176038 0.2361499922953087 0 0 0
899 1 30.293962284750116 28.98563737225859 1.6182053546268094 0 0 0
817 1 32.090439919282645 27.51584937372258 0.2613623939682572 0 0 0
142 1 1.3763080041546552 32.441234179409264 1.653689650041316 0 0 0
46 1 3.0215360601282075 30.67585596906917 0.4038880011909741 0 0 0
143 1 9.193690197869588 30.58295675999254 0.25143570572394447 0 0 0
144 1 7.393421700735933 32.18936306670233 1.722319780640138 0 0 0
149 1 14.262193434453126 32.044389516589376 2.074696107973994 0 0 0
48 1 15.929778517938917 31.03850376832411 0.2361939064181579 0 0 0
900 1 20.761896424705682 32.52090211036797 1.5038375733042333 0 0 0
820 1 22.446737488985175 30.798382814690992 0.2752601502818067 0 0 0
901 1 27.04344612365879 32.32645409249915 2.0218632422673846 0 0 0
903 1 28.80443121073759 30.683517025852215 0.08575020335614253 0 0 0
904 1 33.46461999352884 32.00071462113769 1.740375271821531 0 0 0
1508 1 10.77538510878227 -0.11511194214378481 24.185399508122668 0 1 0
50 1 5.891127484301744 34.13305753325872 0.03442189133408974 0 0 0
151 1 4.426401463501777 35.505823534746284 1.8156239863758752 0 0 0
153 1 10.791690483846304 35.329817181741234 1.822217236921226 0 0 0
53 1 12.854361582338033 33.91230004968543 0.41191041292964725 0 0 0
155 1 17.63361942499401 35.367272254003424 1.804058976699729 0 0 0
781 1 19.253395001475766 34.05216066061253 -0.053660530942217566 0 0 0
910 1 24.222163704335525 35.432251380584646 1.3851616360984618 0 0 0
907 1 22.33428988907174 33.909732047585265 2.9175617988232587 0 0 0
824 1 25.778146203323683 33.758775547202504 0.0479568185231698 0 0 0
912 1 30.26011324407275 35.28017740520613 1.698632738800015 0 0 0
826 1 31.738527621347572 33.65591244854532 0.06705474233179104 0 0 0
56 1 2.881220677514593 36.938886111480016 0.15988233184095596 0 0 0
156 1 1.494659466547031 38.99318267966434 1.7099698243064596 0 0 0
158 1 7.822560432956244 38.52503590618089 1.61037598167276 0 0 0
58 1 9.556204847668068 37.13124839000527 0.22618773237644169 0 0 0
160 1 14.543288030955534 38.51585208420737 1.7849808157045852 0 0 0
60 1 16.102513782960838 36.92227368301633 0.2855933423710739 0 0 0
913 1 20.558059565438363 38.51947096995909 1.7750464471620266 0 0 0
829 1 22.141185713583504 37.16970766948248 0.05231580007394859 0 0 0
916 1 27.28615897510692 38.616841535849574 1.8220186272197685 0 0 0
832 1 28.74194766140358 36.93566733021834 -0.0036023879395416514 0 0 0
918 1 33.73962362769265 38.450308579426135 1.5214278482108987 0 0 0
162 1 4.861363423762179 41.62999275480229 1.4400384557070687 0 0 0
157 1 6.270900042712033 40.02589946502161 -0.17968931762168694 0 0 0
164 1 10.749666460971358 41.90262673324942 1.6983519567008165 0 0 0
63 1 12.710605561425808 40.24284428491241 0.4105477382310111 0 0 0
165 1 17.82540457991795 41.62761554754837 1.6877123654009027 0 0 0
851 1 19.278558726334417 40.15210545403333 0.0347285920618966 0 0 0
919 1 23.589583661312446 41.94602785803676 1.6907281700240957 0 0 0
915 1 25.33204893399076 40.32115442739486 0.31753833810495147 0 0 0
921 1 30.184377964989494 41.80207739204769 1.343324810718622 0 0 0
917 1 31.961465597555765 39.880063793657186 -0.030342974615652996 0 0 0
167 1 1.3997406735045057 44.838416075683284 1.8032967680996332 0 0 0
66 1 2.969735093480411 43.26358332746783 -0.14579822543873136 0 0 0
68 1 9.054250801624349 43.594323808130454 0.18834673625437537 0 0 0
170 1 7.3472738323660085 44.810173053494466 2.0204647703803764 0 0 0
172 1 14.23954243088752 45.00652571661057 1.8604789450626877 0 0 0
71 1 15.764913687483137 43.132515519979364 0.35518850944628255 0 0 0
922 1 20.56040394802545 45.277654517126706 1.8027339310218342 0 0 0
842 1 22.072208359427236 43.53847058253589 0.04669851421190696 0 0 0
924 1 26.923646958324625 44.913597529979114 2.046386524537562 0 0 0
920 1 28.58997220314715 43.740127868816685 0.10199516976672662 0 0 0
926 1 33.27443252089729 45.299444446197654 1.613400266149649 0 0 0
49 1 -0.1585024890248924 46.70389512329484 0.33756562066630025 0 0 0
174 1 4.342333637186008 48.21645877543716 1.5574172051765223 0 0 0
169 1 6.2850774621779655 46.555003874313485 0.10670595871780342 0 0 0
171 1 12.411553512025183 46.49862012401614 0.32927587272603454 0 0 0
175 1 10.59783616312644 47.89322671313039 1.8996785592376786 0 0 0
548 1 18.778245930991353 46.78192394709521 0.4229151042348209 0 0 0
177 1 17.460754071921578 48.56357436901786 2.072050200783856 0 0 0
928 1 23.627584904295702 48.12040832241118 1.6973060330215484 0 0 0
923 1 25.221649522839844 46.684668197007554 0.314774961588112 0 0 0
930 1 30.42206532145553 48.29905116657439 1.764419587380201 0 0 0
173 1 2.6274654416075847 50.08453343435579 0.15268817660597228 0 0 0
179 1 1.194908636122996 -0.004272442319039199 1.8383574538608833 0 1 0
181 1 7.7805120138507045 51.182374915059754 1.9211669540350726 0 0 0
81 1 9.34667740642263 49.552465355733645 0.36440415293185957 0 0 0
182 1 14.017047930632337 51.07881365310712 1.4476261979426683 0 0 0
176 1 15.8664293029057 49.75263898669262 0.31428372003176663 0 0 0
927 1 21.873736103521345 49.54369411960377 0.408101621148668 0 0 0
931 1 20.75475453955384 -0.09472376864157542 1.9626197888423875 0 1 0
933 1 26.926180199013903 -0.12459481452422591 1.9671093495479721 0 1 0
929 1 28.540549515094018 49.807270290445544 0.3551572607872828 0 0 0
935 1 33.207355297902915 51.224408714534775 1.9516907358845845 0 0 0
180 1 2.769155907252939 1.6471762488448762 3.481201738522543 0 1 0
283 1 1.1639077737317596 2.867951604774378 5.01541684367929 0 1 0
284 1 8.01422077852831 2.942866203702806 5.001752600356142 0 1 0
185 1 9.337680818342967 1.1685883886282051 3.4889728118196786 0 1 0
281 1 15.502749166986685 1.0562667509098203 3.4252698600751406 0 1 0
285 1 14.097866684156898 2.860543100143684 4.949936218919779 0 1 0
1010 1 20.681876609815045 2.7473950143534043 4.844105879380944 0 1 0
1005 1 22.324112517207116 1.5699801281443355 3.318336102927807 0 1 0
1012 1 26.377959654608343 3.1465034370347595 4.6872158958556795 0 1 0
1007 1 28.736373639114547 1.5742792426047802 3.665184421025812 0 1 0
1013 1 33.273322926917075 2.8258384859867065 5.422448506634244 0 1 0
98 1 6.094807019220228 4.453816091833556 3.4914797134408797 0 0 0
192 1 12.549617629753602 4.396712758829169 3.6634832117028417 0 0 0
742 1 18.854364133114846 4.460944314697642 3.382192662636359 0 0 0
1011 1 24.981801067197548 5.194587330934226 3.0003409128597602 0 0 0
943 1 31.77718454719431 4.579094738521918 3.906558531070588 0 0 0
102 1 2.9862151779061112 8.398436802542275 3.259896324711978 0 0 0
190 1 4.661512901844368 6.733817140669997 4.818054937519956 0 0 0
191 1 11.269345218896843 6.5620775656113235 5.065598057361287 0 0 0
103 1 9.540867289482625 7.97958072743403 3.075219641840524 0 0 0
198 1 15.620226543301607 8.016870784898119 3.585435076346647 0 0 0
193 1 17.311667530135246 6.441797464550071 5.085527023110669 0 0 0
868 1 21.81087081822127 8.623319416772803 3.5685406435272626 0 0 0
941 1 23.26724867153213 6.420298308641193 4.930617656162653 0 0 0
946 1 28.712167732362065 8.672036651040054 3.650671379769044 0 0 0
942 1 30.36808029160871 6.763619082175551 5.430259703246946 0 0 0
194 1 1.1504005633100132 9.532301917761464 4.919702570491604 0 0 0
196 1 8.271662133986027 9.693835318093983 4.927906867576717 0 0 0
108 1 6.7406338423410705 11.477254468232122 3.7524803004886955 0 0 0
197 1 13.950592364414232 9.770723087715075 5.088208717443225 0 0 0
111 1 12.776228248527794 11.440382978257327 3.4483264309413433 0 0 0
749 1 18.71276790330489 11.411141819968462 3.39980272155346 0 0 0
944 1 20.173284953074067 10.171490843907442 5.215749011252764 0 0 0
873 1 25.364259418025252 11.366352089089633 3.4291287104437274 0 0 0
947 1 26.78451528610661 10.030556566313763 5.1655530195337125 0 0 0
948 1 33.44078063713763 9.699162230830058 5.115540290917701 0 0 0
951 1 32.063004841504466 11.49045122972235 3.6567960385687783 0 0 0
115 1 2.956762480157737 14.495947961939837 3.534923962527459 0 0 0
200 1 4.597536597223595 12.725016548191906 4.759628947536654 0 0 0
117 1 9.556972095978447 14.432150052128678 3.602511780819436 0 0 0
203 1 11.389952023979806 13.162554466758492 5.149352599015485 0 0 0
209 1 15.619302182300629 14.75735246711333 3.312139358778562 0 0 0
204 1 17.420522123188686 13.208057708352555 4.789394011308644 0 0 0
949 1 23.857882204012423 13.41549348524445 4.718015633081503 0 0 0
877 1 22.13776288013462 14.69186043029922 3.221651574305456 0 0 0
952 1 30.206664109801984 12.812557872761351 5.359389305762582 0 0 0
955 1 28.848002988054102 14.714683882656058 3.3895377467252823 0 0 0
753 1 0.08734041164253148 17.867973616459146 3.6274282350035323 0 0 0
205 1 1.7494044018033053 16.10058682669917 5.207907601526477 0 0 0
120 1 6.294620765709567 17.545670864072083 3.305823430051705 0 0 0
207 1 8.187887335258793 16.01791178881642 5.128606450171836 0 0 0
122 1 12.892797787563861 17.667890474082387 3.273548386434233 0 0 0
210 1 14.123976582867336 16.328792864739327 5.117878902731255 0 0 0
745 1 18.851000038393572 17.572940303457102 3.4889147131241827 0 0 0
953 1 20.53405772635635 16.116327153666838 4.967105579689543 0 0 0
959 1 25.029732532086463 17.61283468642463 3.1040834353528983 0 0 0
954 1 27.06753638218516 16.172919023709373 4.795901875621522 0 0 0
956 1 33.5179329698563 16.23439370025727 4.728484161915427 0 0 0
125 1 2.8358417469130366 21.25792044526978 3.7080624566596057 0 0 0
211 1 4.781339259554638 19.335242332482636 4.893721947280589 0 0 0
127 1 9.564971116975533 20.990567551371033 3.7207938041877897 0 0 0
213 1 11.43635646291342 19.456899190343485 5.178535464715539 0 0 0
130 1 15.729784360717016 20.76402910632275 3.2414417779132867 0 0 0
216 1 17.29475241531335 19.21087909647449 4.962064116938802 0 0 0
750 1 18.811734140809023 20.930130476133442 6.139878412050414 0 0 0
958 1 23.604751653904486 19.197469278055635 4.9532029033647085 0 0 0
886 1 22.100374019549534 20.689699658198922 2.996499816956467 0 0 0
887 1 28.157341357482505 20.780608902699242 3.4647080968909534 0 0 0
1035 1 25.392007880882794 20.945111519911283 6.136140231719787 0 0 0
960 1 30.15771220530398 19.49535146379445 4.895238619461697 0 0 0
70 1 0.06390857897554464 24.134236042930194 3.6009488320155354 0 0 0
217 1 1.4006869083695137 22.781653264705305 5.410128437578777 0 0 0
134 1 6.34808658180129 24.238266170524625 3.3908091192338436 0 0 0
218 1 7.942648461801248 22.649262548716532 4.9259518555726745 0 0 0
135 1 12.81516558405274 23.954932097410797 3.2889823758599928 0 0 0
220 1 14.168192999223944 22.46662897014023 4.847801730906203 0 0 0
823 1 19.038095257167733 24.084051606730206 3.3667320707347916 0 0 0
962 1 20.663898078124017 22.340882776891583 4.838582153060257 0 0 0
963 1 26.55704128619491 22.760938300114148 4.658657511032064 0 0 0
893 1 31.238494043951064 24.15044976447127 3.3377584917887066 0 0 0
965 1 32.987520917720666 22.55115433247268 4.899697088692115 0 0 0
229 1 2.804642037029087 27.331547512736517 3.478240877442334 0 0 0
223 1 4.7626852838758404 26.200935469885202 5.001895372619771 0 0 0
224 1 10.846452406642179 25.609020774915326 4.877690427861961 0 0 0
140 1 15.625109947589753 27.339656928593513 3.1666698085117684 0 0 0
226 1 17.25494358516926 25.927435421126717 4.69881699727872 0 0 0
967 1 23.654457662918148 25.526348911873857 4.709043609567205 0 0 0
972 1 28.79674976603702 27.40593189192749 3.3772388653825747 0 0 0
968 1 30.06776404945883 25.900671811057347 4.9914538058926805 0 0 0
228 1 1.5935007577275424 29.180486090291414 5.260847748469278 0 0 0
139 1 9.271643154187977 27.507432964669054 3.0773359774144935 0 0 0
230 1 7.517804749035534 29.127271891365 4.859671472012338 0 0 0
232 1 13.96913735348418 28.915810230461688 5.099296310495339 0 0 0
896 1 22.00415090304127 27.54912414500469 3.4606351121817234 0 0 0
970 1 20.79827391822322 29.3825143905093 5.170040306848782 0 0 0
971 1 26.99991601037093 29.169547761350124 4.830158131145216 0 0 0
905 1 31.897214622120202 30.437889761150963 3.417027603900735 0 0 0
977 1 33.06087264332333 28.58777608176459 4.980103190899204 0 0 0
73 1 0.17786372415937013 30.938421278449937 3.5735600442473054 0 0 0
234 1 5.877805678761568 30.650535041204957 3.62681832161153 0 0 0
235 1 4.41809360808437 32.386731701805545 5.038331102618318 0 0 0
145 1 12.37434639317415 30.525305039660303 3.4489621224900633 0 0 0
241 1 10.714413175931348 32.21347752725519 4.980991049212609 0 0 0
237 1 17.340533544588062 32.33102432665838 4.882015937754873 0 0 0
790 1 19.003054483868038 30.849623573412686 3.335518547246801 0 0 0
974 1 23.857682866983748 32.725898089390355 4.528503512217533 0 0 0
902 1 25.273277257220414 30.85526777907067 3.445624045259107 0 0 0
976 1 30.254702890200218 32.21245243679499 5.185709901311526 0 0 0
238 1 2.7807812899782456 33.69831805780622 3.4120756141150825 0 0 0
239 1 1.0007045061351711 35.1274599278115 4.803898064571943 0 0 0
148 1 9.06480080565087 33.691904211090346 3.3026564941499608 0 0 0
244 1 7.463372824222971 35.47029709516903 4.902188981469303 0 0 0
246 1 13.981511264022018 35.275465747665024 4.5054836465775585 0 0 0
150 1 15.952137447222604 33.72601457902681 3.056988820201533 0 0 0
979 1 20.647328798231076 35.26896961940359 5.214515949242446 0 0 0
981 1 26.921362747055372 35.64029806937289 4.67091664600251 0 0 0
908 1 28.590787070783897 33.96916931900003 3.5090242191860046 0 0 0
983 1 33.780923171341726 35.17547752925627 4.881427992475457 0 0 0
315 1 -0.14516412432314696 37.56140439208798 3.4119018238063203 0 0 0
152 1 5.9512775813406895 37.07423272383423 3.352668627563541 0 0 0
249 1 4.284622134514792 38.73193150123802 4.9835251796228635 0 0 0
154 1 12.411534281400998 37.197524404090984 3.0845392941137604 0 0 0
251 1 11.038318517247914 38.575072068349684 4.996312561493252 0 0 0
253 1 17.25392396168898 38.54625644211936 5.220545298374387 0 0 0
732 1 18.90927628788582 36.87829097538601 3.7735421466422574 0 0 0
985 1 23.72604924035572 38.58746006563027 5.066571649081416 0 0 0
911 1 25.207662251976615 37.26771465964845 3.109755885487229 0 0 0
988 1 30.33483161017616 38.50970993930363 4.716490061601294 0 0 0
1057 1 28.70482141254537 37.10464070469369 6.176837832028442 0 0 0
982 1 32.22481925226664 36.7626467223711 3.1370954177608033 0 0 0
255 1 1.6496355768006266 41.705058755553 4.954562391224467 0 0 0
248 1 3.296704322990855 40.274622840667675 3.1350864433204237 0 0 0
159 1 9.00748159518871 39.97949744515296 3.3904639580579383 0 0 0
256 1 7.948283130380464 42.06305944608873 5.215938620970362 0 0 0
259 1 13.94775075715329 41.95076839904817 5.191564542918117 0 0 0
161 1 16.003313513064015 40.445409238868834 3.566987350387874 0 0 0
914 1 21.999315677236815 40.30810369737458 3.493869689714447 0 0 0
989 1 20.536686958839486 41.700220662304076 5.279513537815006 0 0 0
991 1 27.46640341609054 41.67950369736327 5.0109044881874665 0 0 0
987 1 28.738625007393356 40.22021813333595 3.2157368343952295 0 0 0
993 1 33.42574934758247 41.83121487911903 4.657520912135392 0 0 0
14 1 -0.21189111699135543 40.46161939908602 6.557635253154253 0 0 0
163 1 6.07992924221611 43.02894284891042 3.597219055110746 0 0 0
262 1 4.633396094279173 45.0604896096262 4.989344457167898 0 0 0
258 1 12.394305543213436 43.429295324126585 3.5285307407086415 0 0 0
265 1 11.048728575902167 45.01096182636108 5.099346863440144 0 0 0
268 1 17.668647302044935 45.03043070499592 4.944173386024188 0 0 0
843 1 19.089497525610568 43.45634409081417 3.398118785229564 0 0 0
995 1 23.735428813417123 45.08821165572617 4.675464069823216 0 0 0
990 1 25.48001850478196 43.12881602528876 3.3975409370642513 0 0 0
998 1 30.202692084878798 45.16395973540648 4.8621507307644425 0 0 0
992 1 31.6340932094718 43.35061721693293 3.154769656082998 0 0 0
261 1 2.771842238037417 46.76258574858484 3.336132516858646 0 0 0
270 1 1.7046889919653647 48.538354432941446 5.173494282580834 0 0 0
264 1 8.9989670042207 46.31396473801186 3.515255676214016 0 0 0
274 1 7.758712419702497 48.02354844924429 5.080621763021676 0 0 0
277 1 14.496155489137841 48.01765689888428 4.9900754652906025 0 0 0
266 1 15.917798506638391 46.547402376837084 3.3758129733760955 0 0 0
999 1 20.502395924722833 48.45822804634602 5.126720977299152 0 0 0
994 1 22.25388425900025 46.903386856606645 3.568001760890302 0 0 0
1001 1 26.70032077587667 48.52195418617386 4.916349543673802 0 0 0
997 1 28.646968760829367 46.75782953374029 3.294802656503948 0 0 0
1003 1 33.479509263960466 47.887270559597724 5.396745453453339 0 0 0
715 1 -0.06977104065332249 49.95901953768134 3.67011486105713 0 0 0
273 1 5.852397942687708 49.702143168615564 3.3965008652493696 0 0 0
278 1 4.436236430915866 -0.0007105980302684611 4.900196792095585 0 1 0
279 1 11.13330169195297 51.007074225265626 4.934880057470992 0 0 0
276 1 12.85565667684634 49.26067116466433 3.3758657213764875 0 0 0
282 1 17.19779772435579 0.009690994395077035 4.993622114288369 0 1 0
856 1 19.080468328524624 50.07963802532052 3.5552661736162485 0 0 0
1000 1 24.981590728346905 50.05544228189741 3.473195025722609 0 0 0
1006 1 23.38550135997829 -0.1787315498003947 4.889403406884887 0 1 0
1008 1 30.02504352580049 51.32337195157049 5.226503117387876 0 0 0
1002 1 31.751614878006396 49.626558557969545 3.8040413746987722 0 0 0
375 1 4.883121895301876 3.178981961895857 8.209132738498667 0 1 0
372 1 6.264147952996715 1.167818669059805 6.644463201322471 0 1 0
280 1 12.461853558753539 1.1560795630688692 6.745031298820195 0 1 0
376 1 10.677644250478302 2.6877091626295186 8.187109047423212 0 1 0
646 1 18.819084029157278 1.4430897186281346 6.600223153992902 0 1 0
377 1 17.428374948140657 3.1424479788201274 8.229003169466406 0 1 0
1080 1 25.15360634423828 1.4523228750711432 6.209370692169948 0 1 0
1083 1 23.81571083970073 2.9505077230844354 8.51158998194145 0 1 0
1009 1 31.526650519228664 1.2109021255445578 6.982179679852489 0 1 0
1084 1 30.01102025102902 3.1755661418830066 8.120988241778546 0 1 0
287 1 3.210447299237119 4.550390626879744 6.519102113936627 0 0 0
288 1 9.563047333937806 4.40214463089105 6.628037010790518 0 0 0
291 1 15.594628854261504 4.461963420861889 6.7854222669737485 0 0 0
1082 1 22.180159405827435 4.384693827449868 7.0035326796941675 0 0 0
1016 1 28.204723225884557 5.272922892755648 6.531818402683261 0 0 0
286 1 1.6301328383248048 6.79551197859568 8.083126193516945 0 0 0
294 1 5.99139502206867 8.332236395113718 6.5263354936078235 0 0 0
289 1 7.698018974151693 6.528252209156386 8.140132938903898 0 0 0
290 1 12.468739568213914 8.513715268906276 7.0195659646460244 0 0 0
292 1 13.703920323748997 6.3681844564265475 8.257639119790193 0 0 0
1014 1 20.7151911170065 6.694607678309855 8.525176831447478 0 0 0
1377 1 19.212598151182245 8.105722575016795 6.812668451197138 0 0 0
945 1 25.086241885586592 8.215485207749454 6.584688837721101 0 0 0
1015 1 26.676641801692952 7.062152738583576 8.067854257191168 0 0 0
1018 1 33.52968051229113 6.667714636760433 8.616835071022676 0 0 0
1017 1 31.987147297407027 8.211849982184493 6.932044004141458 0 0 0
201 1 2.9315221966239533 11.432824098594715 6.321588092118947 0 0 0
293 1 4.6726772547274305 10.013186163401157 8.10237847098566 0 0 0
202 1 9.881133483090549 11.162784544946312 6.435109483177733 0 0 0
295 1 10.800352231437031 10.035626014777629 8.744307693286467 0 0 0
296 1 17.286254805328976 9.466599862632645 8.172425608507144 0 0 0
301 1 15.874299295374467 11.287654989640185 6.46844739679554 0 0 0
1019 1 23.842633852434833 9.945633479707393 8.048715528583614 0 0 0
1021 1 22.236660070534786 11.556357880020176 6.598974155584846 0 0 0
950 1 28.58549473968943 11.70244393593796 6.877361409448846 0 0 0
1020 1 30.313170586848667 10.00280506390717 8.404694974012552 0 0 0
297 1 1.6329694530877668 13.031633564717122 8.216118555681192 0 0 0
737 1 0.15558141482097354 14.799863504033958 6.893700456101882 0 0 0
206 1 6.340930675040035 14.35927425051834 6.281744365978127 0 0 0
298 1 8.071605953582331 12.983379792284438 8.337018859684102 0 0 0
299 1 14.342810255852044 12.820517543532292 8.299462105014511 0 0 0
208 1 12.814662025625253 14.75823151010576 6.909246641699247 0 0 0
1022 1 20.394560576912497 12.975872518448446 7.900561222852538 0 0 0
859 1 18.916993754468688 14.595501040605557 6.378511102914705 0 0 0
1101 1 21.876472553774835 14.5092673177786 9.373762218546865 0 0 0
1028 1 25.621556394561747 14.608666446531549 6.474906267884846 0 0 0
1023 1 26.976337226554374 13.126351745380145 8.259168835577501 0 0 0
1026 1 33.669230769760524 13.088553896984848 8.078487318379668 0 0 0
957 1 31.750603152180425 14.879869588455128 6.5767413744424665 0 0 0
304 1 5.030152775452409 16.145193518882174 8.165787350891705 0 0 0
212 1 3.23686140756167 17.838126538716484 6.827604082063659 0 0 0
214 1 9.640848064080544 17.799412153842677 6.6435665863026 0 0 0
305 1 11.182253824175751 16.270224971166957 8.254649080243528 0 0 0
308 1 17.53150466971513 16.08263131490299 8.196726858805722 0 0 0
215 1 15.874206078129006 17.704643336503135 6.7590396298928574 0 0 0
1030 1 21.964087047163023 17.996422745845138 6.728512270919045 0 0 0
1027 1 23.421492392098155 16.087855667768288 7.6744449575194675 0 0 0
1106 1 25.100736515419406 17.53297643906257 9.402645431261927 0 0 0
1033 1 28.51027386540533 17.86241311499549 6.58173639727556 0 0 0
1029 1 30.181368050010565 16.38120716627686 8.213836295863333 0 0 0
310 1 1.559132743436624 19.50001993846906 8.290043266932381 0 0 0
219 1 6.383006331914625 20.79482558903406 6.368405623963331 0 0 0
311 1 7.94160449069026 19.17272769584819 8.260854205754729 0 0 0
221 1 12.853008097426535 21.015207281518393 6.926402602621338 0 0 0
313 1 14.411175124189413 19.577658938263248 8.545092506864599 0 0 0
1031 1 20.491064452034895 19.794111965503294 8.081963966937172 0 0 0
1032 1 26.808758605537378 19.26153254834366 8.070444428955325 0 0 0
964 1 31.609215141673403 21.176056066322108 6.623274335169467 0 0 0
1034 1 33.52557648904618 19.597641605013514 8.056693937310763 0 0 0
316 1 4.957979859587178 22.735183163429195 7.8377798426013 0 0 0
325 1 9.587768587849771 24.007303923981134 6.723025308775533 0 0 0
319 1 10.840899848123382 22.427132223315265 8.279044880186772 0 0 0
225 1 15.798511606380913 24.34915738725678 6.381850861871865 0 0 0
320 1 17.380081225518747 22.859293473077418 7.797100347224438 0 0 0
1039 1 22.057959113282738 24.21663629266746 6.261616041291604 0 0 0
1036 1 23.78403460763622 22.685762427640707 7.752582043222803 0 0 0
1116 1 25.292941156441053 24.099926218157737 9.367440880329442 0 0 0
1041 1 28.43784685867864 24.068357970275027 6.48485928876241 0 0 0
1037 1 30.013246707480548 22.570543539845122 8.225816363193566 0 0 0
969 1 34.67163179197296 24.187062570610376 6.493648287554633 0 0 0
322 1 1.2876364709470447 25.944060260760036 8.169923599278567 0 0 0
222 1 3.127563567483849 24.671259611663242 6.707704730056458 0 0 0
324 1 7.905260259780308 25.946384702179422 7.869533500477379 0 0 0
231 1 12.414766810040677 27.059382904049105 6.591493758943926 0 0 0
327 1 13.967207764646345 25.486575472069497 8.181171050156804 0 0 0
1038 1 20.518765618603542 25.95236976174331 7.955713979690591 0 0 0
1044 1 25.429025528982052 27.2568148978256 6.406638952948834 0 0 0
1040 1 27.078275414733575 25.91185509706224 8.000047413559225 0 0 0
973 1 31.705814095633194 27.19782459278661 6.823019838220124 0 0 0
1042 1 33.47147855044235 26.052062257047385 8.54263300374287 0 0 0
6218 1 0.0396376729961917 22.007416926398832 14.084337671745676 0 -2 -1
2278 1 31.607779055838122 21.168153990184077 25.55401122613013 0 0 0