LAMMPS data file via write_data, version 29 Oct 2020, timestep = 200000

4608 atoms
1 atom types

-0.24853760166045902 53.648537601659186 xlo xhi
-0.3060736581769383 51.21319365817486 ylo yhi
-0.3060736581769383 51.21319365817486 zlo zhi

Masses

1 18.015

Atoms # atomic

4536 1 0.9987678700592031 1.8763075354268737 2.350753141234437 1 0 2
3779 1 10.533124492604864 1.1755678990811615 4.924807153463551 2 1 0
2817 1 1.9403172087417526 37.996578339484074 21.937780878514815 0 0 0
983 1 1.0026142416069093 24.387253444191085 24.499420996857783 0 1 1
2519 1 8.212843693430926 13.956355352484113 0.4521167576889715 0 0 1
4485 1 2.3136436890468377 20.858171003772537 20.920859606187303 1 0 0
2965 1 9.924914920392546 4.144417052902742 2.256178195691646 1 0 1
934 1 9.274953758233513 47.11423926653292 0.6322678327018513 0 -1 0
492 1 7.780295701741409 2.233236941621696 2.3200792031563635 0 1 0
3045 1 4.1354150835483825 6.948271156620716 0.2488862764776738 1 1 0
3211 1 0.8181109825040305 7.281064245447988 0.42217892481347774 1 0 1
1550 1 14.085696919727381 3.832406637668763 2.22382875540753 1 0 0
3720 1 3.334140002802841 48.68140519535574 15.8076748762929 2 0 0
4002 1 1.2491961791901038 10.632986071457813 23.265090691066213 0 0 1
3370 1 2.2747943062652474 22.36367498087776 16.35927620853643 0 0 1
4114 1 3.587171151275058 10.876315693582283 1.3147259352755802 1 1 1
2208 1 -0.003171207232505413 39.62296064565835 14.867093559640855 1 0 0
729 1 16.438312573215068 9.119905197724426 0.841100763193801 1 1 0
4444 1 0.695525889218428 45.1096775398796 1.6874555784496013 0 -1 1
4591 1 1.0333421612039986 17.518335652279752 4.69832252403136 1 0 0
663 1 16.231987849814214 40.92948993149612 0.4296819643730746 1 0 0
1431 1 3.196894095099535 15.644428849724859 2.2909832153003 -1 -1 0
1752 1 7.8019317010802585 15.878287904324477 2.093601925914335 1 1 0
2275 1 14.113080574108187 11.679247605141736 -0.0615185325899881 1 0 0
3328 1 8.61799971939267 11.874688673649281 2.3878241372971285 0 0 1
3389 1 2.365660872948588 23.597736194246345 21.952171120748563 1 -1 -1
1223 1 4.676927898441836 18.690732598649486 2.4361803168238465 0 -1 0
3871 1 11.818272198977086 15.01322541428234 2.8711266135139213 1 -1 0
2810 1 4.879656421821243 22.407027881688343 21.91663500904628 1 0 0
3546 1 14.200980226828806 16.879468068532805 1.661428230832537 1 0 0
3817 1 2.99900792285159 24.011563086737915 6.0443344563901915 1 0 1
3231 1 5.863790232425913 21.1251960981391 2.794178121589142 0 0 0
275 1 5.418698455733942 19.32497313905513 6.293223875419382 -1 0 0
195 1 2.4617854232026617 28.742528488257726 19.62827752879514 0 -1 0
2336 1 8.917714369742379 18.205380284671612 3.7538026502536805 0 0 0
3945 1 11.299741045297674 18.552670592076463 2.497409692417322 0 0 0
2450 1 2.3404885996011933 14.201803440202223 7.020506725924406 -1 1 1
4413 1 5.528375317464104 23.79365832125542 3.4991412064803806 0 -1 1
1033 1 9.822789057229402 23.486628323734426 3.526839480926649 0 -1 1
212 1 8.952911584519956 26.73092495715759 5.137863958072599 1 0 0
475 1 13.470119387138755 23.386201195969207 2.629815684440736 0 2 0
366 1 0.28604552424271146 4.828535643840858 16.26544978473795 0 1 -1
4102 1 16.559990753208098 40.60465517557971 24.07938041149663 1 1 0
3078 1 9.04650548861213 33.35354643357148 -0.05894027927373541 0 0 0
613 1 3.6682830083044866 24.742381189932424 1.536070094326278 0 0 0
3383 1 3.8795880557665106 27.31578576978809 0.9564813570512078 1 -1 1
4281 1 11.730146308026114 25.213007986129647 3.8916635139437563 0 0 0
2048 1 0.6818196746114544 39.538960806614384 8.30578787471041 0 -1 -1
1026 1 -0.07289552984018896 24.68463678366852 19.209956155092392 1 0 1
127 1 6.2660617018790346 48.795606979961164 0.5551856061686362 0 0 0
4319 1 5.258984036226289 29.743691572343604 2.688594589308008 1 1 0
589 1 16.40592733556668 28.31981538620816 25.415564884350587 0 0 0
1970 1 17.541315204641176 38.18425934487382 23.467081899553843 1 -1 0
1510 1 9.692848822259796 30.236305124719173 0.31943620564501307 0 0 1
4479 1 12.922444884946689 33.0177835544944 0.9565757297173172 0 -1 0
3295 1 16.177701870281208 4.6989469811278886 0.5144888033599461 0 0 0
3321 1 2.812915169238503 33.019436550674854 2.4643457005973506 0 0 1
4237 1 2.794632204340659 34.03925185652223 21.17545899305787 1 -1 1
3369 1 2.865097517273334 46.49219806953673 -0.2956245722550704 0 -1 1
423 1 0.07081663667601679 37.68715997894526 6.346579108424847 0 0 -1
1583 1 0.2061740600529932 27.272616119486578 20.349704878623005 0 0 0
2115 1 6.480402871201701 36.50262857590957 1.1087471943770346 1 -1 0
3053 1 2.961257292808313 5.7160717233900415 20.099888784909982 0 0 0
1215 1 6.675106611054402 33.8233941627375 1.410968144464763 -1 0 1
4249 1 2.328508190724194 44.1260995777574 5.3115096295264355 1 -1 1
421 1 16.060849719104162 37.065883958697995 1.6180819014308647 1 -1 0
2748 1 2.0169996064509004 35.8622012080657 1.6091949652886137 0 0 1
3674 1 0.13504240934828549 50.62343459147331 22.29090025987836 1 -1 -1
3431 1 -0.028117643262850905 18.46187807162053 10.835103088037448 2 0 0
2563 1 0.26651484656867896 42.41231095025148 14.50439235361067 1 1 1
1085 1 2.8389278386572827 50.46916867170209 0.6918086155005218 0 0 1
2121 1 11.957987492917306 22.35681475378593 0.21221885052583211 1 -1 -1
3167 1 10.30972446431372 51.10901012104945 2.2807906382376912 1 -1 1
1490 1 5.681277094583955 40.506483556548616 2.1139834330629372 0 -1 0
268 1 4.2096585477739845 32.197462777896206 25.44884914555684 0 -1 -1
2957 1 0.46717678325406564 48.22188982672344 16.308445647440664 1 -1 1
81 1 8.870809891047603 44.31637635204963 0.8203010547908356 0 -2 0
1541 1 8.555218286228818 40.48059620776466 1.672676784958197 0 0 1
3265 1 12.867054104925069 30.064958618597323 0.10723786225791987 1 0 0
2982 1 0.9607483982643239 43.57333024232018 23.112855790420227 0 -2 0
2137 1 4.504324172172721 19.595865067127097 25.372850376971037 1 1 1
58 1 3.6456427403652834 45.25094838944206 2.7059557265551866 0 1 0
3026 1 2.5505521584674473 17.56562478024252 24.151849352606735 1 0 0
713 1 0.3963301092898216 46.74176746420973 24.05080531732593 0 0 0
1881 1 6.329546257041295 4.907572394857592 0.6079895217150015 0 1 1
2952 1 6.8964684565994885 28.450667842887814 0.4031001056492035 1 1 0
2397 1 3.584555623164531 15.009471709492148 23.491707218194698 1 1 0
700 1 5.1298931377147 48.56341960457158 3.0136151066866597 0 -1 0
2968 1 7.654223772215368 50.06417976801984 3.6766823093098133 1 0 0
1858 1 6.474552565126421 44.23255734924611 -0.2741943460357003 1 -1 0
2233 1 11.157207259109303 48.52227586467373 1.5408277957519128 0 1 -1
1009 1 2.4287591848691816 8.11512203799079 15.235096638447338 -1 -1 1
301 1 15.005839308774611 1.57332992476894 3.9958917843071724 0 -1 1
3756 1 1.9651053225599586 31.357138315135426 23.867359385887962 0 0 0
1058 1 3.545413490231928 0.635273132881218 2.616568096512561 -1 0 1
2842 1 4.839309117974099 3.3459783670187178 2.5462387516369347 1 1 0
2498 1 10.581376100629864 3.9938552739915707 5.174986038182913 -1 1 2
2381 1 13.444540606828557 1.735898429847131 6.007136746554203 0 1 2
4042 1 14.076434550952131 51.059263046577485 2.36069810772688 1 0 0
869 1 16.30621925975821 4.497329646453729 4.6193432761951785 0 0 1
1843 1 16.3055109040005 1.5316369352885828 23.276524313330135 2 1 -1
3448 1 0.4500780872806185 4.793118169322997 2.139079050529635 1 -1 0
1115 1 3.2022541778673768 5.656796359260281 2.7691530272815443 0 0 1
4596 1 13.074796380932778 4.447813505184699 6.522977467017825 1 0 1
1955 1 13.326608381563052 5.758657598099745 4.143312640259744 0 1 0
3158 1 0.19523652790819096 37.831935215855225 19.807896582702785 1 1 0
4540 1 0.19341906222402833 14.975144098375097 5.189459519957967 1 1 1
874 1 17.39371697875583 42.019081768077356 6.266942844749159 -1 -1 1
2106 1 6.734465811272005 6.1233672968502955 4.210450236452484 0 0 1
3203 1 8.580605177453668 6.513314420830468 2.0614118425351657 1 0 1
2953 1 9.047137194102135 5.9349991220548395 6.182869672660239 1 -1 1
4118 1 12.631118046783767 7.905458189956111 2.613407114108155 1 1 1
1865 1 3.0784592205372325 43.692594362454614 24.973861860694914 1 0 0
2799 1 14.6418180430425 9.50051333033428 3.2593489423378155 0 0 1
2729 1 5.8914711655717795 9.048670252964422 4.518818511521372 -1 0 0
489 1 6.312395077156497 10.343040790948358 2.358896178414334 0 1 0
2094 1 10.173274095005919 9.110685876869313 2.3470519025556227 0 1 0
1648 1 12.903124453241128 8.637460227965722 24.888288864661497 0 1 -1
4291 1 1.8866803549161508 10.809209760413903 3.7205981264037744 0 1 3
4404 1 6.68196346257972 8.144878752891538 0.7481958498413168 0 0 1
3985 1 4.148691830894739 13.408549784089747 3.751258993603666 1 0 1
1574 1 13.256987061212204 12.624029080253187 2.5895654551467024 0 0 0
2704 1 3.2794542130668782 16.76541890906612 6.024424679895444 0 1 1
902 1 5.783657098987099 16.9099969448769 4.3308551646125215 0 -1 1
293 1 10.312887014741099 12.96442792471696 4.471362122415881 -1 1 1
4543 1 10.671608843587642 17.484867542518856 5.936471149661874 1 0 1
337 1 15.404934017667747 14.496118137037605 3.317797697186363 0 0 0
637 1 1.8174162186362741 43.19498625504477 17.187150837150632 0 1 0
2018 1 7.450172430127112 20.624968319795162 4.683958339128104 2 0 0
910 1 9.901675404879587 17.587884769359842 9.18195148720802 -1 -1 0
1635 1 13.426966251542202 21.714434041999642 4.949471680000272 0 0 1
2442 1 1.2853388491235807 21.710628949767443 3.906021238335102 0 0 1
4579 1 4.653717845129451 21.046839704235058 9.076256476054365 1 1 0
2512 1 10.965048140201205 21.065030055576052 4.213661750382015 1 0 0
1213 1 13.24758635861335 23.927125782232824 6.593828249778998 0 0 0
78 1 11.464405975068646 26.22208646547161 6.664529658135898 0 0 0
4325 1 1.6686646719433365 24.44663670416206 3.279613094654306 1 1 0
658 1 12.133243130428 1.0639713423914439 0.3217704456326197 0 -1 0
1268 1 3.920370542583581 21.628095196061217 4.920691224545101 0 0 1
30 1 7.6789879348335806 24.30166185553012 5.173039882986077 0 1 0
3 1 8.294216393767853 28.715521224417618 2.894365834718157 0 0 0
813 1 14.699265556775758 27.48173349728372 0.590834947020586 0 0 1
809 1 0.5982157505279481 20.259938283569152 23.135736430454845 0 0 1
3120 1 4.248093100142897 28.303988951042424 5.724327546166054 2 0 0
3371 1 7.398249431817193 26.3282245431443 8.215159649856691 1 0 -1
2430 1 11.264400297800286 27.610371758090114 2.8838164107228117 1 0 0
3874 1 12.450649913771835 31.226043969951508 3.730675361757134 0 0 0
1684 1 0.7330774363032454 34.81678369598771 5.807106205964172 0 -1 -1
3074 1 1.7452233109025619 31.005816922259086 4.403761996203392 1 -1 0
4202 1 9.644221421625051 34.27454168214584 4.174572261140624 -1 0 1
2078 1 1.1604394046362358 13.61520542077901 2.752915303514701 1 0 0
2795 1 11.956623405816943 33.86915773231429 5.894852838658245 0 2 0
450 1 2.5101016989224907 28.672704933891705 3.208665941704893 0 0 1
1920 1 5.173871413141269 31.662268994303282 0.7979657937719424 1 0 0
3200 1 8.378621243721282 36.45000764835447 5.80619967170008 0 0 1
3769 1 13.339741966029107 36.26197533668987 3.005291580959715 0 0 1
1669 1 2.8587533730368135 35.960785614758606 4.515099448167598 2 0 -1
1251 1 5.337656451305269 38.57889338480287 6.967530734699276 -1 -1 1
981 1 5.461824653484584 35.77612685133619 5.956265024221826 1 1 1
2031 1 11.07272822248156 38.37455408470363 6.040803747826033 1 0 0
1582 1 13.04253297658286 39.11638029709863 2.357420604419599 0 0 0
2650 1 15.481209746805126 39.29297065198766 3.9115131942617616 0 -1 0
4538 1 2.92613014626357 40.16855496422569 4.01527179009235 0 -2 1
2737 1 7.668853273099472 37.99310350300266 3.3285122313031614 -1 0 1
4443 1 7.0527784014013895 39.71900795900689 5.484173712475196 -1 0 2
1031 1 10.93419887253273 40.22171743173746 3.8122968456559123 0 0 1
1137 1 0.16972653907645796 7.330419343675304 11.102171259380041 0 0 1
572 1 11.593759850790981 41.832255517185914 6.062850274191437 0 1 1
2400 1 5.260337013620093 42.09822132908353 4.760750390730664 1 -2 0
780 1 4.715999545133813 43.14277461784586 1.5961907765250996 -1 0 0
4592 1 9.79075078607298 44.79068695490939 8.214660117828991 1 -2 0
2708 1 9.698161733691075 42.85479822147818 3.3851243916652116 0 -1 1
2249 1 5.6320454658397745 46.75768857232559 8.203066774992907 1 0 1
1014 1 4.234741802195108 51.061827129487895 23.189963776573386 -1 -1 -1
1267 1 6.277283980383334 46.16025275478816 4.34217788371536 0 0 0
1808 1 8.68595031227808 48.01550269195401 5.279554725800552 0 0 -1
810 1 10.96477426319007 47.05636926968654 4.135439557468414 0 0 -1
3807 1 12.11546072986306 44.42218533334861 3.3026872509124656 1 1 0
558 1 0.9965256767309516 49.09617995616142 4.604754994525413 0 0 0
1375 1 2.2374838638323733 47.99761584733203 2.4513434817501523 0 -1 0
955 1 6.4669247029464145 -0.2576483158784096 6.0871137772144035 0 0 1
4267 1 7.586998798856157 2.0605377780827814 5.301884979902662 1 0 0
739 1 13.247245319192979 49.08877814538485 7.079755914971545 0 -1 0
1262 1 12.296145497252773 43.97191093215598 0.2406898045972189 0 -1 1
3878 1 1.0979526869760943 40.55365989492458 18.354407278245105 1 -1 0
449 1 3.731170449156778 50.91550815029636 5.410316939510226 0 0 1
4578 1 11.216038203071506 50.941830171556234 7.119864143086237 0 0 1
1988 1 15.203313343670459 1.6547450112915583 8.203859292640596 -1 0 0
3692 1 9.612662509581828 23.81905618019456 0.8580543543617081 1 -1 1
4092 1 0.3992058769679151 29.859982974975704 8.350418709707949 1 0 1
76 1 0.38886764441275434 2.382644905856441 5.922720975629067 0 1 0
800 1 5.472411577640873 3.9327028149918473 5.206331960757009 1 1 0
31 1 15.04961202178892 4.223787364062971 9.04846495493707 0 0 1
420 1 10.976035811086508 3.164108113392819 8.367390128443846 0 0 0
2066 1 13.074526637045677 7.3944489163559455 7.375508318842206 0 0 1
1977 1 0.4153376329001748 25.415856535482682 6.578239459588433 0 0 0
1738 1 0.3344037305060197 4.92147790270929 4.8356679919240815 0 1 0
2290 1 4.321269862147431 5.769693587578929 7.695283642177689 1 1 1
1776 1 7.18448916190479 5.258372964012955 8.321781222190792 0 2 0
3169 1 5.555666349905523 5.341998947743266 11.141137426539363 1 0 0
4083 1 3.4710256508515056 11.193827912632088 10.693826771230022 0 0 -1
774 1 2.839003778421171 6.4534786962417074 5.498004190506124 0 1 1
557 1 7.450832133842612 10.195777231181834 6.279854742431658 0 0 1
3958 1 10.617094438185651 7.915353770895457 6.979227313083006 2 1 1
4504 1 3.9048707861645475 40.527563390645795 -0.28583751839508786 2 0 2
645 1 9.104131717843092 7.293156275811856 24.82525611164 0 0 0
817 1 3.1889038125094693 9.112289251088093 5.0119567477605615 0 1 1
4233 1 3.706669420266279 12.119689046557387 6.234941284031314 0 0 1
961 1 10.002685504103557 9.813329129807657 4.985415894961109 0 0 1
3486 1 12.716833456772731 10.85154190027368 4.86371584337334 2 1 0
1987 1 16.396183325904055 15.070854820818953 5.756760730778077 0 0 0
2278 1 16.86993231076357 12.391015801371545 6.638303682982163 1 1 0
3577 1 6.1447523509283 17.639791708423076 0.12820872740031364 1 0 0
4124 1 5.14767870477899 15.75779622073171 9.737915127427552 1 0 0
3586 1 2.0625339663326385 14.289356240011537 10.29458191915214 1 0 0
3101 1 7.990862879512218 16.759975105536803 6.5773738266808275 1 0 0
4418 1 7.0715922988090085 13.886792253964188 3.8635576553770115 1 1 2
4104 1 12.83483306027183 15.977837628391693 5.419097632131891 1 0 0
3821 1 7.254950274290111 19.125206613990763 8.422639730630156 1 0 0
1991 1 12.05767315419162 20.313068769663424 9.425964342731753 0 0 -1
769 1 15.084640734112535 17.507789571043393 6.511472591455259 0 1 0
162 1 16.959411129723872 42.79470788923915 14.987033697667421 0 0 -1
1683 1 14.9217383413118 45.35501748069065 1.7653935707347523 0 -1 1
4527 1 2.119307237652086 22.26397611054493 8.495783460317035 1 0 0
2317 1 9.979852836600964 20.002871249050166 6.804408543378398 1 1 1
2489 1 6.126472489271265 21.11497081863507 11.663287243280127 0 1 0
2178 1 13.50184110159209 22.733449281248934 9.480089434110697 1 1 1
1430 1 16.375662732727932 9.568283099481395 25.187251363403316 -2 -1 1
1084 1 15.755897317927769 21.472279877304835 9.746530284781295 0 0 1
1928 1 0.38080121286757374 22.691404232077733 10.840117740452069 1 1 1
4302 1 5.4435169393548675 25.756310994124743 6.059576024860936 0 0 0
3069 1 7.22897428611272 22.11017773149393 7.382829344718873 2 -2 0
4076 1 12.268639746794994 31.021632546686543 6.660486696216976 0 0 3
191 1 9.947216943703891 25.35212133918503 8.843605830267435 0 0 1
1180 1 -0.13072737172757226 9.726948953522095 16.22938533830441 0 1 2
4206 1 2.1415109354726494 27.684840274318674 7.441523084839345 0 -2 1
2695 1 9.563885433364032 31.036180428059712 8.081898353101245 1 0 0
4364 1 13.592377598006312 28.871766979954142 3.1024959685295808 1 1 1
2846 1 2.7271409291606883 31.268564313612497 6.749317947014941 2 1 1
1050 1 8.064616358824603 29.13681385149755 6.360577225401741 0 0 0
2286 1 5.274483594525359 30.271141954982262 7.985589846284203 0 -1 1
4537 1 6.171189285868212 30.697330716755136 5.087803647901039 1 1 1
3036 1 9.857984010269648 31.61020519907681 3.0611670971190854 0 0 1
2884 1 12.762373121339168 32.765546942192444 9.091540715980702 1 0 1
2160 1 2.2997280369701394 38.663797561295056 1.5440978027836647 1 -1 -1
3467 1 12.848742014357335 19.934766331332263 0.47437638752368416 0 0 0
3717 1 6.994730970234309 33.571160184967795 4.48026923935662 1 -1 0
3858 1 1.9757870919728564 33.624152859786534 8.095725309170492 2 -1 1
2793 1 12.982369999643998 36.037998781165726 9.144111211401604 1 0 0
276 1 11.462525592649987 30.921097554813755 10.691913083843922 0 0 0
3376 1 14.25310632379112 29.51212607239407 7.804829811903414 1 0 0
1980 1 13.161668101107589 36.66739415234862 6.044850281026566 -1 0 1
507 1 8.750751852856057 40.83696745758172 7.212507253407766 0 0 1
688 1 7.920533824208334 33.1426882110582 7.22369908406471 0 -1 1
2892 1 8.399013514068283 35.329977285409825 8.742387376738478 1 0 1
3238 1 12.094912345875906 40.29952810127894 8.161459079122206 1 -1 0
3057 1 2.7686879394619806 38.37834822504415 5.854828454972141 1 0 0
1761 1 3.6458605988183965 40.76259759190319 8.619388491756665 0 0 0
1902 1 6.472165962357698 44.478684518672125 6.742457268608527 0 -1 0
472 1 8.003836321912374 13.751021488815924 25.304341793572604 0 -1 0
2908 1 2.6049038834682317 46.62045235767518 9.362491156490565 -1 -1 1
655 1 3.8661031359604188 42.778068252205145 7.194451732908138 1 0 1
3626 1 7.92198715540127 45.852349616124 10.060553850454806 1 -1 0
1186 1 8.779000690186752 43.25626840280415 6.027271535668684 0 -1 -1
2989 1 13.784492649748648 43.26885531523253 5.0687701738555235 0 -1 1
3044 1 1.2481040461767372 47.43605812083541 11.670496717854615 1 0 0
4308 1 16.559036400779636 20.784143299211852 21.76136580930023 -1 0 0
2642 1 7.742485814468854 49.2432027232135 7.490458412653532 -1 -1 -1
3497 1 13.788224726452249 45.82006887479638 8.39787875855741 1 0 0
2065 1 11.400970631186805 47.046750832953634 7.212741717992545 -1 0 0
4017 1 17.19114608228062 34.74401261191166 2.9639939496912007 1 0 0
882 1 16.0172165726181 16.681145848743387 13.035488267948717 1 0 1
812 1 0.11397316514663974 44.52105574675207 20.71386931918466 0 -1 1
3487 1 1.8241724295929749 48.86048287125071 7.1981086485182 1 0 0
4329 1 9.09048131631314 51.141723866128814 9.044130131275978 1 -1 0
2122 1 17.282714780969638 49.07270951103301 5.782625188212388 -1 -1 1
3396 1 7.906064460513981 38.593293792738024 21.067225091977818 0 -1 -1
57 1 0.5081067203200577 21.584273667513486 18.976273029728034 0 -1 0
1882 1 9.41408721753036 48.423109212332434 10.95568927378978 -1 -1 1
3991 1 13.182546586391066 0.25025666813334246 11.825239035813592 0 0 1
1048 1 3.2919339062856645 13.496786552840959 0.15067040181590818 0 0 1
3235 1 2.6315855683718223 3.939110724061515 9.017224080436904 0 0 2
2554 1 3.2233988752899188 2.2717074197392604 6.414882623455114 1 2 1
1637 1 12.357448773604537 0.875364656096083 9.218401381773822 0 1 0
2569 1 7.973921575557609 6.138794604553578 13.988907224662384 0 1 1
2457 1 3.0669702269373746 10.213580537622226 8.102205403041376 0 1 0
1407 1 4.784622701616337 8.18719344067454 9.447686675690704 0 0 0
2415 1 3.56448994211435 2.842851628042999 11.423560263685543 -1 0 0
1801 1 10.787292876223086 4.773042962583139 12.762589914480152 -1 0 1
1950 1 13.629917801064263 7.455164508477234 10.773248027884032 -1 2 -1
4063 1 12.466309576554615 5.2203926275325205 9.712244364380847 0 0 0
2885 1 7.264551513679208 9.461283777931229 8.853766870175559 0 0 0
2598 1 5.487691412019267 12.820389714162143 9.42791764561882 0 1 0
648 1 9.50703326210902 8.095518161049345 9.610465222803278 0 -1 0
4197 1 14.71996195979564 9.544974177868243 8.604787522296164 1 0 0
1365 1 14.60926643840991 6.12277113571508 13.545594300983721 -1 -1 -1
3854 1 1.2677900131676119 0.15101471859675003 18.72051795483204 1 0 1
3181 1 9.779692358179636 12.844546359106003 9.686131880579104 0 0 0
2928 1 12.484060421005251 11.22599620082412 10.10344688685 1 1 1
1159 1 11.54154776716343 9.090611997305793 11.324553098471291 -1 0 0
833 1 13.759303922367378 12.06969846562237 7.089134911887697 0 -1 0
918 1 0.2487039171067043 12.304887473369224 10.35627416204159 0 1 1
2231 1 2.14004609277774 14.973400408022274 14.674767603706407 0 0 -1
4109 1 5.773192209788688 44.411886174631135 24.06746095315322 1 -1 0
1037 1 0.32271642880579376 15.846202642581233 11.732912783707057 -1 0 1
2979 1 6.5163380469233125 12.527004906795261 6.842029500838623 0 0 0
3277 1 11.70969864365604 13.913945296951258 7.284214860322813 1 0 0
4056 1 12.501359398958526 14.237322946247888 11.807044965165963 1 0 1
3602 1 12.022397053423036 15.809783816185433 9.460841155321955 0 0 1
4317 1 0.8785098900062611 19.70367512506991 8.590815310936707 1 1 1
548 1 8.027790606153498 15.447485756387568 10.027275786505449 -1 -1 1
3477 1 8.919339525185382 14.137186896374066 6.532863223541307 1 -1 0
219 1 11.492845477591612 18.47983309893119 13.966922643785812 0 1 0
2566 1 9.032016083757735 20.703108716500342 10.199221791966458 0 -1 0
1874 1 13.858502223624962 18.053334485169596 8.858864206132518 1 0 0
794 1 0.6481072669782214 21.9721946559392 13.468857978727137 0 0 0
3618 1 12.847160048904358 7.2001579512023675 -0.0769952302512526 1 1 0
3073 1 3.620698808740371 18.247559057448147 8.456023414660358 1 1 0
3636 1 10.557323696445382 22.985106843617576 11.487154289103772 -1 0 -1
777 1 13.476082873991913 24.015791483367067 11.808863966276732 0 0 0
1883 1 15.176793625482771 21.76422540747354 12.848424560294173 1 0 -1
1978 1 6.791154696157197 24.322677370415636 12.222402127531012 1 1 0
3273 1 11.202064200931508 25.86837875617146 11.34165217948701 1 0 1
3990 1 15.672442697229723 25.978168177397723 11.85769275527759 1 0 0
742 1 17.179054229045587 27.8761509995898 5.926232140829013 0 1 0
281 1 10.807911902601962 45.978876428434646 25.058835559028694 0 0 -1
990 1 3.0118733403421194 27.447027805811253 10.146236620648994 0 0 1
3105 1 5.673003290961542 26.517901712556927 10.560719126938531 1 -1 0
922 1 10.290909375938135 28.480648176569865 9.918065346217995 0 1 1
4057 1 7.556143071732191 28.862087257936928 9.436971939536482 0 1 1
1428 1 15.597838461960874 19.86179462688013 5.223937936069087 0 1 0
2548 1 17.0111991634867 29.24595417555464 8.60261228529291 0 0 0
4556 1 1.088310503273125 7.345151372325843 21.490271514746922 1 1 0
4243 1 3.6373199524904174 30.04864799475225 10.444401835415634 1 0 0
1398 1 12.977822419394746 29.569288668104637 12.803374827925685 0 0 0
4577 1 14.288651451659984 27.824894126723812 5.37643794726486 0 -1 0
3050 1 1.1528588322138382 31.061686826271323 10.763685386941786 0 -1 -1
2265 1 6.173303198747388 32.487864009047286 9.19105768917041 0 0 0
3776 1 9.313743850534658 32.08975708882318 12.18938673837145 0 0 0
1338 1 14.67790295225075 37.68809232159825 13.081470762651978 0 0 1
3681 1 11.234926150858284 1.435037988532793 24.896039232265686 0 1 -1
1103 1 13.250605559008065 48.622002771181 0.014853575178718548 -1 -1 1
798 1 16.238247302408208 46.34820442014279 24.715349305050957 -1 1 0
1654 1 4.541597367423046 34.78369594099232 8.82645618367652 0 0 0
4514 1 5.995596058806366 37.1897283234085 9.444779676525311 1 0 0
582 1 11.625607389041578 40.07280265825277 12.141573374452463 0 1 1
493 1 10.487200247186443 37.35048625987919 8.819240941700397 0 -1 1
3233 1 12.382492920801555 32.99819265934164 14.304134573659272 0 0 0
19 1 17.221794953844228 21.20163587723087 7.394063445420505 0 2 0
3310 1 3.832194721157393 37.97550721817592 11.570984306030775 1 0 1
470 1 6.495633471967397 40.74724228561905 9.207445589855402 0 -1 0
1356 1 14.204526928637083 40.983400044772296 11.86177205264494 0 0 1
3819 1 15.739804981708273 46.035106946634 18.31830029321222 1 1 1
2526 1 0.023472685030872686 31.229031491235737 17.15152202839316 1 0 1
2007 1 7.791046449489842 48.90584377207195 13.092123830155144 0 0 -1
1061 1 3.301642932606922 41.64194433615934 11.306540402271342 1 0 2
99 1 4.144140661525665 44.42509991904625 10.365473211198548 -1 0 -1
1604 1 6.8663186132425444 43.36719458015597 10.486199262573724 0 -1 0
1623 1 15.07226083478308 40.88728476181278 7.994317573648813 0 -1 0
243 1 15.407694808974123 43.53762698404428 11.945857620933356 -1 0 -1
3465 1 3.6401375297306275 47.55970522360042 13.110435292646386 0 -1 0
398 1 10.123154253974223 45.66254562855666 13.765531815641635 0 -1 0
1018 1 4.032124861139846 48.98888259948039 9.783463116900839 1 0 0
574 1 15.125181878699578 46.829033354545714 10.403063489788519 1 -1 0
1628 1 13.684973998037185 43.284592738041596 9.794438397614192 0 0 -1
485 1 14.909119772786447 44.940225205408254 14.606641286172025 0 -2 -1
4438 1 9.566941975384374 43.2035292860284 23.546559150219945 1 0 0
1381 1 7.936553249796754 51.12443796711806 0.8891584672360904 0 0 1
1739 1 5.628974967474849 2.7071309533531926 8.98619919918672 1 0 -1
2870 1 11.614255059018507 47.5925427163331 12.335395475187308 1 -1 0
2206 1 16.180632637083075 49.10774581622286 8.629556727981797 1 -2 0
252 1 11.53023287373234 24.711405212210963 24.482313208035286 1 0 1
2419 1 15.70880264264504 9.972487108851235 16.175162506528658 0 -1 0
3047 1 8.523751515849055 5.482742655521922 11.172439621288502 0 0 1
1508 1 6.004523275893473 1.3822427153419143 11.924924837700475 0 0 0
923 1 8.415686779793514 2.363787523761087 7.819145621702395 0 2 1
4039 1 13.428717358312754 2.9035448478317987 12.29791799372796 0 1 0
4387 1 8.681168571415286 2.4977924055035508 11.081443351847751 0 1 -1
2343 1 15.571924155960495 -0.22986286390360533 10.28119815966492 1 0 0
708 1 0.4874216932309875 34.31350744270431 10.664321719963846 1 -1 0
796 1 17.315027297472778 34.000570114894 19.70107697033717 0 0 1
1222 1 2.756713729978641 3.220506683514593 15.936616168573021 1 2 0
2050 1 16.3256791690018 0.2072816475883117 15.075831450788918 0 -1 -1
364 1 17.231050672727104 0.9602872927187023 12.318448322135493 0 1 0
2289 1 2.301109276386194 7.340612682354201 12.646585597736498 0 -1 0
899 1 9.943079010617367 5.244613088192925 16.15012940616551 0 0 0
202 1 3.217330215870877 4.531358956591862 13.432726476569089 0 0 -1
4290 1 14.625598893678063 2.507153477783476 14.550428445029798 0 2 1
4368 1 11.167015527475671 35.165375622848074 1.474272189701465 1 -1 1
1813 1 4.345000368588372 8.89503821133319 12.285644311883763 1 0 0
452 1 5.138309540101308 9.78471103848838 14.739188089383832 0 -1 0
3584 1 7.537862916061179 11.383360676679345 10.925901471587437 0 0 0
1090 1 9.47373709549555 10.783489730565698 13.703769418695787 0 0 0
2993 1 12.055633719745762 7.331225338287993 13.792781779121594 0 0 1
2273 1 6.815141198600023 23.066084970795263 0.3633853007319967 1 0 0
877 1 9.555323330877789 40.482848329242 24.612462927762248 0 0 1
1256 1 6.340344956636765 12.595614954337357 12.992670551754214 1 1 1
3509 1 4.179568308543034 14.20101808100209 12.39564636128069 1 0 0
2472 1 8.341671219149385 14.2667796986269 14.407320228613269 1 0 0
2525 1 13.257077890509693 9.686403917863014 14.681350275734733 0 1 1
1812 1 12.167927919344514 12.399072797066761 13.89400537735865 1 -1 -1
457 1 14.552834850921975 13.188850551263739 10.002097726432394 1 0 -1
4311 1 0.6965886415167019 19.459868533909088 17.370578135849144 0 -1 1
1841 1 7.208813084012347 16.72248064956613 15.643038530752074 0 0 0
2345 1 9.562208686530928 14.909054695934127 12.245054674947335 1 1 0
1624 1 13.370839792316703 16.298328315524575 13.503237499112155 0 1 1
4484 1 16.847870403059698 13.9948586629766 13.426674974888003 1 -1 1
129 1 9.371309613996177 26.85403352030386 0.5213817710796712 0 0 0
483 1 4.480471895258773 17.163610376514445 12.210945175432162 -1 2 0
598 1 9.512335940865382 17.81628666567611 11.882043267100544 0 0 1
649 1 13.622143821402926 18.977932185280352 16.124155363522103 0 0 0
2435 1 14.366741378168191 21.94834063017504 16.263846057010916 0 1 1
2485 1 0.4927569168355027 22.093409440214398 -0.18543161953495574 1 0 1
4471 1 12.94688510036305 20.14339848513842 12.175508899079812 1 1 1
3635 1 0.9791659773581931 24.436215342885703 14.894236105850219 1 0 1
2822 1 6.998905266119922 18.505456314215838 12.894240747466151 0 0 1
4005 1 7.9760171875598544 23.485827289769002 9.819390860051035 1 0 1
3440 1 10.544995053183426 21.44216816400589 13.692085657075483 0 1 -1
930 1 17.54992594566347 4.401701278849979 13.903446393575766 0 0 0
3293 1 3.561621176687115 21.46744937195394 13.230325377764332 0 0 0
875 1 9.233017106966647 25.75428913852307 13.266405602642969 -1 -1 0
1265 1 14.664732646954377 27.225148195994617 15.441642370348829 0 0 -1
1830 1 16.996586405932845 26.303603448354643 16.59319276751581 1 -1 1
3823 1 2.6499345597153825 20.861916556667126 1.3396827456436544 1 -1 0
2954 1 16.528168502367688 32.14957145698102 21.861140741960607 0 0 -1
2736 1 6.900514646899867 28.585337072901883 16.419776976128112 0 0 0
329 1 8.1889033826564 29.789042614893695 14.147449724407752 0 -2 0
110 1 11.624958046737667 27.15521910613812 16.36764650658421 -1 0 0
1140 1 15.706410617893011 31.08145699610852 16.337022847065253 0 0 0
4047 1 7.821711809543574 27.594058145880457 24.725604426543406 1 0 0
1130 1 1.5689994123261806 31.650268113718894 14.386859416306255 0 0 1
3017 1 10.39621346000647 28.29212895626811 13.703544711578083 0 0 1
2049 1 7.188877051866836 33.17692343869297 17.00776658518658 -1 0 0