
# Set production fixes - Nose/Hoover
#
fix                 2 all nph iso ${PRES} ${PRES} ${PCOUPL}
fix                 2 all nph iso -1000 ${PRES} ${PCOUPL}
fix                 2 all nph iso -1000 -1000 ${PCOUPL}
fix                 2 all nph iso -1000 -1000 10000.0
fix                 3 all temp/csvr ${TEMP} ${TEMP} ${TCOUPL} 837492
fix                 3 all temp/csvr 293 ${TEMP} ${TCOUPL} 837492
fix                 3 all temp/csvr 293 293 ${TCOUPL} 837492
fix                 3 all temp/csvr 293 293 5000.0 837492

# Define Order parameter
#
compute             2 all orientorder/atom nnn NULL cutoff 3.5
thermo              200
thermo_style        custom step temp press vol etotal ke pe c_1[4]

# Run 1ns simulation
dump		    1 all custom 400 prod.${NAME}.dump id type x y z vx vy vz c_2[*]
dump		    1 all custom 400 prod.ice_293K_-1000atm_ML.dump id type x y z vx vy vz c_2[*]
run                 200000
Neighbor list info ...
  update every 1 steps, delay 0 steps, check yes
  max neighbors/atom: 2000, page size: 100000
  master list distance cutoff = 6.0032907
  ghost atom cutoff = 6.0032907
  binsize = 3.0016454, bins = 20 18 18
  2 neighbor lists, perpetual/occasional/extra = 1 1 0
  (1) pair sw, perpetual
      attributes: full, newton on
      pair build: full/bin/atomonly
      stencil: full/bin/3d
      bin: standard
  (2) compute orientorder/atom, occasional, copy from (1)
      attributes: full, newton on
      pair build: copy
      stencil: none
      bin: none
Per MPI rank memory allocation (min/avg/max) = 5.822 | 5.822 | 5.822 Mbytes
Step Temp Press Volume TotEng KinEng PotEng c_1[4] 
       0     294.8593   -1008.6052     149944.6   -47476.306    4049.1825   -51525.489   0.15808983 
     200    290.61509    -1015.672    149950.21    -47465.73    3990.8985   -51456.628   0.15774864 
     400    290.59902   -1019.2344    149984.13   -47459.198    3990.6778   -51449.875   0.16184624 
     600    291.79394   -1014.6386    149958.09   -47497.716    4007.0871   -51504.803    0.1610811 
     800    292.13696   -917.02982    149888.35   -47514.104    4011.7977   -51525.902    0.1510996 
    1000    289.59402   -997.62419    149923.15   -47526.519    3976.8764   -51503.395   0.15580734 
    1200    289.58041   -1035.7456    149986.83    -47550.77    3976.6897    -51527.46   0.16310575 
    1400    287.40282   -1046.1136     149932.6   -47542.272    3946.7857   -51489.058   0.16597369 
    1600    286.71094   -923.62776    149849.84   -47546.323    3937.2843   -51483.607   0.15222765 
    1800    287.37604   -1004.5109    149943.85   -47550.473    3946.4179   -51496.891   0.15110738 
    2000    290.94566   -1049.9875    150011.01   -47504.069     3995.438   -51499.507   0.16002863 
    2200    297.73189   -994.60858    149899.13   -47475.047    4088.6306   -51563.678   0.15951981 
    2400    291.61448   -941.44606       149879   -47492.367    4004.6226    -51496.99   0.15422262 
    2600    286.83188   -1080.9511    150002.91   -47535.362    3938.9452   -51474.307   0.16330411 
    2800     287.1002    -1031.618    149962.18   -47552.612    3942.6299   -51495.242    0.1601499 
    3000    288.76136   -934.61555    149805.61   -47566.859     3965.442   -51532.301   0.15173983 
    3200     294.5446   -907.45731    149816.75   -47512.222    4044.8608   -51557.083   0.15656769 
    3400    285.56619   -1080.7992    149993.74    -47548.32     3921.564   -51469.884   0.16964496 
    3600    285.40546   -1073.0433    149946.34   -47577.648    3919.3567   -51497.005   0.16333079 
    3800    290.39515   -901.13952    149730.37   -47506.629     3987.878   -51494.507   0.15256027 
    4000    287.73533   -974.95753     149882.5   -47498.228    3951.3519    -51449.58   0.15957659 
    4200    290.92585   -1180.0526    150123.21   -47511.039    3995.1659   -51506.205   0.16961662 
    4400    291.11728   -1042.8595    149907.77   -47500.397    3997.7948   -51498.192   0.16359598 
    4600    296.65681   -806.41334    149643.13    -47483.65    4073.8669   -51557.517   0.15242028 
    4800    293.48721   -989.73994    149928.34   -47469.649      4030.34   -51499.989   0.16101705 
    5000    299.47361    -1189.921    150195.04   -47444.703    4112.5488   -51557.252   0.16370111 
    5200    292.70741   -977.94284    149860.51   -47451.669    4019.6315   -51471.301   0.16019082 
    5400    296.68524   -765.28072    149654.73   -47414.007    4074.2573   -51488.264   0.15558101 
    5600     296.3419   -1082.7731     150062.4   -47393.639    4069.5424   -51463.181   0.16542457 
    5800    297.37356   -1209.7766     150231.7   -47379.728    4083.7097   -51463.437   0.16209236 
    6000    298.37187   -838.91071    149767.35   -47371.802    4097.4192   -51469.221   0.15537446 
    6200    296.87832   -775.60185    149657.48   -47367.247    4076.9089   -51444.156    0.1633088 
    6400      302.072   -1117.7234       150173   -47328.497    4148.2316   -51476.729   0.16232736 
    6600    293.75763   -1210.5148    150241.35   -47366.515    4034.0537   -51400.569   0.16168345 
    6800    291.96321    -815.6688    149712.94   -47414.261    4009.4116   -51423.673   0.15435578 
    7000    295.15779   -785.25958    149687.72   -47419.376    4053.2815   -51472.657   0.15859862 
    7200    296.23199   -1194.9775    150238.61    -47358.93    4068.0331   -51426.963   0.17042539 
    7400    292.90914    -1182.377    150181.93   -47343.495    4022.4017   -51365.896   0.16728923 
    7600     298.7327   -765.53683    149624.86   -47386.457    4102.3743   -51488.831   0.15227879 
    7800    297.02885   -869.87374    149732.37   -47414.568     4078.976   -51493.544    0.1619632 
    8000     293.7903   -1263.5015    150292.88    -47371.79    4034.5023   -51406.292   0.17588122 
    8200    298.98491    -1124.957    150135.01   -47410.565    4105.8378   -51516.403   0.16317133 
    8400    296.71087   -747.38071    149593.62   -47443.828    4074.6093   -51518.437   0.15679893 
    8600    291.74511   -855.81681    149785.98    -47398.56    4006.4165   -51404.976   0.15932791 
    8800    294.71346   -1277.3237    150301.33   -47319.595    4047.1796   -51366.775   0.17504287 
    9000    298.53281   -1064.8088    150017.59   -47301.791    4099.6292    -51401.42   0.16190924 
    9200     293.6789   -723.06243    149516.92    -47292.52    4032.9725   -51325.493   0.16801489 
    9400     294.3713    -967.9211    149858.26   -47338.847    4042.4809   -51381.328   0.17038091 
    9600    291.19582   -1260.1233    150299.38   -47319.255    3998.8733   -51318.128   0.16507325 
    9800    294.42298     -984.739    149905.19   -47342.588    4043.1906   -51385.779   0.16262257 
   10000    301.26336   -742.43139     149574.5   -47344.076    4137.1268   -51481.202    0.1652545 
   10200    296.64812   -1072.9366    150017.27   -47331.064    4073.7475   -51404.811   0.16870784 
   10400    299.11373   -1245.7737    150279.32   -47313.263    4107.6068    -51420.87    0.1590942 
   10600    297.37363   -930.66825    149812.97   -47302.523    4083.7107   -51386.234   0.16150956 
   10800    300.96851   -720.21284    149575.34   -47338.711    4133.0777   -51471.789   0.16684167 
   11000    296.77555   -1065.6331     150029.2    -47375.68    4075.4975   -51451.177   0.16725891 
   11200    295.95903   -1245.1627    150208.23    -47388.75    4064.2846   -51453.035   0.15818847 
   11400    294.25246   -900.29984    149763.29   -47422.335     4040.849   -51463.184   0.16349542 
   11600    294.79071   -847.52558    149678.02   -47395.435    4048.2405   -51443.676   0.17170112 
   11800    292.68193   -1149.9779    150059.49   -47463.717    4019.2815   -51482.999   0.16675803 
   12000    297.59375   -1106.9513     150043.2    -47464.24    4086.7336   -51550.973   0.16003242 
   12200    292.41064   -894.16282    149727.85   -47446.344     4015.556     -51461.9   0.16336268 
   12400    296.28529    -915.5154     149781.4   -47414.542     4068.765   -51483.307   0.16400357 
   12600    293.28942   -1100.8591    150069.97   -47421.145     4027.624   -51448.769   0.16154369 
   12800    292.93273    -1068.918    149999.28   -47432.076    4022.7256   -51454.802   0.16782498 
   13000    299.21687   -907.90978    149740.95   -47417.395    4109.0232   -51526.418   0.16709695 
   13200    295.86122   -927.55652    149807.87   -47386.957    4062.9414   -51449.899   0.15768767 
   13400    292.38735   -1096.8173    150044.65   -47402.375    4015.2362   -51417.611   0.16279716 
   13600    298.72169    -1051.944    149973.44   -47394.195    4102.2231   -51496.418   0.17169835 
   13800    293.78226   -909.33544    149780.57   -47391.384    4034.3919   -51425.776   0.17138964 
   14000     297.5722   -977.62104    149904.75   -47411.842    4086.4375   -51498.279   0.15608441 
   14200    294.26247   -1062.4033     150071.2   -47435.177    4040.9864   -51476.164   0.15848514 
   14400    287.55283   -1010.1885    149939.01   -47461.213    3948.8457   -51410.059   0.16466347 
   14600    292.65245   -894.05991    149785.06   -47461.268    4018.8766   -51480.144   0.16062721 
   14800    294.96677    -964.3761    149922.63   -47442.492    4050.6583    -51493.15   0.15671447 
   15000    289.76851   -1132.9099    150055.47   -47493.253    3979.2727   -51472.525   0.16335818 
   15200    290.63457   -1036.7949    149884.37   -47550.451     3991.166   -51541.617   0.16116072 
   15400    286.08706   -907.55937    149764.23   -47567.732    3928.7169   -51496.449   0.15403531 
   15600     290.1559   -1041.0018    149909.48   -47603.389    3984.5925   -51587.981      0.15554 
   15800    285.00008   -1111.2235    149992.48   -47552.541    3913.7897   -51466.331    0.1648426 
   16000    289.29274   -1009.3191    149834.21    -47541.72    3972.7391   -51514.459   0.16598564 
   16200     291.0206   -906.39174    149770.18   -47489.705    3996.4671   -51486.172   0.15830423 
   16400    296.02622   -1060.3577    149998.81   -47483.726    4065.2072   -51548.933   0.15848818 
   16600    293.77222   -1107.3531    150057.41   -47500.041     4034.254   -51534.295   0.16364394 
   16800    294.04845   -881.05532    149765.68   -47457.539    4038.0473   -51495.586   0.15770981 
   17000    297.59682   -883.51633    149759.56   -47481.808    4086.7757   -51568.584   0.15019206 
   17200    292.94051   -1083.6089    150078.36   -47458.997    4022.8324    -51481.83   0.15653896 
   17400    288.75358   -1132.4998    150084.39   -47504.548    3965.3351   -51469.883   0.16962353 
   17600    290.42694   -876.01514    149730.81   -47548.584    3988.3146   -51536.899   0.15398907 
   17800     288.9127    -879.4409    149762.27   -47567.079    3967.5202   -51534.599    0.1497885 
   18000    289.78336   -1208.4186    150112.88   -47595.988    3979.4766   -51575.465   0.16442726 
   18200    290.43754    -1062.499    150016.06   -47623.142    3988.4602   -51611.602   0.16079882 
   18400    289.89611    -755.1008    149650.87   -47649.172     3981.025   -51630.197   0.14518605 
   18600    288.69299   -913.17096    149827.81   -47603.739     3964.503   -51568.242   0.14655145 
   18800    290.80038   -1213.3744    150265.66    -47532.11    3993.4429   -51525.553   0.16028114 
   19000    290.28385   -1038.7345    150072.34   -47563.794    3986.3497   -51550.143   0.15438547 
   19200    292.56373   -713.65177    149612.14   -47543.774    4017.6583   -51561.433   0.14298609 
   19400    294.98753   -944.42935    149910.87   -47531.013    4050.9434   -51581.957   0.15131875 
   19600    292.65858   -1303.9471    150400.56   -47551.693    4018.9608   -51570.653   0.16116271 
   19800    291.48057   -953.04115    149926.28   -47556.191    4002.7837   -51558.975    0.1494833 
   20000    290.96048   -616.94023    149420.55   -47552.253    3995.6416   -51547.894   0.14560929 
   20200    287.99669   -1098.1373    150042.05   -47572.031     3954.941   -51526.972   0.15921988 
   20400    290.25283   -1416.0938     150489.1   -47541.629    3985.9237   -51527.552   0.16782668 
   20600    288.60699   -865.19177    149720.61   -47549.086    3963.3221   -51512.408   0.14876869 
   20800     292.4801   -536.73968    149323.97   -47556.673    4016.5098   -51573.183   0.14339499 
   21000     286.8314   -1238.4828    150225.55   -47539.568    3938.9386   -51478.506   0.15874643 
   21200    291.88447   -1420.0069    150498.61   -47522.869    4008.3303   -51531.199   0.15881108 
   21400    292.14237   -714.70166    149570.25   -47532.693    4011.8719   -51544.565   0.14663982 
   21600    291.56273   -676.31803    149471.74   -47491.537    4003.9119   -51495.449   0.14919002 
   21800     294.0031   -1275.1267    150361.11   -47429.038    4037.4246   -51466.463   0.15668355 
   22000    296.04629   -1271.9202    150367.31   -47433.766    4065.4828   -51499.248    0.1587607 
   22200    298.13963   -727.05123    149606.39    -47403.34    4094.2299    -51497.57   0.14851352 
   22400    295.80436   -771.94286    149712.67   -47380.179    4062.1605    -51442.34   0.15287511 
   22600    295.93724   -1266.4923    150382.85   -47376.995    4063.9853   -51440.981   0.15821907 
   22800    293.31366    -1100.228     150202.6   -47416.202    4027.9568   -51444.159    0.1524673 
   23000    292.68967   -741.66786    149604.09   -47442.805    4019.3878   -51462.193   0.14640889 
   23200      296.701    -858.8517       149807   -47435.416    4074.4737   -51509.889   0.14713324 
   23400    295.65516   -1228.3475    150318.42   -47436.415    4060.1117   -51496.526   0.15953808 
   23600    294.33833    -1079.976     150070.3   -47456.684    4042.0282   -51498.712   0.14945475 
   23800    298.25222   -741.93972    149667.24   -47400.887     4095.776   -51496.663   0.14505987 
   24000    296.52805    -992.0362    149919.95   -47436.566    4072.0987   -51508.665   0.15702485 
   24200     294.6529   -1182.0535     150210.2   -47414.456     4046.348   -51460.804   0.15829781 
   24400    295.15693   -1001.9582    149976.46   -47423.927    4053.2697   -51477.196   0.15156237 
   24600      294.208   -895.17523    149758.31   -47426.795    4040.2384   -51467.033   0.15729546 
   24800    294.75001   -989.46128    149962.55   -47346.462    4047.6816   -51394.144   0.16601957 
   25000    298.30011   -1127.1764    150193.12   -47341.373    4096.4337   -51437.807    0.1506005 
   25200    289.36777   -1057.6485    150018.49   -47368.329    3973.7695   -51342.098   0.15218392 
   25400     292.4172    -873.2981    149807.19   -47435.616    4015.6461   -51451.263   0.15560186 
   25600    292.25261   -998.48092    149970.28   -47455.392    4013.3858   -51468.778   0.15722289 
   25800    299.24463   -1099.8247    150128.78   -47430.853    4109.4044   -51540.258   0.14738908 
   26000    295.23986   -966.47764    149919.69   -47411.042    4054.4085   -51465.451   0.14988719 
   26200    297.59919   -863.47509    149759.22   -47460.892    4086.8082     -51547.7   0.15332439 
   26400    286.49884   -1065.2724    149947.71   -47481.342    3934.3717   -51415.714   0.15395385 
   26600    292.50868   -1143.3498    150084.77    -47488.16    4016.9023   -51505.063    0.1553856 
   26800     292.5673   -976.48867    149877.37   -47495.863    4017.7073   -51513.571   0.15853419 
   27000    291.79427   -878.54789    149750.35   -47498.149    4007.0916    -51505.24   0.15415908 
   27200    291.10774   -1063.2655    150007.14   -47488.333    3997.6638   -51485.997   0.14574581 
   27400     293.8648    -1079.794    150099.14   -47451.116    4035.5254   -51486.642   0.14975353 
   27600    297.58767   -933.04248    149830.34   -47460.198    4086.6501   -51546.848   0.15379469 
   27800    292.07675   -899.54237    149787.99   -47457.187    4010.9708   -51468.158   0.15692624 
   28000    294.29145   -1109.2132    150100.96   -47440.722    4041.3843   -51482.106   0.15416278 
   28200    292.12029   -1097.6472    150066.08   -47458.283    4011.5687   -51469.852   0.15529033 
   28400    293.06336   -791.24675    149687.06   -47459.536    4024.5195   -51484.055   0.15280664 
   28600    288.74707   -970.97301    149814.44   -47479.883    3965.2457   -51445.129   0.15783539 
   28800    294.50979   -1223.1906    150191.69   -47485.377    4044.3827    -51529.76    0.1627615 
   29000     291.9624   -1009.0654    149943.96   -47525.012    4009.4005   -51534.412   0.15180676 
   29200    289.74482    -731.9095    149545.56   -47566.204    3978.9474   -51545.151   0.15673471 
   29400    289.90095   -990.72096    149879.72   -47562.708    3981.0914   -51543.799    0.1569607 
   29600    288.59113   -1266.3718    150304.17   -47515.757    3963.1042   -51478.861   0.15260645 
   29800    296.43203   -1004.6119    149925.97   -47443.907    4070.7801   -51514.688   0.15439135 
   30000     292.1455   -696.24992    149555.82   -47439.547    4011.9149   -51451.462   0.15931622 
   30200    295.59707    -1077.787    150065.79   -47442.658    4059.3139   -51501.972   0.15938016 
   30400    291.59701   -1375.3396    150456.52   -47486.901    4004.3827   -51491.283   0.16041426 
   30600    298.22702   -829.64413    149728.65   -47445.483      4095.43   -51540.913   0.15480968 
   30800     301.6003   -545.35197    149363.44   -47418.583    4141.7539   -51560.337   0.15112421 
   31000    296.18082   -1275.4508    150332.28   -47393.126    4067.3304   -51460.456   0.16066705 
   31200    293.68537   -1479.5436    150653.21   -47387.373    4033.0614   -51420.434   0.17031631 
   31400     294.1393   -645.90359    149520.11    -47402.16    4039.2949   -51441.455   0.15945139 
   31600    287.99066   -551.49822    149294.82   -47467.889    3954.8582   -51422.747   0.14997873 
   31800    289.17575   -1376.6549     150465.2   -47423.079    3971.1325   -51394.211   0.15578196 
   32000    290.93348   -1429.4814    150506.56   -47389.873    3995.2708   -51385.144   0.17137129 
   32200     298.9092   -594.75275    149379.38   -47442.722     4104.798    -51547.52   0.15707239 
   32400    293.29255   -676.03413    149487.12   -47436.006    4027.6669   -51463.673   0.15228584 
   32600    295.32021   -1337.5348    150414.99   -47409.025     4055.512   -51464.537   0.15817794 
   32800    297.92513   -1233.7348    150257.24   -47406.528    4091.2842   -51497.812   0.16475326 
   33000    294.05145   -733.85529    149602.63   -47405.149    4038.0886   -51443.238   0.15435328 
   33200    296.26737   -889.31963    149775.31   -47398.345    4068.5189   -51466.864   0.15718032 
   33400    294.36771   -1185.3444    150218.93   -47351.198    4042.4317    -51393.63   0.16500301 
   33600    295.49009    -1063.482    150069.88   -47285.663    4057.8448   -51343.508   0.16592753 
   33800    291.77729    -868.6721    149784.58   -47326.013    4006.8585   -51332.871   0.15993184 
   34000    295.40529   -965.15596    149927.02   -47346.979    4056.6803   -51403.659    0.1595323 
   34200    296.27506   -1092.0507    150124.51   -47375.096    4068.6245    -51443.72   0.16917161 
   34400    296.35002    -1008.669    149971.94    -47444.13    4069.6539   -51513.783   0.15666688 
   34600    295.04954   -883.92372    149789.03   -47420.614    4051.7949   -51472.409   0.15163494 
   34800    292.66148   -1029.5806    149954.62    -47459.98    4019.0007   -51478.981   0.16184692 
   35000    290.99742   -1103.5558    150084.24   -47482.289    3996.1489   -51478.438   0.16458897 
   35200    294.75031   -955.35736     149885.6   -47473.104    4047.6857    -51520.79   0.15471108 
   35400    292.09405   -905.29216    149766.19   -47435.909    4011.2084   -51447.118   0.15553601 
   35600    291.81156   -1037.4971    149970.99   -47426.732    4007.3291   -51434.061   0.15676137 
   35800    291.11886   -1123.5927    150095.59   -47424.705    3997.8165   -51422.522   0.16630111 
   36000    293.66637   -982.91917    149898.17   -47429.845    4032.8004   -51462.646   0.16311696 
   36200    295.79959   -859.57026    149792.36   -47446.277    4062.0951   -51508.372   0.15133749 
   36400    291.09457   -1040.4445    149976.37   -47471.429     3997.483   -51468.912   0.16092963 
   36600    293.19302   -1089.7089    150085.19   -47443.904    4026.3001   -51470.204    0.1614782 
   36800    287.80643   -997.52226    149861.78   -47491.361    3952.3282   -51443.689   0.16706579 
   37000    289.36532   -921.32934    149730.54   -47482.144    3973.7359    -51455.88    0.1603846 
   37200    295.19785    -995.0786    149992.15   -47439.007    4053.8316   -51492.839   0.15520982 
   37400    296.19664   -1145.2966    150138.38    -47429.03    4067.5475   -51496.577   0.16287455 
   37600    291.50002    -906.4272    149807.91   -47460.751    4003.0508   -51463.802   0.15612499 
   37800    296.54055   -817.52117    149665.07   -47426.959    4072.2704   -51499.229   0.16055138 
   38000    294.07226   -1097.9579    150010.72   -47476.296    4038.3743    -51514.67   0.16344613 
   38200    291.66334      -1180.8    150097.08    -47468.17    4005.2936   -51473.463     0.162155 
   38400    291.33206   -902.24755    149708.09   -47438.127    4000.7443   -51438.871   0.15611339 
   38600    295.19205   -825.09988    149699.55   -47436.275     4053.752   -51490.027   0.15705756 
   38800    291.28788   -1167.2895    150175.78   -47480.149    4000.1375   -51480.286   0.16763827 
   39000     286.7399   -1183.0305     150128.2    -47507.71     3937.682   -51445.392   0.16142821 
   39200    287.31615   -780.57228    149590.44   -47536.223    3945.5954   -51481.818   0.15156968 
   39400    295.07285   -832.29402    149711.63    -47527.17     4052.115   -51579.285   0.15052952 
   39600     287.3197   -1282.5837     150303.8   -47587.995    3945.6441   -51533.639   0.15817027 
   39800    288.34667    -1117.787    150057.57   -47580.179    3959.7471   -51539.926    0.1529572 
   40000    288.97206   -684.85902     149391.3   -47600.777    3968.3354   -51569.113   0.15510761 
   40200    292.57535   -868.62184    149747.32   -47571.638    4017.8179   -51589.456   0.15030845 
   40400    285.13431   -1411.3018    150421.26   -47554.378    3915.6331   -51470.011   0.16519436 
   40600    287.44201   -1076.7014    149949.37   -47590.863    3947.3238   -51538.186   0.16011517 
   40800    288.31474   -571.13859    149310.09   -47617.088    3959.3086   -51576.397   0.15095733 
   41000    288.59985   -968.27025     149883.7   -47566.803    3963.2239   -51530.027   0.15510907 
   41200    286.89762   -1422.9496    150465.34   -47590.417    3939.8479   -51530.265   0.15624763 
   41400    288.01624   -966.72841    149855.24   -47563.535    3955.2095   -51518.745   0.15508661 
   41600    284.42753   -662.27306    149376.94   -47565.343    3905.9272    -51471.27   0.15909357 
   41800    291.05075   -1069.2945    150015.47    -47557.29    3996.8812   -51554.171    0.1567728 
   42000    289.83313   -1388.7365     150427.1   -47521.449    3980.1602    -51501.61   0.15882952 
   42200    295.05345   -895.46619    149797.78   -47558.187    4051.8486   -51610.035   0.14679325 
   42400     290.0409   -724.90834     149491.7   -47614.354    3983.0134   -51597.367   0.15726595 
   42600    289.26609   -1129.8131    150044.49   -47634.233    3972.3731   -51606.606   0.15951447 
   42800    286.52942     -1246.19    150230.83   -47630.254    3934.7916   -51565.045   0.15795255 
   43000     287.1528   -854.97261    149734.42   -47591.078    3943.3522    -51534.43   0.14464969 
   43200    286.43279   -814.18964    149646.58   -47596.994    3933.4647   -51530.459    0.1562385 
   43400    285.33981   -1129.5757    150049.81   -47582.441    3918.4552   -51500.896   0.16536143 
   43600    284.87522   -1163.7961    150053.93   -47576.697    3912.0752   -51488.772   0.15909454 
   43800    288.81104   -852.48867    149707.19   -47554.713    3966.1241   -51520.837   0.15073281 
   44000    287.85491   -909.48504    149760.12   -47573.261     3952.994   -51526.255   0.15370689 
   44200    285.50181    -1157.784    150040.01    -47613.01    3920.6798    -51533.69   0.15791829 
   44400    294.47532   -1049.3821    149949.98   -47588.436    4043.9095   -51632.345   0.14828751 
   44600    287.08483   -865.75991    149711.98   -47527.098    3942.4187   -51469.517   0.15972156 
   44800     292.4175   -1002.9733    149864.86   -47491.388    4015.6501   -51507.038   0.16590059 
   45000    289.97915   -1186.9441    150103.04   -47523.912    3982.1653   -51506.077   0.16010428 
   45200    292.96176   -1001.8204    149903.26   -47547.209    4023.1243   -51570.333   0.15340394 
   45400    294.98517   -802.99797    149665.27   -47600.701     4050.911   -51651.612   0.15200315 
   45600    290.73158   -1021.7451    149871.04   -47586.225    3992.4981   -51578.723   0.15922818 
   45800    287.34371   -1143.8219    150048.71   -47556.881    3945.9739   -51502.855   0.15820108 
   46000    291.06148   -950.00247    149848.31   -47555.928    3997.0286   -51552.957     0.156119 
   46200    290.54059   -898.92043    149747.17    -47591.21    3989.8753   -51581.085   0.15682325 
   46400    290.42509   -1031.5306    149973.04   -47570.225    3988.2893   -51558.515   0.15230672 
   46600    287.70737   -1116.7013    150059.74   -47566.437    3950.9679   -51517.405   0.15375595 
   46800    292.64972   -900.56676     149811.6    -47534.74    4018.8392   -51553.579   0.15463867 
   47000    293.13049   -858.86146    149780.48   -47514.802    4025.4414   -51540.243   0.16127017 
   47200    287.80023    -1122.389    150061.36   -47481.414    3952.2431   -51433.657   0.16571129 
   47400    293.46628   -1089.9536    150070.24   -47411.151    4030.0527   -51441.204   0.15685472 
   47600    298.52409   -901.00103    149840.89   -47389.453    4099.5095   -51488.963   0.15353788 
   47800    295.12168    -878.4043    149873.65    -47357.71    4052.7855   -51410.495   0.15507718 
   48000    293.43194   -1127.5783    150149.11   -47357.216     4029.581   -51386.797   0.16456033 
   48200    297.06358   -1102.4803    150063.15   -47358.989     4079.453   -51438.442   0.15927471 
   48400    296.89011    -837.9844    149750.98   -47343.688    4077.0707   -51420.759   0.15944248 
   48600    294.84804   -932.99569     149878.3    -47407.62    4049.0278   -51456.648   0.15776002 
   48800    293.13424   -1152.0532    150213.61   -47343.523    4025.4929   -51369.016   0.15892013 
   49000    298.18511   -1073.2747    150059.81   -47323.522    4094.8545   -51418.377   0.16541039 
   49200    297.81404   -809.08796    149695.04   -47364.136    4089.7587   -51453.894   0.16622126 
   49400    293.33169   -968.11617    149896.81   -47371.784    4028.2045   -51399.989   0.16999046 
   49600    296.12154    -1269.692    150272.15   -47383.567    4066.5163   -51450.084   0.16608415 
   49800     296.2105   -1004.7029       149986   -47366.658    4067.7379   -51434.396   0.16048694 
   50000    302.40181    -713.6476    149612.02   -47373.271    4152.7606   -51526.031   0.15744023 
   50200    296.35269   -978.18319    149981.91   -47406.689    4069.6906    -51476.38   0.15767397 
   50400    293.36011   -1311.0643    150354.86   -47403.456    4028.5947   -51432.051    0.1673713 
   50600    292.41411    -931.4947    149864.83   -47432.827    4015.6036   -51448.431   0.16456902 
   50800    296.96915   -653.21208    149523.02    -47448.64    4078.1561   -51526.796    0.1530887 
   51000    299.30681    -1115.223    150129.71   -47376.648    4110.2583   -51486.906   0.15275643 
   51200    292.75892   -1384.0406    150415.24   -47400.918    4020.3387   -51421.257   0.16961955 
   51400    293.65728   -843.04172    149684.15   -47375.296    4032.6755   -51407.972   0.16889764 
   51600     297.7616   -666.44461     149523.4   -47379.442    4089.0386    -51468.48   0.15648441 
   51800     294.4051   -1248.5817    150338.17   -47363.826    4042.9451   -51406.771   0.15488905 
   52000    298.39145   -1292.4365    150404.51   -47322.424     4097.688   -51420.112   0.16168991 
   52200    297.43349   -686.50727     149562.2   -47306.054    4084.5328   -51390.587   0.15943391 
   52400    296.58122   -732.66712    149612.92   -47288.237    4072.8288   -51361.066   0.16195824 
   52600    298.68435    -1335.136       150466   -47314.667    4101.7103   -51416.377   0.17123481 
   52800    300.31431   -1209.1985    150306.57   -47336.609    4124.0939   -51460.703   0.16462671 
   53000    300.06321   -665.55675    149560.78    -47352.03    4120.6456   -51472.675   0.15267477 
   53200    295.63447   -829.95071    149800.14   -47360.115    4059.8275   -51419.942   0.15560233 
   53400    296.48258   -1289.5964    150395.47    -47379.19    4071.4742   -51450.664   0.16730373 
   53600    294.96195   -1043.8974    150080.82   -47410.409    4050.5921   -51461.001   0.16434123 
   53800    298.39284   -732.81572    149645.12   -47394.153    4097.7071    -51491.86   0.15700067 
   54000     300.5812   -940.28158    149926.06   -47382.393     4127.759   -51510.152   0.15412419 
   54200    293.68073   -1190.2043    150217.95   -47384.815    4032.9977   -51417.812   0.16303516 
   54400    294.05808   -1000.5727    149944.99   -47415.435    4038.1796   -51453.615   0.15992658 
   54600    295.65646   -792.39192    149734.62   -47413.027    4060.1295   -51473.156    0.1574368 
   54800    295.03762   -1038.4549     150028.7   -47351.996    4051.6312   -51403.627   0.15897849 
   55000    292.11908   -1138.7195    150197.99   -47349.746    4011.5521   -51361.298   0.16328912 
   55200     293.7315   -951.44874    149906.29   -47384.216    4033.6948   -51417.911    0.1607431 
   55400    301.36769   -833.05198    149768.82   -47411.504    4138.5595   -51550.064   0.14781688 
   55600    290.14681   -1099.1326    150052.04    -47443.18    3984.4677   -51427.647   0.16278874 
   55800    296.86854   -1149.9452    150086.85   -47414.925    4076.7745     -51491.7   0.16846818 
   56000    291.94573   -901.15881     149791.6   -47403.367    4009.1715   -51412.538    0.1622119 
   56200    295.40235   -930.33444    149816.95   -47438.863    4056.6399   -51495.503   0.15687962 
   56400    293.27681   -1104.2769    150080.56   -47437.046    4027.4508   -51464.497   0.15763119 
   56600    292.52447   -1064.1284    150004.33   -47441.945    4017.1192   -51459.064   0.15917579 
   56800    295.56534   -841.35896    149741.56   -47395.039    4058.8782   -51453.917   0.15338956 
   57000    291.79011   -948.31452    149853.39   -47399.804    4007.0345   -51406.838   0.16181804 
   57200    296.59668   -1137.4606    150075.54   -47427.205    4073.0411   -51500.246   0.16864642 
   57400    293.66441   -1028.1928    149929.12   -47447.665    4032.7735   -51480.438   0.16039533 
   57600    296.82548   -846.55629    149720.29   -47439.719    4076.1832   -51515.902   0.15458135 
   57800    293.91199   -1034.9292    149893.62   -47450.783    4036.1734   -51486.956   0.16390751 
   58000    294.44527   -1121.0331    150061.07   -47460.709    4043.4967   -51504.205   0.17248792 
   58200    288.47735    -1019.057    149861.15   -47502.701    3961.5418   -51464.243   0.16349173 
   58400    290.03826   -850.38576    149668.28   -47497.738    3982.9771   -51480.715   0.15136827 
   58600    294.92552   -999.60267    149901.43   -47472.703    4050.0919   -51522.795   0.15431969 
   58800    294.38225   -1156.6539    150087.63   -47501.794    4042.6313   -51544.426   0.16197277 
   59000    294.33819   -944.14496    149812.62   -47530.076    4042.0262   -51572.102   0.15314888 
   59200    290.20751   -842.26694    149641.19   -47531.919    3985.3013   -51517.221   0.15409032 
   59400    293.43936   -1058.0241    149992.55   -47469.101     4029.683   -51498.784   0.16058548 
   59600    289.66955   -1168.7359    150190.04   -47460.635    3977.9137   -51438.549   0.15942436 
   59800    292.12075   -893.56091    149814.13   -47452.142     4011.575   -51463.717   0.15348126 
   60000    291.12492   -803.01906    149677.92   -47441.782    3997.8997   -51439.682   0.15992572 
   60200    289.90817   -1147.6474    150153.35   -47407.064    3981.1905   -51388.254   0.16692776 
   60400    293.71856   -1189.8214    150224.68   -47374.845    4033.5171   -51408.362   0.15955689 
   60600    294.07772   -799.65284     149695.2   -47423.482    4038.4494   -51461.932   0.14817785 
   60800    292.11663   -819.32241    149687.48   -47362.615    4011.5185   -51374.133    0.1601389 
   61000    294.49339   -1291.5958    150291.83   -47395.449    4044.1575   -51439.606   0.16732739 
   61200    294.54397   -1185.9737    150194.69     -47400.1    4044.8522   -51444.952   0.15991324 
   61400    296.87495   -657.83555    149536.96   -47407.045    4076.8625   -51483.907   0.14974788 
   61600    291.21704   -828.21999    149762.51    -47396.98    3999.1647   -51396.145   0.16035394 
   61800    290.45044   -1416.0415    150502.03   -47385.515    3988.6373   -51374.152   0.16950643 
   62000    297.26616   -1120.4369    150121.82   -47417.384    4082.2349   -51499.619   0.15813943 
   62200    292.84299   -572.66421    149348.19   -47438.542    4021.4932   -51460.035    0.1551871 
   62400    296.82985    -877.8989    149867.62   -47394.317    4076.2432    -51470.56   0.15579749 
   62600     291.3665   -1475.7323    150636.26   -47400.282    4001.2173   -51401.499    0.1707571 
   62800    299.73005   -1023.6086    149991.97   -47387.965    4116.0705   -51504.036   0.15655533 
   63000    296.68137    -502.0925    149320.87    -47362.69    4074.2042   -51436.894   0.15163925 
   63200    298.38371    -1054.502    150041.33   -47360.258    4097.5817    -51457.84   0.15678122 
   63400    298.36583   -1394.8892    150558.68   -47305.073    4097.3362   -51402.409   0.16466132 
   63600    296.87108    -928.5365     149889.1   -47296.694    4076.8093   -51373.503   0.15906065 
   63800    296.74866   -685.49196    149541.48   -47330.708    4075.1282   -51405.836   0.15833288 
   64000    303.06494   -1056.2695    150141.15   -47317.694    4161.8671   -51479.561   0.15677223 
   64200    299.07392   -1284.3204    150333.85   -47314.889    4107.0601   -51421.949   0.15883238 
   64400      297.849   -849.71092     149823.1   -47309.285    4090.2388   -51399.524   0.15764125 
   64600    293.82025   -831.85796    149709.02   -47367.317    4034.9136   -51402.231   0.16218614 
   64800    289.63834   -1155.7388    150088.81   -47373.077    3977.4851   -51350.562   0.16627649 
   65000    298.14575   -1139.1774    150130.81   -47362.866    4094.3139   -51457.179   0.15338182 
   65200     294.0849   -941.24196    149797.55   -47393.513    4038.5479   -51432.061   0.15849554 
   65400    293.39112   -875.99106    149780.38   -47420.688    4029.0205   -51449.709   0.16136268 
   65600    293.52806   -1118.4918    150060.23   -47441.938     4030.901   -51472.839   0.15830766 
   65800    295.74007   -1073.0851    150085.24   -47414.735    4061.2777   -51476.013   0.15709678 
   66000     297.2692   -901.13298    149879.29   -47417.131    4082.2765   -51499.408    0.1568468 
   66200    293.12424   -957.03018    149875.97   -47444.212    4025.3556   -51469.568   0.16094662 
   66400    295.46774   -1096.2174    150062.54   -47437.649    4057.5379   -51495.187   0.15677887 
   66600    293.51559   -1085.4874    150043.09   -47450.367    4030.7298   -51481.097    0.1588782 
   66800    293.42415   -914.60309    149832.46   -47434.656    4029.4742    -51464.13   0.16275634 
   67000    296.59275   -915.59788    149845.17   -47464.328    4072.9872   -51537.315   0.15150665 
   67200    288.92175   -1100.5407    150049.03   -47481.771    3967.6444   -51449.416   0.15241097 
   67400    292.28456   -1068.2425    150007.53   -47516.065    4013.8246   -51529.889   0.15574788 
   67600    293.44062   -842.42974    149804.62   -47474.518    4029.7003   -51504.218   0.15644597 
   67800    291.88846   -992.45831    149909.99   -47420.247    4008.3851   -51428.632   0.16048318 
   68000    294.35617   -1129.4756     150123.9   -47412.167    4042.2732    -51454.44   0.15717841 
   68200    292.30402   -1037.9217    149973.72     -47487.8    4014.0918   -51501.892   0.15553004 
   68400    295.15809   -796.42238    149730.53   -47433.757    4053.2856   -51487.042   0.15474124 
   68600    295.78951    -988.3083    149931.25   -47416.476    4061.9566   -51478.433   0.15354377 
   68800    297.26861   -1194.8651    150153.44   -47379.852    4082.2685    -51462.12   0.15858422 
   69000    297.64738   -979.97773    149926.07   -47429.381    4087.4699   -51516.851   0.15485973 
   69200    296.63361   -827.99993    149715.52    -47437.45    4073.5483   -51510.998    0.1532435 
   69400    295.14321   -1035.4316    149976.75   -47473.171    4053.0813   -51526.253   0.15404715 
   69600    294.83403   -1126.5701    150156.07   -47482.822    4048.8354   -51531.658   0.15220395 
   69800    295.50562   -953.46123    149864.74   -47453.914    4058.0581   -51511.972   0.15896067 
   70000    293.42953   -839.62597    149751.26   -47415.539    4029.5479   -51445.087   0.15225039 
   70200    295.75247   -1120.4874    150121.71   -47393.691    4061.4479   -51455.139   0.15493054 
   70400    296.33382   -1147.5421    150211.03   -47406.143    4069.4314   -51475.575   0.16103822 
   70600    295.35625   -886.49086     149789.5   -47384.518    4056.0068   -51440.524   0.16007568 
   70800    292.00991   -816.20943    149748.56   -47410.478    4010.0529   -51420.531   0.15204847 
   71000    292.39798    -1191.108     150230.4   -47449.462    4015.3821   -51464.844   0.15759557 
   71200    294.84609   -1157.9413    150162.94   -47458.138    4049.0011   -51507.139     0.158963 
   71400    300.49542   -716.95984    149595.33   -47433.816     4126.581   -51560.397   0.15393106 
   71600      294.693   -843.24737    149773.34   -47409.141    4046.8987   -51456.039   0.15068395 
   71800    291.10426   -1398.4906    150416.94   -47419.484     3997.616     -51417.1   0.16685432 
   72000     297.0682   -1093.5274    150120.05   -47449.886    4079.5164   -51529.403   0.15671601 
   72200    287.45772   -641.41971    149443.64   -47493.779    3947.5396   -51441.318   0.15012513 
   72400    287.50413   -937.95615     149871.1   -47471.718    3948.1768   -51419.895   0.15651439 
   72600    292.71531   -1428.6092    150543.32   -47426.196    4019.7399   -51445.936   0.16249279 
   72800    292.73286   -1031.4209    149975.54   -47513.243    4019.9809   -51533.224   0.15422742 
   73000    288.32178   -534.71376    149337.46   -47517.994    3959.4054   -51477.399   0.14704116 
   73200    291.25058   -1047.2164    150005.03   -47524.354    3999.6254   -51523.979   0.14750166 
   73400    289.71066   -1436.5106    150509.46   -47509.117    3978.4783   -51487.595    0.1660281 
   73600    292.62909   -871.23418    149767.76   -47504.705    4018.5558    -51523.26    0.1521477 
   73800    291.46881   -660.74262    149439.45   -47503.584    4002.6222   -51506.206    0.1478312 
   74000     292.5711   -1186.3714    150159.04   -47542.011    4017.7595    -51559.77   0.15470774 
   74200    288.78583   -1252.4282    150300.02   -47533.169     3965.778   -51498.947   0.16065536 
   74400    286.50203   -876.16219    149700.46   -47503.675    3934.4154   -51438.091   0.15946037 
   74600    290.07159   -798.18005    149685.25   -47527.628    3983.4348   -51511.063   0.14713921 
   74800    293.84967   -1135.9053    150163.96   -47531.512    4035.3176   -51566.829   0.15735914 
   75000       294.16   -1156.9319    150135.24   -47495.094    4039.5792   -51534.673   0.16267367 
   75200    296.13416   -889.39532    149790.42   -47486.614    4066.6896   -51553.303   0.14996974 
   75400    293.56983   -931.16111    149835.51   -47473.218    4031.4746   -51504.693   0.15146318 
   75600    290.94757   -1061.8998    150067.54   -47448.262    3995.4642   -51443.726   0.15492703 
   75800    289.55568    -1066.358    150031.62   -47425.713      3976.35   -51402.063   0.15775654 
   76000    295.02818   -908.19447    149862.05   -47414.538    4051.5016   -51466.039   0.15480335 
   76200    292.98357   -997.49868    149899.86   -47440.462    4023.4237   -51463.885   0.15876309 
   76400    293.44848   -1065.3747    150012.26   -47407.983    4029.8083   -51437.792   0.15798132 
   76600    293.38665    -1030.009    149957.53   -47395.639    4028.9591   -51424.598   0.15834738 
   76800    296.83152    -932.0188    149819.31   -47396.947    4076.2662   -51473.214   0.15311623 
   77000    295.17373   -988.06151     149884.3   -47398.182    4053.5004   -51451.683    0.1645633 
   77200    295.68565   -1043.5519    150010.32   -47442.143    4060.5304   -51502.674   0.15980677 
   77400    294.63761   -973.81382    149923.72   -47432.647     4046.138   -51478.785   0.15179148 
   77600    293.02286    -944.3253    149794.47   -47451.131    4023.9633   -51475.095   0.14863806 
   77800    289.46949   -994.71416    149856.28   -47461.578    3975.1663   -51436.744   0.15504494 
   78000    288.93681   -1058.3952    149977.79   -47460.191    3967.8513   -51428.042    0.1652574 
   78200    294.72441   -1022.2867    149914.96   -47454.891      4047.33   -51502.221   0.15693386 
   78400    290.87387   -909.37906     149784.1   -47475.986    3994.4521   -51470.438   0.15121513 
   78600     291.6347    -972.6499    149839.15   -47494.809    4004.9003    -51499.71   0.15660119 
   78800    291.48059   -1030.3523    149988.71   -47477.697     4002.784   -51480.481   0.15478678 
   79000    290.79651    -1031.344    149914.43   -47461.028    3993.3898   -51454.418   0.15629216 
   79200    298.35598   -927.17294    149784.16    -47474.35    4097.2009   -51571.551   0.15468175 
   79400    294.76948   -1014.8126    149931.66   -47425.323    4047.9489   -51473.272   0.15931854 
   79600    293.47025   -1107.2991    150091.89   -47411.717    4030.1072   -51441.824    0.1533093 
   79800     290.1336   -994.77209    149941.68   -47440.385    3984.2863   -51424.672   0.15071033 
   80000     290.8756   -917.46042    149783.68   -47414.641    3994.4759   -51409.117   0.15954392 
   80200    298.57194   -1028.8225    149975.32   -47378.596    4100.1667   -51478.763   0.16067372 
   80400     297.0689   -1157.3104    150170.65    -47344.16     4079.526   -51423.686    0.1555061 
   80600    295.78702   -979.08028    149944.71   -47368.477    4061.9224   -51430.399   0.15539163 
   80800    298.70867   -799.83135    149735.02   -47313.893    4102.0442   -51415.937   0.15500888 
   81000    296.40407   -1024.0159    150014.99   -47363.685    4070.3961   -51434.081   0.15341555 
   81200    298.30521   -1188.4877    150210.48   -47339.649    4096.5038   -51436.152   0.15297181 
   81400    298.76651   -930.20428    149868.02    -47321.36    4102.8385   -51424.199   0.15411804 
   81600     300.5616   -784.81986     149722.1   -47345.124    4127.4898   -51472.614   0.15655293 
   81800    291.17229   -1099.9639     150101.4   -47344.008    3998.5502   -51342.559   0.15563217 
   82000    300.76383    -1147.373    150194.46   -47307.674     4130.267   -51437.941   0.14955004 
   82200    295.48963   -867.27932     149769.4   -47359.876    4057.8386   -51417.714    0.1501333 
   82400    297.66236   -851.90318    149761.18   -47363.204    4087.6757   -51450.879   0.15787485 
   82600    294.05745   -1239.2389     150250.7   -47400.458    4038.1709   -51438.629   0.16180756 
   82800    293.63718   -1117.7497    150177.29   -47440.721    4032.3995   -51473.121    0.1535167 
   83000     290.2769   -714.24606    149643.13    -47431.86    3986.2542   -51418.114   0.14848032 
   83200    289.64434   -941.38512    149804.54   -47452.081    3977.5675   -51429.648   0.14915073 
   83400    296.21959   -1274.6334    150310.61   -47464.065    4067.8628   -51531.928   0.15139456 
   83600    293.42834   -1058.1947    150017.56   -47484.208    4029.5316    -51513.74   0.15555852 
   83800    294.81542   -706.74223    149530.31   -47441.066    4048.5798   -51489.646   0.15351873 
   84000    290.57936   -1019.5573    149930.36   -47467.828    3990.4078   -51458.235   0.15114729 
   84200    295.50675   -1358.3816    150399.96   -47446.998    4058.0736   -51505.072   0.15213162 
   84400    292.76222   -985.84502    149911.98    -47457.45    4020.3841   -51477.834    0.1476982 
   84600    293.63441   -679.56445     149459.2   -47460.616    4032.3615   -51492.978   0.15074492 
   84800    291.62332   -1069.7618    149990.81   -47464.463     4004.744   -51469.207   0.15414253 
   85000    294.26722   -1293.8542    150367.39   -47420.448    4041.0517   -51461.499   0.15037192 
   85200    290.87187   -931.67501    149817.29   -47397.905    3994.4247   -51392.329   0.15220617 
   85400    297.73949   -711.90067    149529.57   -47388.967    4088.7349   -51477.702   0.14992657 
   85600    292.20094    -1106.061    150078.79   -47379.072    4012.6763   -51391.748   0.15358492 
   85800    293.61412   -1231.1175    150274.03   -47388.843    4032.0829   -51420.926   0.15279803 
   86000    295.99235   -851.72622    149754.41   -47349.964    4064.7422   -51414.706   0.15760458 
   86200    295.03848   -757.92673    149672.15   -47362.572     4051.643   -51414.215   0.15460034 
   86400    299.83023   -1182.7043    150209.34   -47348.532    4117.4462   -51465.978   0.15003034 
   86600    296.38138   -1140.3505    150194.85   -47345.756    4070.0845   -51415.841   0.15108026 
   86800    297.07311   -769.29688    149667.09   -47384.023    4079.5837   -51463.607   0.15332322 
   87000    294.62146   -863.60351    149765.34    -47405.95    4045.9163   -51451.866   0.15431386 
   87200    294.33755   -1221.1724    150210.79   -47368.753    4042.0175   -51410.771   0.15962713 
   87400    296.63282   -1077.1267    150058.33   -47332.581    4073.5375   -51406.119   0.16032509 
   87600    293.96073   -835.61318    149688.59   -47403.343    4036.8427   -51440.186    0.1526192 
   87800    297.64452   -925.66716    149860.22   -47408.708    4087.4307   -51496.139   0.14717819 
   88000    296.64381   -1148.4732    150171.39    -47354.75    4073.6884   -51428.438   0.15891159 
   88200    299.67743   -1059.4516    150045.56   -47369.918    4115.3479   -51485.266   0.16286873 
   88400    295.88898   -901.17753    149829.69   -47358.961    4063.3227   -51422.284   0.15447153 
   88600    294.73913    -1019.357    149958.42   -47371.739    4047.5322   -51419.271   0.15133951 
   88800     289.9877   -1100.9959    150065.57   -47359.792    3982.2827   -51342.074   0.15579899 
   89000    297.01363   -992.35747    149949.82   -47383.354     4078.767   -51462.121   0.15768353 
   89200    295.03547   -924.10178    149879.17   -47358.497    4051.6016   -51410.099   0.16275617 
   89400    300.68873   -973.61081    149988.04   -47330.233    4129.2356   -51459.468   0.15537195 
   89600    295.20959   -1066.1978    150064.61     -47350.9    4053.9928   -51404.893   0.15497222 
   89800     295.4384   -1005.5268    149957.97     -47388.9     4057.135   -51446.035   0.15211904 
   90000    294.43879   -897.21385    149850.36   -47407.165    4043.4078   -51450.573   0.15004339 
   90200    290.12577   -1035.0496    149946.82   -47451.713    3984.1789   -51435.892   0.15660587 
   90400    291.14097   -1049.8218    150001.56    -47472.02    3998.1202    -51470.14   0.15511587 
   90600    298.59031   -943.35131    149874.78   -47465.565    4100.4189   -51565.984   0.15272999 
   90800     293.9969   -931.34749    149828.98   -47490.663    4037.3395   -51528.003   0.14713939 
   91000    297.10178   -1013.1978    149963.74   -47489.723    4079.9775   -51569.701   0.14945525 
   91200    293.45407   -1059.9069    149980.63   -47501.962    4029.8849   -51531.846   0.15798518 
   91400    286.84266   -966.17384    149850.33   -47494.634    3939.0932   -51433.727    0.1582901 
   91600    290.79124   -949.34937    149873.81   -47498.443    3993.3174    -51491.76   0.15049944 
   91800    296.06201   -1018.6666    150018.24   -47473.406    4065.6987   -51539.105    0.1495182 
   92000    292.92374   -1078.4512    150005.11   -47487.479    4022.6022   -51510.081   0.15372988 
   92200    291.07909    -917.6584    149830.57   -47512.871    3997.2704   -51510.141   0.14752572 
   92400    292.95793   -964.50676    149880.46    -47491.98    4023.0717   -51515.051   0.14702053 
   92600    290.62428   -1114.5155    150054.83   -47545.724    3991.0247   -51536.749   0.15491676 
   92800    288.22958    -998.6618    149944.27   -47514.602    3958.1392   -51472.742   0.15521247 
   93000    292.97646   -901.68457    149800.99   -47444.853    4023.3262   -51468.179   0.15125724 
   93200    292.52923   -1038.2019    149977.26   -47441.389    4017.1845   -51458.573   0.15104409 
   93400    290.87138   -1140.2513       150122    -47441.87     3994.418   -51436.288   0.15863149 
   93600    292.21755   -964.06388    149862.66   -47429.215    4012.9043    -51442.12   0.15785496 
   93800    292.92659   -866.82497    149750.82   -47420.838    4022.6413   -51443.479   0.15152052 
   94000    293.66555   -1089.9565     150049.5   -47418.107    4032.7891   -51450.896    0.1574769 
   94200    290.76575   -1159.2931    150145.18   -47499.185    3992.9673   -51492.152    0.1555328 
   94400    296.69809    -887.0068    149800.89   -47489.973    4074.4337   -51564.407   0.14173797 
   94600    288.08378   -868.10304     149755.5   -47487.008     3956.137   -51443.145   0.14828744 
   94800    288.80391   -1161.5794    150114.37   -47534.295    3966.0263   -51500.322   0.15787369 
   95000    291.60505   -1115.9385    150081.54   -47540.982    4004.4931   -51545.475   0.15337327 
   95200    289.38521    -822.6493    149666.48   -47553.286    3974.0089   -51527.295   0.14473578 
   95400    291.04369   -865.60903    149773.97    -47564.43    3996.7842   -51561.214   0.14442888 
   95600    291.62304   -1218.5285    150248.92   -47519.338    4004.7402   -51524.078   0.15427565 
   95800    292.18624   -1061.8424    150085.69   -47484.182    4012.4744   -51496.657   0.15432651 
   96000     294.2706   -702.45143    149558.44   -47484.478    4041.0981   -51525.576    0.1452013 
   96200    288.47961   -912.17473    149845.13   -47524.472    3961.5728   -51486.045     0.146786 
   96400    291.20561   -1343.6291    150390.69   -47508.403    3999.0078   -51507.411   0.15179643 
   96600    291.33517   -1031.5162    149981.17   -47527.379     4000.787   -51528.166   0.15050655 
   96800    289.12231   -629.97214    149457.52   -47587.351    3970.3987    -51557.75   0.14360319 
   97000    294.09648   -994.04747    149934.24   -47565.874     4038.707   -51604.581   0.14572848 
   97200    291.30302   -1372.7186    150427.79   -47542.316    4000.3455   -51542.662   0.15585804 
   97400    290.24865   -960.19331    149854.94   -47505.233    3985.8662   -51491.099   0.14908127 
   97600     296.1832   -613.71621    149443.64   -47483.601     4067.363   -51550.964   0.14075508 
   97800    295.61875    -1119.545    150111.08   -47470.351    4059.6116   -51529.963   0.15660039 
   98000    289.94151   -1357.7352    150444.85   -47433.337    3981.6484   -51414.985   0.16243066 
   98200    295.74621   -855.52822    149742.55   -47456.221     4061.362   -51517.583    0.1499081 
   98400    298.53566   -686.10875    149515.05   -47388.306    4099.6685   -51487.974   0.14831851 
   98600    292.45828   -1212.2747    150235.48   -47425.897    4016.2101   -51442.107   0.15995905 
   98800    293.36807   -1281.5614    150338.83    -47384.98    4028.7039   -51413.684   0.16195828 
   99000    294.26441   -770.54957    149647.41   -47397.674     4041.013   -51438.687   0.14759021 
   99200    296.77267   -767.26781       149606   -47465.371     4075.458   -51540.829   0.14575998 
   99400    286.41315   -1229.1557    150190.66   -47550.023    3933.1949   -51483.218     0.160368 
   99600    288.13292   -1176.7064    150145.63   -47573.426    3956.8118   -51530.238   0.15003716 
   99800    287.97643   -786.15544    149652.51   -47552.429    3954.6628   -51507.092   0.14474932 
  100000    288.49329   -920.75324     149774.8   -47552.191    3961.7606   -51513.951   0.15362137 
  100200    293.58772   -1213.7318    150162.26    -47502.61    4031.7204   -51534.331   0.15660669 
  100400    295.06716   -1050.8189    150032.69   -47502.164    4052.0369   -51554.201   0.15032007 
  100600    295.54099   -848.29659    149804.19   -47454.207    4058.5438    -51512.75    0.1437321 
  100800    294.82045   -978.83998    149949.99   -47483.613    4048.6489   -51532.262   0.15136981 
  101000    292.65482   -1105.5483    150070.73   -47462.959    4018.9092   -51481.868   0.15256752 
  101200    288.77393   -1001.4377    149931.17   -47443.031    3965.6145   -51408.646   0.15450389 
  101400    294.47572   -954.89464    149828.99   -47452.609    4043.9149   -51496.524   0.15388543 
  101600    291.45474   -998.70846    149938.92   -47468.063     4002.429   -51470.492   0.15189847 
  101800    296.00119    -1052.527     150014.9    -47432.66    4064.8636   -51497.523   0.15093844 
  102000    294.89235   -1005.1751    149925.52   -47435.407    4049.6363   -51485.044   0.15380171 
  102200     291.5989   -948.85251    149889.27   -47427.359    4004.4088   -51431.768   0.15629712 
  102400    297.67313   -992.44446    149974.35   -47369.228    4087.8236   -51457.052   0.15841068 
  102600    295.82994     -1052.91    150005.19   -47380.238    4062.5118   -51442.749   0.15639051 
  102800    292.15554   -1004.1524    149917.92   -47392.802    4012.0529   -51404.855   0.15342159 
  103000     293.7292   -946.24684    149887.39   -47387.511    4033.6632   -51421.174    0.1486587 
  103200    295.87574   -1006.2021    149971.57   -47366.194    4063.1407   -51429.334   0.15349216 
  103400    293.68306   -1039.9798    149986.42   -47394.694    4033.0296   -51427.723   0.15854243 
  103600    294.92192   -959.99584    149893.73   -47398.385    4050.0424   -51448.427   0.14926933 
  103800    296.63692   -949.24998    149883.26   -47403.775    4073.5937   -51477.369   0.15384609 
  104000    295.14566   -1034.4932    149959.16   -47410.677    4053.1149   -51463.792   0.15686125 
  104200    293.91815   -1001.2413    149919.94   -47424.734     4036.258   -51460.992   0.15200328 
  104400    289.96226   -954.35478    149851.04   -47441.307    3981.9333   -51423.241   0.15634028 
  104600    290.71441   -1006.4359     149905.5   -47436.466    3992.2624   -51428.728   0.15780247 
  104800    296.00141   -1045.8691     149952.8   -47425.697    4064.8666   -51490.564   0.15716085 
  105000    294.67922   -1011.5002    149869.02   -47456.507    4046.7095   -51503.216   0.15168172 
  105200    287.96962   -947.84002     149805.6   -47457.299    3954.5693   -51411.869   0.15492766 
  105400    293.71946   -997.52866    149925.83   -47447.855    4033.5294   -51481.385   0.15636464 
  105600    292.80959   -1078.3362    150022.49   -47444.183    4021.0345   -51465.218   0.15145195 
  105800    290.95016   -959.33451    149883.56   -47462.745    3995.4998   -51458.245   0.15435345 
  106000    298.79457   -902.02732    149807.14   -47445.825    4103.2239   -51549.049   0.15448995 
  106200    292.69739   -1064.6108    149990.46   -47418.825    4019.4938   -51438.318   0.15817659 
  106400     292.7814   -1072.8972    150039.18   -47430.315    4020.6475   -51450.962   0.15119427 
  106600    291.99452   -942.78681    149866.34   -47435.272    4009.8416   -51445.113   0.15232329 
  106800    294.06833   -976.19257    149875.77   -47429.042    4038.3204   -51467.362    0.1545148 
  107000    295.57358   -1080.1204    150069.41   -47382.245    4058.9914   -51441.236   0.15794174 
  107200    296.66801   -1064.4899    150023.73   -47371.001    4074.0208   -51445.021   0.15239776 
  107400    294.54193    -933.6917    149790.53   -47381.548    4044.8241   -51426.372    0.1589085 
  107600    293.22632   -930.41325    149858.36   -47357.829    4026.7574   -51384.586   0.15477628 
  107800    294.51526   -1097.0396    150155.35   -47374.178    4044.4579   -51418.636    0.1580806 
  108000    294.67268   -1061.3738    150019.27   -47352.393    4046.6197   -51399.013   0.16154235 
  108200    295.92573   -777.13158    149656.08   -47392.617    4063.8273   -51456.445   0.14888838 
  108400    293.46006    -979.2175    149875.95   -47386.619    4029.9672   -51416.586   0.15432697 
  108600    301.53371   -1165.9857    150228.13    -47351.56    4140.8394   -51492.399   0.15341352 
  108800    296.38176   -1013.5433    149934.27   -47377.863    4070.0897   -51447.952   0.15830185 
  109000    291.78414     -764.256    149596.47   -47421.579    4006.9525   -51428.532   0.15577549 
  109200    289.56243   -1021.8337    149954.99   -47418.198    3976.4427    -51394.64   0.15444184 
  109400    299.16894   -1194.9988    150225.59   -47398.697    4108.3649   -51507.062   0.15578645 
  109600    293.52181   -914.67443    149829.95   -47365.147    4030.8153   -51395.962   0.15397065 
  109800    294.90584    -765.4331    149625.36   -47420.345    4049.8216   -51470.167   0.15186941 
  110000    292.89905   -1113.1457    150072.61   -47352.365    4022.2632   -51374.628   0.16053786 
  110200    298.03189      -1235.4    150266.38   -47335.652    4092.7504   -51428.402   0.15489816 
  110400    299.22022   -887.89587    149788.53   -47395.733    4109.0691   -51504.802   0.14729193 
  110600    291.48709   -755.05943    149616.83   -47471.143    4002.8733   -51474.016   0.15060648 
  110800    288.94841   -1139.9601    150107.93   -47460.489    3968.0105     -51428.5   0.15887425 
  111000    293.82099   -1251.0855    150248.95   -47460.279    4034.9237   -51495.203   0.15427426 
  111200    292.05982   -844.64202    149737.41   -47455.889    4010.7383   -51466.627   0.15009524 
  111400    293.69573   -826.34811    149672.39   -47512.159    4033.2036   -51545.363   0.15078914 
  111600    287.04998   -1206.2404    150174.42   -47557.903    3941.9403   -51499.843   0.15426333 
  111800    288.51529   -1161.7274    150157.93   -47589.898    3962.0627   -51551.961   0.14918454 
  112000    284.42658   -803.42963    149639.16   -47589.249    3905.9142   -51495.163   0.14914871 
  112200    293.76708   -810.09094    149688.35    -47549.03    4034.1834   -51583.213   0.14148657 
  112400    286.66838   -1189.5474    150231.09   -47506.968    3936.6998   -51443.668   0.15166039 
  112600    289.58555   -1141.3199    150108.27   -47484.335    3976.7601   -51461.095   0.15765012 
  112800    295.52399   -779.93424    149606.63   -47509.014    4058.3103   -51567.324   0.14839327 
  113000    296.76449    -896.4751    149793.48   -47485.096    4075.3457   -51560.441   0.14550863 
  113200    291.32377   -1204.4702    150254.85   -47512.243    4000.6305   -51512.874   0.14837667 
  113400     291.7767   -1078.4579     150015.1   -47496.459    4006.8504    -51503.31   0.15417408 
  113600    293.01252   -769.72927    149598.39   -47507.193    4023.8213   -51531.015    0.1458734 
  113800    292.03748   -980.72318    149908.31   -47485.787    4010.4316   -51496.219   0.14737805 
  114000    295.66307   -1251.5907    150294.05   -47465.331    4060.2202   -51525.552   0.15230257 
  114200    294.66114   -962.20135    149879.38   -47483.008    4046.4612   -51529.469   0.14865782 
  114400    297.52743   -660.23657    149482.92   -47429.387    4085.8228   -51515.209   0.14518509 
  114600     293.5537   -1090.1231    150037.82   -47395.933    4031.2532   -51427.186   0.16086939 
  114800    296.45614   -1379.2362    150449.04   -47372.617    4071.1112   -51443.729   0.16037541 
  115000    294.19329   -857.30296    149756.93    -47413.48    4040.0363   -51453.516   0.14848358 
  115200    295.29898   -561.81716    149374.98   -47432.783    4055.2204   -51488.004     0.144562 
  115400    292.38311   -1209.6725    150215.97   -47434.663     4015.178   -51449.841   0.15552527 
  115600    295.17296   -1454.5066     150494.1   -47410.905    4053.4897   -51464.394   0.16115105 
  115800    295.30702   -648.49644    149472.42   -47442.852    4055.3308   -51498.183   0.14384288 
  116000    290.02876    -568.8927     149328.5   -47429.361    3982.8466   -51412.208   0.15067426 
  116200    291.85084   -1443.7582    150458.74   -47432.335    4007.8685   -51440.204   0.16486094 
  116400    287.07035   -1390.3782    150418.38   -47472.123      3942.22   -51414.343   0.16199241 
  116600     298.1473   -555.25943    149298.42   -47500.988    4094.3352   -51595.323   0.14379369 
  116800    293.55172   -713.12738    149495.29   -47454.536    4031.2259   -51485.762   0.15125944 
  117000    290.03572   -1383.1845    150451.44   -47445.897    3982.9422   -51428.839   0.15356773 
  117200    297.65548   -1197.1728    150172.22   -47440.071    4087.5813   -51527.652   0.15335578 
  117400    290.94503   -633.67293    149405.38   -47477.331    3995.4293    -51472.76   0.15059173 
  117600    289.05384   -895.44015    149713.04   -47454.342    3969.4585     -51423.8   0.15100425 
  117800    295.80259   -1282.5704    150306.26   -47405.445    4062.1362   -51467.581   0.15307258 
  118000    296.52959   -1050.1365    149989.92   -47401.041    4072.1198   -51473.161    0.1517214 
  118200    296.67505   -752.21104    149548.64   -47441.455    4074.1173   -51515.572   0.15566726 
  118400    293.69851   -973.04436    149881.79    -47488.49    4033.2418   -51521.732   0.15423516 
  118600     294.2519   -1210.6448     150228.1   -47509.755    4040.8413   -51550.597   0.15264287 
  118800    288.44706   -976.45207    149871.53   -47564.631    3961.1257   -51525.757   0.14927482 
  119000    292.56967   -769.33944    149581.87   -47568.828    4017.7398   -51586.568   0.14352305 
  119200    288.14288   -1067.1774    149943.28   -47565.503    3956.9485   -51522.451   0.15596764 
  119400    291.95085   -1150.6766    150174.21   -47587.343    4009.2419   -51596.585   0.15225388 
  119600     295.6055   -904.83818    149817.56   -47532.409    4059.4297   -51591.839   0.14281479 
  119800    288.48158   -831.12263    149692.08   -47531.068    3961.5998   -51492.668   0.14136976 
  120000    291.94004   -1085.8307    150082.24   -47544.943    4009.0935   -51554.037   0.15357584 
  120200    284.52775   -1211.2705    150156.85   -47515.989    3907.3035   -51423.292   0.15988846 
  120400    288.51766   -905.00965    149776.38   -47568.848    3962.0953   -51530.943   0.14868497 
  120600    290.67196   -843.67515    149719.27   -47563.264    3991.6794   -51554.944   0.14399949 
  120800    291.79612    -1108.634    150101.89   -47549.442    4007.1171   -51556.559   0.14765037 
  121000    289.00469    -1155.716    150090.97   -47533.745    3968.7834   -51502.529   0.15870193 
  121200    290.40852   -840.14646    149696.15   -47537.717    3988.0616   -51525.778   0.14743386 
  121400    291.36578   -874.02883    149759.51   -47536.034    4001.2074   -51537.241   0.14925007 
  121600    291.00386   -1177.1547    150149.15   -47520.549    3996.2372   -51516.786   0.15111905 
  121800    293.11618   -1087.9943     150033.4   -47520.015    4025.2449    -51545.26   0.15205128 
  122000    289.88727    -798.8012    149675.65   -47502.869    3980.9036   -51483.773   0.15398805 
  122200    292.26363   -947.22103    149859.57   -47468.763    4013.5372     -51482.3   0.15349061 
  122400    295.00271   -1212.2851    150224.93   -47417.182    4051.1519   -51468.334   0.14998594 
  122600    292.76112    -1046.044    150017.28   -47340.183     4020.369   -51360.552   0.15731478 
  122800    303.81039   -805.82042    149722.71   -47344.878    4172.1042   -51516.982   0.15284657 
  123000    295.64315   -967.15526    149971.61   -47388.438    4059.9468   -51448.384   0.15398444 
  123200    296.43359   -1234.1573    150249.54   -47408.676    4070.8015   -51479.477   0.15707745 
  123400    293.43601   -989.85419    149924.13   -47496.873     4029.637    -51526.51   0.15028994 
  123600     291.8138   -745.27954    149647.32   -47447.987    4007.3598   -51455.347   0.14697095 
  123800    293.93788   -1054.3858    150016.35   -47465.753     4036.529   -51502.282   0.15201496 
  124000    290.03621   -1300.6422    150288.51   -47443.072    3982.9488    -51426.02   0.16582092 
  124200    298.57458   -895.07667    149857.29   -47433.611    4100.2028   -51533.814   0.14959635 
  124400    294.35864   -761.17126    149630.87   -47451.418    4042.3071   -51493.725   0.14492905 
  124600    294.05442    -1112.019    150106.63   -47463.091    4038.1293    -51501.22   0.15273491 
  124800    288.72993   -1219.1511    150252.16   -47463.282    3965.0103   -51428.293    0.1670644 
  125000    289.93807   -821.07948    149718.66   -47480.488    3981.6012   -51462.089   0.15056668 
  125200    295.76702   -760.35874    149668.73   -47473.533    4061.6478   -51535.181   0.14235338 
  125400    292.66264   -1262.9503    150281.11   -47533.557    4019.0166   -51552.574    0.1545553 
  125600    292.90851   -1187.1286    150208.73   -47527.287     4022.393    -51549.68   0.14849087 
  125800    292.31763   -665.67693    149504.47   -47528.368    4014.2788   -51542.647   0.14723851 
  126000    291.37166   -832.49185    149684.77   -47494.159    4001.2881   -51495.447   0.15432681 
  126200    294.79811   -1354.3103    150427.83   -47461.758    4048.3421     -51510.1   0.15589299 
  126400    292.71335   -1128.2777    150102.68   -47495.296     4019.713   -51515.009   0.14949185 
  126600    287.70626   -535.21598    149310.83   -47530.559    3950.9526   -51481.511    0.1454338 
  126800     292.0551   -911.33137    149765.64    -47498.22    4010.6734   -51508.893   0.15498005 
  127000    287.12767   -1499.1583    150528.79   -47500.408    3943.0072   -51443.415   0.15912126 
  127200    290.23644   -1003.8283    149928.96   -47545.041    3985.6986    -51530.74   0.14477453 
  127400    295.97568    -514.9337    149274.08   -47552.742    4064.5133   -51617.255   0.14339359 
  127600     291.7038   -1056.8121    149996.01   -47539.453    4005.8492   -51545.303   0.15081186 
  127800    289.37406    -1433.297    150514.79   -47516.833    3973.8559   -51490.689   0.15552704 
  128000    289.33993    -900.0494    149737.48   -47526.386    3973.3871   -51499.773   0.14924144 
  128200    291.17914   -624.36175     149393.1   -47496.345    3998.6443    -51494.99   0.14500522 
  128400    290.72708   -1141.4735    150149.03    -47514.61    3992.4363   -51507.046   0.15101745 
  128600    290.26836   -1307.3351    150339.11   -47542.383    3986.1369    -51528.52    0.1621546 
  128800    285.78778   -835.66193    149655.31     -47589.1    3924.6069   -51513.707    0.1476368 
  129000    285.54841   -738.86812    149567.75   -47624.979    3921.3198   -51546.299   0.14447012 
  129200    287.39227   -1151.9596    150113.01   -47574.633    3946.6407   -51521.274   0.14935565 
  129400    292.52178   -1155.8496    150129.68   -47572.909    4017.0823   -51589.991   0.15208874 
  129600    290.55614   -883.25828    149699.26   -47578.881    3990.0889    -51568.97   0.15196482 
  129800    290.79125   -882.63906    149721.09   -47590.732    3993.3176    -51584.05   0.14696922 
  130000    284.93205   -1115.9013    150060.97   -47595.152    3912.8556   -51508.007   0.15370473 
  130200     285.0375   -1091.5559    150008.47    -47612.66    3914.3036   -51526.963   0.14694462 
  130400     290.9395   -891.92954    149718.47   -47601.527    3995.3534    -51596.88   0.14978813 
  130600    293.34936   -934.59936    149790.43   -47556.117     4028.447   -51584.564   0.15561321 
  130800    283.36328   -1131.6635    150052.04   -47572.755    3891.3123   -51464.067     0.156622 
  131000    289.68036   -1055.1018    149944.08   -47594.235    3978.0622   -51572.297   0.14655661 
  131200    296.24685   -853.85394    149717.94   -47572.004    4068.2371   -51640.241   0.14399864 
  131400    291.91915   -975.93173    149862.75   -47571.242    4008.8065   -51580.049   0.15452761 
  131600    291.35012   -1111.4997    150029.65   -47561.904    4000.9922   -51562.896   0.15325259 
  131800    288.93323   -999.93313     149853.1   -47536.098    3967.8021   -51503.901   0.15159569 
  132000    292.46187   -870.10794    149704.63   -47482.238    4016.2595   -51498.497   0.15363525 
  132200    291.56076   -1017.3406    149945.57   -47486.872     4003.885   -51490.756   0.15310565 
  132400    291.68676    -1182.721    150128.01   -47487.517    4005.6153   -51493.132    0.1535677 
  132600     296.6852   -988.61378    149871.56   -47467.957    4074.2568   -51542.214    0.1547435 
  132800    293.27894   -882.39009    149704.36   -47440.517      4027.48   -51467.997   0.15440692 
  133000    295.37993   -1045.1918    150010.47   -47430.799    4056.3321   -51487.131   0.14885262 
  133200     300.8463   -1161.9776    150173.29   -47376.114    4131.3995   -51507.513   0.15810328 
  133400    294.27666   -986.98118    149843.27   -47364.785    4041.1812   -51405.966   0.15842844 
  133600    294.86253   -830.48529    149689.36   -47379.909    4049.2267   -51429.135   0.15501204 
  133800    296.66908   -1083.9161    150047.17   -47395.651    4074.0354   -51469.686   0.14962418 
  134000    297.87374   -1141.2013    150147.39   -47342.801    4090.5785    -51433.38   0.16057219 
  134200    297.16699   -863.83571    149809.71   -47360.691     4080.873   -51441.564   0.15572403 
  134400    296.11903   -845.24143    149781.14    -47361.34    4066.4817   -51427.822   0.15075109 
  134600    295.05874   -1089.1547    150142.46   -47371.332    4051.9213   -51423.253   0.15253438 
  134800    289.99327   -1187.4405     150122.4   -47415.014    3982.3593   -51397.373   0.15967568 
  135000    294.42561   -822.92509    149715.57   -47477.526    4043.2268   -51520.753   0.15187981 
  135200    294.79624   -836.39968     149763.4   -47487.685    4048.3165   -51536.002   0.15272024 
  135400     285.3199   -1227.1257    150204.87   -47501.359    3918.1818   -51419.541   0.15982426 
  135600    292.42523   -1124.5341     150076.5   -47467.131    4015.7563   -51482.887   0.15074681 
  135800     289.9173   -733.29186    149591.74   -47545.869     3981.316   -51527.185   0.14750426 
  136000    289.98829   -883.53479    149764.35   -47576.659    3982.2908    -51558.95   0.14931751 
  136200    288.55168   -1325.5958    150302.77   -47579.048    3962.5625   -51541.611   0.16016405 
  136400       288.74   -1111.5475    149997.34   -47536.759    3965.1485   -51501.907    0.1572309 
  136600    293.35608   -596.77575    149406.41   -47487.863    4028.5393   -51516.402   0.14932284 
  136800    295.52725    -960.9702    149875.46    -47493.35    4058.3551   -51551.705   0.15133398 
  137000    290.81364   -1440.9873    150508.73   -47485.546    3993.6251   -51479.171   0.15976386 
  137200    288.02822   -980.80491    149854.56   -47527.527     3955.374   -51482.901   0.15413819 
  137400    288.76192   -473.78747    149231.19   -47492.561    3965.4496    -51458.01   0.14935044 
  137600    289.34625   -1086.7142    150023.83   -47475.601     3973.474   -51449.075   0.15015678 
  137800    292.62002   -1457.9498    150582.57   -47436.551    4018.4314   -51454.982   0.16173082 
  138000    294.49342   -913.96007    149708.39   -47449.363    4044.1579   -51493.521   0.16019293 
  138200    290.56417   -507.94069    149238.52   -47505.812    3990.1992   -51496.012   0.14945939 
  138400    292.66542   -1136.5795     150093.2   -47480.028    4019.0547   -51499.083   0.15421073 
  138600    295.64025   -1433.2713    150426.22    -47486.58    4059.9069   -51546.487   0.16753741 
  138800    292.67879   -806.21661    149639.25   -47447.951    4019.2383    -51467.19   0.15716368 
  139000    296.11862    -675.2099    149487.35   -47437.607    4066.4762   -51504.083   0.15007427 
  139200    292.61959   -1206.1173    150217.15    -47429.39    4018.4254   -51447.815   0.15541163 
  139400    293.25958   -1270.5384    150244.96   -47455.239    4027.2142   -51482.453   0.15691971 
  139600    295.49397   -756.26035     149562.5   -47446.703    4057.8981   -51504.601    0.1563035 
  139800    299.04484   -832.09549    149645.94   -47408.254    4106.6607   -51514.915    0.1544122 
  140000    297.50812    -1298.992    150301.71   -47364.507    4085.5576   -51450.064    0.1662975 
  140200    293.06583   -1225.9796    150115.93   -47408.544    4024.5535   -51433.097    0.1655728 
  140400    295.53198   -724.83678    149517.89   -47442.727      4058.42   -51501.147   0.15266883 
  140600    286.79556   -904.09337    149797.43     -47438.9    3938.4464   -51377.346   0.15849383 
  140800    297.65488   -1270.7765    150328.18   -47423.439    4087.5729   -51511.012   0.16117706 
  141000    291.05352   -1052.9829     149981.6   -47466.229    3996.9192   -51463.148   0.15374884 
  141200    296.61406   -708.56038    149540.06   -47424.797    4073.2799   -51498.077   0.14972603 
  141400    296.33182    -988.8134    149974.77    -47425.54    4069.4039   -51494.944   0.15159036 
  141600    296.36016   -1271.7717    150350.17   -47402.297    4069.7931    -51472.09   0.15839499 
  141800    294.29819   -937.36536     149918.5   -47463.617    4041.4769   -51505.094   0.15142732 
  142000    288.17417   -751.80548     149619.2   -47484.186    3957.3783   -51441.564   0.15445248 
  142200    294.09206   -1071.4207    150052.47   -47475.878    4038.6463   -51514.525   0.15462387 
  142400    292.42332   -1231.9221    150277.63   -47475.831    4015.7301   -51491.561   0.15497831 
  142600    292.40465   -906.07134    149832.87    -47472.98    4015.4738   -51488.453   0.15358479 
  142800    290.79225   -766.83221    149669.46   -47480.132    3993.3314   -51473.463   0.14855735 
  143000    288.37122   -1132.9807    150098.94   -47537.043    3960.0843   -51497.127   0.14860411 
  143200    292.98282   -1137.9803    150151.78   -47503.596    4023.4135    -51527.01   0.15714845 
  143400    297.04049   -845.43925    149744.26   -47473.982    4079.1359   -51553.117   0.15105444 
  143600    289.68818   -884.63882    149760.92    -47463.04    3978.1695    -51441.21   0.15613105 
  143800    293.90846   -1173.8039    150149.26   -47470.216    4036.1249   -51506.341   0.16177369 
  144000    292.91191   -1065.1623    150071.42   -47459.006    4022.4397   -51481.446   0.15619288 
  144200    293.19754   -859.57281    149731.79   -47435.874    4026.3622   -51462.237   0.15470567 
  144400    294.98852   -958.70587    149853.31   -47437.942    4050.9569   -51488.899   0.15351685 
  144600    292.19281   -1180.0207     150169.6   -47405.452    4012.5646   -51418.016   0.16251772 
  144800    300.52864   -1032.6392    150002.05   -47377.978    4127.0372   -51505.015   0.15454736 
  145000    290.62051   -847.53378    149703.72   -47425.933    3990.9729   -51416.906   0.15338562 
  145200    293.30617   -991.11613    149914.21   -47453.991    4027.8539   -51481.845   0.15720727 
  145400    290.75883   -1143.5262    150176.51    -47454.13    3992.8724   -51447.002   0.15804356 
  145600    292.63449   -991.18207    149945.81   -47476.346      4018.63   -51494.976   0.15186807 
  145800    293.06256   -810.49466    149682.81    -47495.74    4024.5085   -51520.248   0.15255703 
  146000    292.75512   -975.83761    149916.67   -47480.037    4020.2866   -51500.324   0.15451622 
  146200     293.3952   -1152.7524    150132.32   -47508.324    4029.0765   -51537.401   0.15435076 
  146400    291.87196   -984.96516    149860.44   -47463.972    4008.1586   -51472.131   0.15213901 
  146600    296.20056   -804.97631    149723.79    -47429.66    4067.6014   -51497.261   0.14887944 
  146800    297.50373   -1072.5801    150094.44   -47380.478    4085.4973   -51465.975   0.15433151 
  147000    295.73892    -1211.309    150226.28   -47391.629    4061.2619   -51452.891   0.15497709 
  147200    298.35071   -902.16537    149835.34   -47366.222    4097.1285   -51463.351   0.16158547 
  147400    294.02415   -902.20914    149751.23   -47433.272    4037.7137   -51470.986   0.15779857 
  147600    293.45144   -1104.2803    150137.01   -47440.479    4029.8489   -51470.328   0.15587538 
  147800    291.61704   -1176.8332    150170.39   -47481.825    4004.6577   -51486.482   0.15998808 
  148000    291.00421   -840.81622    149755.95   -47452.818     3996.242    -51449.06   0.15290358 
  148200    292.48569   -890.16951    149760.83   -47496.445    4016.5867   -51513.032   0.15251915 
  148400    289.51294    -1151.924    150129.84   -47540.071     3975.763   -51515.834   0.15285815 
  148600     293.0351   -1094.6322    150063.75   -47510.759    4024.1315    -51534.89   0.15668785 
  148800    289.11181    -837.0468    149721.69   -47518.318    3970.2544   -51488.573   0.15030964 
  149000    292.54267    -901.8208     149845.4   -47523.783    4017.3691   -51541.152   0.15011343 
  149200    291.57862   -1176.2507    150166.36   -47524.572    4004.1302   -51528.702   0.15600351 
  149400    290.69154   -1066.8978    149970.41   -47549.678    3991.9482   -51541.626   0.15171126 
  149600    289.00896    -791.6193     149654.7   -47552.927     3968.842   -51521.769   0.14988591 
  149800    290.63278    -976.3333    149871.76       -47537    3991.1414   -51528.142   0.15398332 
  150000    295.89876   -1167.0398    150183.74   -47490.754    4063.4569   -51554.211   0.15258094 
  150200    292.09308   -992.79782    149939.45   -47438.527    4011.1951   -51449.722    0.1503321 
  150400    297.86341   -767.74498    149653.55   -47413.414    4090.4367   -51503.851    0.1484886 
  150600    289.08726   -1076.3252    149956.31   -47460.265    3969.9174   -51430.182   0.15857638 
  150800    297.52752   -1174.9832    150199.71   -47419.353     4085.824   -51505.177   0.15907252 
  151000    293.24154   -949.47464     149839.7   -47463.968    4026.9664   -51490.934   0.15039918 
  151200    297.07024   -790.00335    149602.27   -47455.101    4079.5443   -51534.645   0.15146925 
  151400    297.97853   -1080.3453    150044.35   -47362.464    4092.0176   -51454.481   0.15762374 
  151600     295.3927   -1272.2095    150304.23   -47342.584    4056.5075   -51399.092   0.15955686 
  151800    301.66389   -832.70804    149762.95   -47363.414     4142.627   -51506.041    0.1591941 
  152000    295.56619   -741.95581    149576.19   -47368.014    4058.8899   -51426.903   0.15529091 
  152200    290.95153    -1217.258    150213.34   -47379.464    3995.5186   -51374.982   0.16326713 
  152400    295.46784   -1317.3256    150327.56   -47426.004    4057.5393   -51483.544   0.15849793 
  152600    297.32716   -715.91911    149601.62   -47404.935    4083.0725   -51488.007   0.15281508 
  152800    293.36992   -776.19484    149630.94   -47337.578    4028.7294   -51366.308   0.15928077 
  153000    297.05299   -1342.5226    150417.52   -47396.599    4079.3075   -51475.907   0.16200021 
  153200    298.18504    -1216.309    150261.79   -47338.537    4094.8535   -51433.391   0.16262952 
  153400    297.08291   -622.85167    149466.51   -47404.408    4079.7183   -51484.127   0.14441826 
  153600    297.39671   -785.54544    149711.68   -47430.166    4084.0277   -51514.194   0.14441068 
  153800    291.38041    -1415.282    150483.92   -47444.972    4001.4083    -51446.38   0.16136904 
  154000    294.28372   -1138.7036    150090.45   -47466.906    4041.2783   -51508.184   0.15553562 
  154200    296.30129   -581.55825    149366.05   -47421.304    4068.9847   -51490.289   0.14930432 
  154400    295.53135   -951.96772    149822.49   -47410.881    4058.4114   -51469.293   0.15576529 
  154600     290.8273   -1404.4988    150426.25    -47420.65    3993.8126   -51414.463   0.16623991 
  154800    289.62167   -1010.0572    149916.79    -47444.31    3977.2562   -51421.566   0.15526679 
  155000     295.0133   -652.80074     149444.7   -47438.707    4051.2972   -51490.004    0.1528906 
[...]
  163200    293.24308   -1043.9434    150041.11   -47503.551    4026.9876   -51530.539   0.15082867 
  163400    291.72104   -648.57448    149461.05   -47546.278     4006.086   -51552.364   0.14663218 
  163600    291.66362   -961.12248     149885.9   -47489.937    4005.2974   -51495.234   0.15149217 
  163800    290.40225   -1381.9273    150448.63   -47539.896    3987.9755   -51527.871   0.16108465 
  164000    291.42668   -1008.8328    149896.97   -47566.559    4002.0436   -51568.603   0.15899494 
  164200    289.24552   -577.85972    149357.18   -47569.683    3972.0906   -51541.774   0.14740361 
  164400    288.73355   -1075.2771    150028.78   -47504.224      3965.06   -51469.284   0.15371269 
  164600      292.081   -1433.0075    150517.01   -47473.559    4011.0292   -51484.588   0.16130239 
  164800    290.17009   -846.02105    149742.35   -47522.895    3984.7874   -51507.682    0.1547629 
  165000    288.98922   -579.81233    149352.12   -47504.497    3968.5711   -51473.068   0.15299817 
  165200    295.39349   -1194.6513    150188.21   -47490.959    4056.5182   -51547.477   0.16020279 
  165400    291.43855    -1414.601    150469.44   -47512.467    4002.2067   -51514.674   0.16423392 
  165600    298.10136   -790.13522    149644.58    -47462.33    4093.7044   -51556.035   0.15143371 
  165800    289.61106   -687.02635    149493.44   -47488.716    3977.1105   -51465.826   0.15648981 
  166000    286.14515   -1251.7559    150213.72   -47436.932    3929.5146   -51366.447   0.16898587 
  166200    296.40127    -1225.022    150231.06    -47468.28    4070.3577   -51538.637   0.15698633 
  166400    291.07279   -757.09644    149649.46     -47471.8    3997.1838   -51468.983   0.14971044 
  166600    292.50532   -858.73247    149728.43   -47467.034    4016.8562    -51483.89   0.15279952 
  166800    288.80598   -1223.2151    150183.76   -47520.183    3966.0547   -51486.238   0.15863692 
  167000    291.21629   -1089.4166    150033.12   -47523.867    3999.1545   -51523.022   0.15495279 
  167200    290.88814   -875.80391    149697.28    -47476.51    3994.6481   -51471.158   0.15896735 
  167400    292.32606   -995.82987     149915.4   -47520.816    4014.3945   -51535.211   0.15450182 
  167600    289.85931   -1124.2854    150143.19   -47497.663    3980.5196   -51478.183   0.15226659 
  167800    290.43554   -1024.2233    149914.64   -47570.743    3988.4327   -51559.175   0.15528583 
  168000    290.51634   -868.97608    149713.22   -47561.729    3989.5424   -51551.271   0.15434393 
  168200    283.99597   -1015.6513    149949.36   -47555.614    3900.0008   -51455.615    0.1563026 
  168400    289.17009   -1132.4731    150116.21   -47509.437    3971.0549   -51480.492   0.15823221 
  168600    291.91038   -955.07087    149879.56   -47525.258    4008.6862   -51533.944   0.15741273 
  168800    289.18987   -915.32423    149779.92   -47567.424    3971.3265   -51538.751   0.15400335 
  169000    294.34688   -1064.0978       149996   -47550.247    4042.1456   -51592.392   0.15252142 
  169200    291.09852   -1069.3658    150061.54    -47517.34    3997.5372   -51514.877   0.15989476 
  169400     288.3972   -962.31301    149860.11    -47546.53     3960.441   -51506.971   0.16013137 
  169600    290.02961    -875.3027    149793.47   -47558.217    3982.8583   -51541.075   0.14782436 
  169800    287.91893   -1049.8061    149971.84    -47560.72    3953.8732   -51514.594   0.15371805 
  170000    290.23241   -1075.9365    149971.93   -47599.248    3985.6433   -51584.892   0.15572763 
  170200    285.14322   -949.39338    149786.93   -47611.193    3915.7555   -51526.949   0.15305368 
  170400    288.34033   -947.69261    149813.13   -47580.226    3959.6601   -51539.886   0.15664128 
  170600    287.70976   -1118.0109    149989.34   -47558.989    3951.0007   -51509.989   0.16459883 
  170800    289.20409   -1049.6866    149960.31   -47583.366    3971.5218   -51554.887    0.1525126 
  171000    293.68146   -920.71623    149796.38   -47585.818    4033.0076   -51618.826   0.14603173 
  171200    287.17182   -922.70329    149833.72   -47611.316    3943.6135    -51554.93   0.14900862 
  171400    287.99436   -1053.0555    150007.77   -47603.448     3954.909   -51558.357   0.15871575 
  171600    286.11222   -1047.2122    149958.64    -47568.35    3929.0624   -51497.412   0.15450674 
  171800    292.25292    -913.6055    149793.82   -47548.793    4013.3901   -51562.183   0.15135958 
  172000    292.60297    -930.3245     149884.4   -47554.725    4018.1972   -51572.922   0.15390584 
  172200     289.2791   -1132.1238    150061.14   -47557.455    3972.5518   -51530.006   0.15202609 
  172400    290.90105   -1019.4099    149920.14   -47528.525    3994.8254    -51523.35   0.15881158 
  172600    284.11092   -884.85804    149741.72   -47514.262    3901.5793   -51415.841   0.16246959 
  172800     291.3574   -1007.3003    149929.01   -47520.982    4001.0923   -51522.074   0.15821861 
  173000    292.45232   -1101.4348    150112.72   -47536.827    4016.1284   -51552.955   0.15363943 
  173200    285.33576   -929.37796    149853.02   -47577.279    3918.3995   -51495.678   0.15254093 
  173400    289.56093    -856.4272    149657.92   -47567.001    3976.4221   -51543.423   0.15689895 
  173600    294.94134   -1051.7413    150007.83   -47513.244     4050.309   -51563.553   0.15196255 
  173800    292.82979    -1205.404    150242.76   -47508.985     4021.312   -51530.297   0.16151894 
  174000    291.82314   -912.99185    149854.32   -47478.068    4007.4881   -51485.556   0.16455042 
  174200    288.94541   -830.58703    149631.24   -47475.181    3967.9694    -51443.15   0.16021613 
  174400    294.41513   -1119.5162    150083.96   -47452.421    4043.0828   -51495.504   0.16029704 
  174600    294.20831    -1238.746    150270.99   -47460.327    4040.2427    -51500.57    0.1641438 
  174800    294.33489   -845.83273    149760.07   -47430.596    4041.9809   -51472.577   0.15247695 
  175000    291.55462   -804.27383    149641.97   -47481.114    4003.8006   -51484.914   0.15606454 
  175200    285.82161   -1201.7461    150157.78   -47470.085    3925.0715   -51395.157   0.16356605 
  175400    292.42413   -1155.8266    150186.02   -47479.252    4015.7413   -51494.994   0.15819084 
  175600    292.54619   -763.43579    149649.52   -47498.601    4017.4174   -51516.019   0.14899283 
  175800    292.13015   -800.37202    149684.95   -47483.031    4011.7041   -51494.735   0.15145413 
  176000    292.18093    -1230.999    150251.43   -47461.567    4012.4015   -51473.968   0.16890721 
  176200    292.68866   -1192.1328    150159.15    -47411.38     4019.374   -51430.754   0.16508433 
  176400    293.42617   -775.31275    149627.61   -47458.433    4029.5018   -51487.935   0.15289182 
  176600    294.81222   -855.95033    149779.84   -47437.319    4048.5359   -51485.855   0.15471317 
  176800    291.78257   -1251.1753    150296.61    -47436.74     4006.931   -51443.671   0.15941195 
  177000    291.73979   -1083.9548    150044.33   -47455.586    4006.3435    -51461.93   0.16010412 
  177200    286.81561   -739.48797    149525.61   -47476.769    3938.7217    -51415.49   0.16147279 
  177400    286.12084   -952.95974    149810.25   -47564.189    3929.1807    -51493.37   0.16386666 
  177600    291.57945   -1238.5869    150260.73     -47521.2    4004.1416   -51525.342   0.15549475 
  177800    293.47125   -1033.3129    149955.49   -47503.745     4030.121   -51533.866   0.15568744 
  178000    297.59963    -702.3041    149569.94   -47466.878    4086.8142   -51553.692   0.15083117 
  178200    290.39541   -1001.2086    149952.91   -47499.138    3987.8816   -51487.019   0.15750485 
  178400    287.45554   -1286.0461    150317.31   -47467.867    3947.5096   -51415.377   0.16546475 
  178600    288.84472   -943.65136    149872.59   -47490.489    3966.5866   -51457.076   0.15813673 
  178800    289.06583   -733.68486    149571.69   -47464.333    3969.6231   -51433.956   0.15436201 
  179000    293.60277   -1100.3134    150056.72   -47432.216     4031.927   -51464.143   0.15848206 
  179200    294.26603   -1208.5309    150276.07   -47451.696    4041.0352   -51492.732   0.15882763 
  179400    292.69806   -865.74963    149766.54   -47431.899     4019.503   -51451.402   0.16119674 
  179600    292.46553   -749.15971    149587.85   -47441.953    4016.3098   -51458.263   0.15166335 
  179800    293.67583   -1075.4221    150109.39   -47463.263    4032.9304   -51496.194   0.15118673 
  180000    297.64018    -1223.974    150220.23   -47428.249    4087.3711    -51515.62   0.16350072 
  180200    294.39315   -832.94557    149719.94   -47396.511     4042.781   -51439.292   0.14911234 
  180400    297.59807   -872.74604    149698.75   -47352.865    4086.7928   -51439.658   0.15655235 
  180600    297.20494   -1131.8507    150131.11   -47435.813    4081.3941   -51517.207   0.15949254 
  180800    294.89427   -1136.6082    150091.84    -47400.06    4049.6627   -51449.723   0.16090108 
  181000     292.8506   -882.80352    149696.41   -47447.743    4021.5978   -51469.341   0.15667799 
  181200    296.73156   -872.52838    149758.07    -47430.49    4074.8935   -51505.384   0.15613006 
  181400    293.91444   -1121.9926    150073.69   -47464.372    4036.2071   -51500.579   0.16578452 
  181600     290.6302   -1076.1258    149994.19   -47487.122    3991.1059   -51478.228   0.15965997 
  181800    294.88274   -876.88542     149760.1   -47461.526    4049.5043    -51511.03   0.15291272 
  182000    299.06237   -973.02076    149861.05   -47469.375    4106.9014   -51576.277   0.15994827 
  182200    291.11599   -1089.8263    150077.96   -47480.917    3997.7771   -51478.694   0.15594688 
  182400    292.28375   -1028.3079    149981.56   -47483.304    4013.8135   -51497.118   0.14952149 
  182600    297.13238   -883.74491    149806.15   -47449.249    4080.3977   -51529.646   0.15798932 
  182800    294.96691   -1009.3847    149921.26   -47412.187    4050.6602   -51462.847   0.16128974 
  183000    291.43772   -1084.5692     150081.3   -47410.888    4002.1952   -51413.084   0.15975061 
  183200    290.24625   -1016.8368     149976.8   -47394.031    3985.8333   -51379.864   0.16111694 
  183400    296.56082   -934.13009    149834.46   -47405.453    4072.5487   -51478.001   0.16088161 
  183600    294.13115   -998.04394    149941.17    -47432.69     4039.183   -51471.873   0.15547144 
  183800    290.46674   -1095.0361    150040.66   -47463.838    3988.8612   -51452.699    0.1573812 
  184000    289.58515   -1036.0386    149895.69   -47478.199    3976.7547   -51454.954   0.16593155 
  184200    290.89454   -896.23015    149794.85   -47521.272     3994.736   -51516.008   0.15362896 
  184400    289.95954   -1045.5437    149912.89    -47529.55     3981.896   -51511.446   0.15688781 
  184600    288.83316   -1101.6504    149985.43     -47536.5    3966.4279   -51502.928   0.15958066 
  184800    293.32419   -1000.7387    149857.48   -47526.385    4028.1014   -51554.486   0.15527178 
  185000    292.37295   -870.39339    149817.25   -47517.373    4015.0384   -51532.411   0.15197887 
  185200    290.21159   -1085.5394    149983.29   -47573.036    3985.3573   -51558.393   0.16246518 
  185400    290.08719   -1109.7487    149980.71   -47550.346     3983.649   -51533.995   0.16401669 
  185600    288.90125   -958.05909    149820.74    -47556.42     3967.363   -51523.783   0.15808813 
  185800    293.78764    -906.7245    149871.36   -47501.432    4034.4657   -51535.898   0.15474555 
  186000    291.39353   -1086.8845    150056.85   -47485.307    4001.5884   -51486.895    0.1642239 
  186200    295.44251   -1037.9196     150000.3   -47477.609    4057.1914   -51534.801   0.15635025 
  186400     289.3402   -887.95649    149810.32   -47428.528    3973.3909   -51401.919   0.15916487 
  186600    291.99689   -963.20846    149899.06   -47463.113    4009.8741   -51472.987   0.16221302 
  186800     293.7754   -1119.9145    150124.38   -47486.298    4034.2976   -51520.596   0.15483215 
  187000    292.09122   -1013.3955    150020.75   -47459.058    4011.1695   -51470.228    0.1520436 
  187200     288.7812   -866.05142    149802.58   -47482.074    3965.7144   -51447.788   0.16030455 
  187400    292.86314   -940.36092    149931.87   -47467.108    4021.7699   -51488.877   0.15806041 
  187600    296.14684   -1111.7579     150161.1    -47504.49    4066.8637   -51571.353    0.1491191 
  187800    293.02434   -1059.8046     149986.4   -47495.366    4023.9837    -51519.35   0.15437263 
  188000     296.4247   -785.52886     149744.9   -47472.481    4070.6794   -51543.161   0.15489218 
  188200    288.92333   -1023.8034    150009.85   -47459.699    3967.6662   -51427.366   0.15467158 
  188400    293.32039   -1212.5352     150269.4   -47443.869    4028.0492   -51471.918   0.15716543 
  188600    297.41998   -949.39194     149895.6   -47455.883    4084.3472   -51540.231    0.1608904 
  188800    292.65883   -759.31587    149604.34   -47472.937    4018.9643   -51491.901   0.15177767 
  189000    292.71911   -1067.0457    150078.56   -47459.983     4019.792   -51479.775   0.15485017 
  189200    292.41097   -1309.5695    150379.66   -47457.556    4015.5606   -51473.117   0.16417357 
  189400    295.51359   -868.39554    149809.38    -47428.68    4058.1676   -51486.848   0.15809844 
  189600    295.15055   -648.45998    149536.73   -47446.852     4053.182   -51500.034   0.15094099 
  189800    290.98905   -1162.3969    150184.12   -47477.278    3996.0338   -51473.311   0.15692536 
  190000    293.59794   -1295.0438    150352.98   -47504.867    4031.8606   -51536.727   0.16560375 
  190200    293.84216   -817.47488    149610.38   -47490.379    4035.2144   -51525.593   0.15613915 
  190400    292.04372   -685.59262    149528.05   -47489.466    4010.5172   -51499.983   0.15124211 
  190600    292.64773   -1253.6802    150281.87    -47421.01    4018.8118   -51439.822   0.16765194 
  190800    289.79595   -1225.2741    150275.95     -47453.2    3979.6496    -51432.85   0.16182163 
  191000    293.98851    -721.8545    149577.91   -47477.335    4037.2242    -51514.56   0.14847464 
  191200    292.88521   -801.55294    149667.47   -47471.075     4022.073   -51493.148    0.1509587 
  191400    293.81852   -1278.1317     150296.2   -47485.784    4034.8898   -51520.674   0.16263709 
  191600    291.55253   -1115.0574    150081.87   -47442.979    4003.7719   -51446.751   0.16154923 
  191800    292.75837   -679.42365    149498.44   -47484.829    4020.3313    -51505.16   0.15314831 
  192000    288.35591   -890.23192    149748.23   -47481.541     3959.874   -51441.415     0.153582 
  192200    291.89312   -1272.9938    150262.98    -47441.39    4008.4491   -51449.839   0.15874099 
  192400    292.22735   -1072.8287    149970.53   -47453.686    4013.0389   -51466.725   0.16000119 
  192600    295.94789   -720.00654    149545.13   -47490.679    4064.1316   -51554.811   0.15513966 
  192800    290.66112   -1008.6274    149889.88    -47461.61    3991.5305    -51453.14     0.160888 
  193000    287.63247   -1242.8668     150235.4   -47445.586    3949.9393   -51395.525   0.16133176 
  193200     293.2807    -970.2536     149866.7     -47404.6    4027.5042   -51432.104   0.16084918 
  193400    289.38592   -800.09212    149595.19    -47410.62    3974.0188   -51384.639   0.16229946 
  193600    296.35955   -1076.6822     149977.2   -47419.072    4069.7847   -51488.857   0.16312333 
  193800    296.31868   -1193.8335     150193.7   -47463.503    4069.2235   -51532.727   0.16539481 
  194000    291.72891    -954.8618    149791.56   -47495.512    4006.1941   -51501.706   0.16120732 
  194200    292.30782   -799.55245    149620.95   -47481.975     4014.144   -51496.119   0.15158251 
  194400     293.9208   -1074.0857    149999.16   -47458.419    4036.2944   -51494.714   0.15867058 
  194600    286.02991   -1202.1768       150141   -47479.692     3927.932   -51407.624   0.16809295 
  194800    289.46269   -919.01703    149769.96   -47471.173     3975.073   -51446.246   0.16145762 
  195000     292.9072   -860.98592    149674.65   -47455.438    4022.3751   -51477.813   0.15603133 
  195200    291.64135   -1102.2269    150037.69   -47435.696    4004.9916   -51440.688   0.15882302 
  195400    293.53396   -1139.7073    150115.27   -47436.968    4030.9821    -51467.95   0.16317951 
  195600    294.38258   -882.01653    149775.63   -47446.437    4042.6359   -51489.073   0.15353315 
  195800    296.20975   -885.03602    149745.99   -47493.907    4067.7276   -51561.635   0.15702969 
  196000    294.68658   -1111.6629    150080.17   -47459.558    4046.8105   -51506.369   0.16434161 
  196200    295.89748   -1099.4981    150087.84   -47445.032    4063.4393   -51508.471   0.15448518 
  196400    297.57422   -862.96812    149762.24   -47449.794    4086.4653    -51536.26   0.15162478 
  196600    287.81231    -935.8963    149793.93   -47516.455    3952.4089   -51468.864   0.15873271 
  196800    293.28965   -1117.6424    150075.49   -47503.082    4027.6271   -51530.709    0.1591214 
  197000    289.30276   -1048.0235    149988.87   -47513.604    3972.8768   -51486.481   0.15715994 
  197200    285.41514     -869.601    149709.76   -47573.441    3919.4897   -51492.931   0.16084657 
  197400    287.65103   -951.26244    149835.55   -47530.153    3950.1942   -51480.348   0.16247401 
  197600    293.33023   -1145.6004     150093.6   -47438.778    4028.1844   -51466.962   0.15990369 
  197800    293.65774   -1053.7483    149940.12   -47427.676    4032.6819   -51460.357   0.15811788 
  198000    295.57728   -865.77797    149712.04   -47460.915    4059.0421   -51519.957    0.1628923 
  198200    296.05837   -959.75599    149881.18   -47484.625    4065.6487   -51550.274   0.15729954 
  198400    293.66699    -1151.702    150124.09   -47406.995     4032.809   -51439.804   0.16452232 
  198600     290.7838   -1058.0032    149975.82   -47398.056    3993.2153   -51391.271   0.16474045 
  198800    295.87014   -895.01377    149747.32    -47436.42    4063.0639   -51499.484   0.15783473 
  199000    298.78169    -984.9738    149934.72   -47440.651     4103.047   -51543.698   0.15783363 
  199200    294.98326   -1151.0995    150171.87   -47429.943    4050.8848   -51480.828   0.16615836 
  199400    290.12577   -994.24081    149911.85   -47444.806    3984.1789   -51428.985    0.1640369 
  199600    297.29656   -760.89594    149637.29   -47472.894    4082.6523   -51555.546   0.15001598 
  199800    294.64769   -1045.2295    149988.24   -47447.379    4046.2765   -51493.655   0.15524939 
  200000    287.95764   -1230.4167    150279.99   -47460.392    3954.4048   -51414.797   0.15954241 
Loop time of 106.936 on 6 procs for 200000 steps with 4608 atoms

Performance: 807.958 ns/day, 0.030 hours/ns, 1870.272 timesteps/s
97.6% CPU use with 6 MPI tasks x no OpenMP threads

MPI task timing breakdown:
Section |  min time  |  avg time  |  max time  |%varavg| %total
---------------------------------------------------------------
Pair    | 75.03      | 75.714     | 75.98      |   3.7 | 70.80
Neigh   | 10.646     | 10.893     | 11.324     |   8.6 | 10.19
Comm    | 9.3747     | 10.104     | 10.443     |  10.6 |  9.45
Output  | 3.0678     | 3.0691     | 3.075      |   0.1 |  2.87
Modify  | 5.6939     | 5.8167     | 5.9029     |   2.8 |  5.44
Other   |            | 1.34       |            |       |  1.25

Nlocal:        768.000 ave         778 max         751 min
Histogram: 1 0 0 0 1 0 0 1 2 1
Nghost:        1389.50 ave        1402 max        1375 min
Histogram: 1 0 0 1 0 2 0 1 0 1
Neighs:        0.00000 ave           0 max           0 min
Histogram: 6 0 0 0 0 0 0 0 0 0
FullNghs:      21825.0 ave       22133 max       21338 min
Histogram: 1 0 0 1 0 0 1 1 1 1

Total # of neighbors = 130950
Ave neighs/atom = 28.417969
Neighbor list builds = 12720
Dangerous builds = 0
write_data		data.${NAME}
write_data		data.ice_293K_-1000atm_ML
System init for write_data ...
Total wall time: 0:02:38
