
# Define the lattice
#
variable	    lattice_constant equal 6.36339
lattice		    diamond ${lattice_constant} orient x 0 0 1 orient y 0 1 0 orient z -1 0 0
lattice		    diamond 6.36339 orient x 0 0 1 orient y 0 1 0 orient z -1 0 0
Lattice spacing in x,y,z = 6.3633900 6.3633900 6.3633900

# Define region
# multiples of lattice spacing
#
region 		    simbox block 0 9 0 8 0 8

# Create Atoms
#
create_box          1 simbox
Created orthogonal box = (0.0000000 0.0000000 0.0000000) to (57.270510 50.907120 50.907120)
  3 by 1 by 2 MPI processor grid
create_atoms        1 box
Created 4608 atoms
  create_atoms CPU = 0.001 seconds
mass                1 18.015

# Define potential
#
pair_style          sw
pair_coeff          * * /data/emrosky-sim/Freezing_Simulations/Melting/MLmW_fancy/ML_mW.sw mW
Reading sw potential file /data/emrosky-sim/Freezing_Simulations/Melting/MLmW_fancy/ML_mW.sw with DATE: 2019-02-27

# Add velocity/set timestep
#
velocity            all create ${TEMP} 120598 rot yes dist gaussian
velocity            all create 293 120598 rot yes dist gaussian
timestep            5.0

# Define output
#
compute	            1 all msd
thermo              100
thermo_style        custom step temp press vol etotal ke pe c_1[4]

# Neighbor lists
#
neigh_modify        delay 0 every 1 check yes

# Set fixes
#
fix                 1 all momentum 10 linear 1 1 1 rescale
fix                 2 all nve
fix                 3 all temp/csvr ${TEMP} ${TEMP} 500.0 928347
fix                 3 all temp/csvr 293 ${TEMP} 500.0 928347
fix                 3 all temp/csvr 293 293 500.0 928347
fix                 4 all press/berendsen iso ${PRES} ${PRES} 1000.0 modulus 20000
fix                 4 all press/berendsen iso -1000 ${PRES} 1000.0 modulus 20000
fix                 4 all press/berendsen iso -1000 -1000 1000.0 modulus 20000

# Run 0.5 ns equilibration
#
dump		    1 all custom 1000 eq.${NAME}.dump id type x y z vx vy vz
dump		    1 all custom 1000 eq.ice_293K_-1000atm_ML.dump id type x y z vx vy vz
run                 100000
Neighbor list info ...
  update every 1 steps, delay 0 steps, check yes
  max neighbors/atom: 2000, page size: 100000
  master list distance cutoff = 6.0032907
  ghost atom cutoff = 6.0032907
  binsize = 3.0016454, bins = 20 17 17
  1 neighbor lists, perpetual/occasional/extra = 1 0 0
  (1) pair sw, perpetual
      attributes: full, newton on
      pair build: full/bin/atomonly
      stencil: full/bin/3d
      bin: standard
Per MPI rank memory allocation (min/avg/max) = 4.779 | 4.779 | 4.779 Mbytes
Step Temp Press Volume TotEng KinEng PotEng c_1[4] 
       0          293   -623.02534    148418.52   -51873.535    4023.6494   -55897.184            0 
     100     200.6926    -833.9096    148935.41   -50220.774    2756.0296   -52976.804   0.10357797 
     200    229.02532   -914.58425    149279.17   -49241.326    3145.1113   -52386.438   0.11760986 
     300    246.94084   -971.26477    149467.93   -48618.994    3391.1377   -52010.132   0.15063078 
     400    267.81913   -962.72558    149606.69   -48208.732    3677.8508   -51886.583   0.15197576 
     500    284.26719   -929.91473    149734.31   -47913.798    3903.7253   -51817.523   0.14176252 
     600    287.42857    -964.1717    149829.17   -47639.488    3947.1392   -51586.628   0.16285105 
     700    289.90337   -1005.0385    149885.19   -47585.828    3981.1246   -51566.952   0.15276595 
     800    288.56236   -1002.8376    149885.02   -47487.675    3962.7091   -51450.385   0.16081393 
     900    291.00953   -1001.6167    149891.65   -47465.226    3996.3151   -51461.541   0.17576168 
    1000    293.12473   -1007.0293    149868.66   -47516.838    4025.3624   -51542.201   0.15343625 
    1100    292.70436   -972.21974    149881.89   -47460.368    4019.5896   -51479.957   0.16041055 
    1200    297.96884   -942.86135    149886.81   -47456.073    4091.8844   -51547.957    0.1602735 
    1300    290.21466   -1085.8954    149930.05   -47381.779    3985.3994   -51367.179   0.17315156 
    1400    293.51244   -1023.1487    149939.19   -47476.532    4030.6865   -51507.218   0.16661994 
    1500    287.63046   -1027.6299    149933.55   -47505.978    3949.9117    -51455.89   0.15810149 
    1600    297.00567   -994.90204    149910.17   -47433.057    4078.6576   -51511.715   0.16830929 
    1700    289.36162   -1033.2446    149897.16   -47456.749     3973.685   -51430.434   0.16179185 
    1800    291.27943   -1021.2079    149879.82   -47448.002    4000.0215   -51448.023   0.17518628 
    1900    296.07602   -1042.5383    149935.96   -47363.158    4065.8912   -51429.049   0.16678721 
    2000    296.39072   -996.06646    149953.98   -47310.738    4070.2128   -51380.951   0.16108093 
    2100    289.73463   -1031.7162    149918.61    -47483.97    3978.8075   -51462.777   0.17169049 
    2200    294.55379   -986.95829    149925.16   -47410.349     4044.987   -51455.336   0.15363598 
    2300    296.40407   -981.86467    149929.09   -47341.049    4070.3961   -51411.445   0.17453652 
    2400    296.97354   -989.05474    149920.69   -47372.228    4078.2164   -51450.444     0.171262 
    2500    297.85523   -1010.1509    149936.83   -47431.555    4090.3243    -51521.88   0.15486295 
    2600    295.31337   -1028.3442    149912.94   -47457.875    4055.4179   -51513.293   0.17519521 
    2700    300.66321   -992.32249    149906.19   -47426.935    4128.8852    -51555.82   0.14917504 
    2800    295.60714   -1012.3494    149924.45   -47329.101    4059.4523   -51388.553   0.17641098 
    2900    299.61159   -1000.8404    149938.25   -47351.306    4114.4437    -51465.75   0.16532704 
    3000    289.35952   -1013.5192    149907.87   -47407.387    3973.6562   -51381.043   0.17223211 
    3100    293.68943   -979.99038    149918.69   -47382.639    4033.1171   -51415.756   0.16135973 
    3200    292.01239   -1004.5168    149915.86   -47492.405     4010.087   -51502.492   0.15871932 
    3300    286.32031   -969.77405    149886.91   -47554.176    3931.9199   -51486.096   0.15480056 
    3400    289.89431   -1015.4389    149880.12   -47483.174    3981.0003   -51464.174   0.15986426 
    3500    297.24285   -980.66004    149883.31   -47453.159    4081.9147   -51535.074   0.16779465 
    3600    292.68921   -1018.4163    149884.46   -47460.088    4019.3815    -51479.47   0.16224572 
    3700    289.51123   -996.38406     149887.8   -47419.652    3975.7396   -51395.392    0.1617807 
    3800    294.05957   -988.15542    149903.58   -47413.831    4038.2001   -51452.031   0.17296979 
    3900    291.96062   -993.25845    149908.17   -47416.237     4009.376   -51425.613   0.16535529 
    4000    289.98042   -998.85858    149891.34   -47464.623    3982.1828   -51446.805   0.16153018 
    4100    290.16183    -1006.235    149868.97   -47475.191     3984.674   -51459.865   0.17033222 
    4200    292.47658   -976.08682    149901.22   -47433.894    4016.4615   -51450.355   0.15212549 
    4300    285.16546   -1011.4322    149839.02    -47566.16    3916.0609    -51482.22     0.173181 
    4400     293.5868   -977.60562    149898.28   -47454.742    4031.7077    -51486.45   0.15226794 
    4500    290.20714   -1024.9896    149875.63   -47518.861    3985.2962   -51504.157   0.17357017 
    4600    291.92694   -987.02232     149849.8   -47547.948    4008.9135   -51556.862   0.15622502 
    4700    296.18163   -1016.5352    149880.19   -47450.424    4067.3414   -51517.765     0.162501 
    4800      299.765   -984.88814    149882.16   -47344.104    4116.5504   -51460.654   0.16500037 
    4900    294.97465   -1006.6184    149915.79   -47310.414    4050.7665   -51361.181   0.16613131 
    5000    291.93954   -1039.6339    149924.77   -47446.412    4009.0866   -51455.498   0.16647947 
    5100    293.44031    -998.1579    149928.01   -47373.837    4029.6961   -51403.533   0.16073069 
    5200    294.22596   -967.94708    149920.03   -47435.551     4040.485   -51476.036   0.16742598 
    5300    288.47923   -1005.8427    149894.46   -47542.248    3961.5675   -51503.816   0.16335044 
    5400     294.7353   -987.22799    149892.48   -47507.303    4047.4797   -51554.783   0.15408644 
    5500    291.10158   -1007.5755    149917.71   -47471.106    3997.5792   -51468.686   0.17273756 
    5600    289.59286   -1008.0664    149901.93   -47509.342    3976.8605   -51486.202   0.16134661 
    5700    295.04584   -1015.4724    149904.18   -47502.046    4051.7442    -51553.79   0.15749169 
    5800    290.87289   -1022.3787    149904.34   -47446.838    3994.4387   -51441.277   0.17329429 
    5900    289.51957   -1015.5419    149891.76   -47526.958    3975.8541   -51502.812   0.15398134 
    6000    293.25265   -962.99798    149863.34   -47497.604     4027.119   -51524.723   0.16626834 
    6100    285.71622   -995.19816    149864.41   -47580.697    3923.6242   -51504.322   0.15468459 
    6200    293.55456   -974.07424    149853.79   -47556.474     4031.265   -51587.739   0.16390395 
    6300    292.43826   -1010.4198     149904.4   -47438.659    4015.9353   -51454.595   0.16725002 
    6400    294.13429   -1000.4211    149913.02   -47498.449    4039.2262   -51537.675   0.15604023 
    6500    291.99035    -988.1663    149882.72   -47509.604    4009.7843   -51519.389    0.1607866 
    6600    291.02287   -981.61293    149897.25   -47516.228    3996.4984   -51512.727   0.15452649 
    6700    289.71892   -1031.9144    149902.62   -47574.757    3978.5917   -51553.348   0.16293194 
    6800    290.10727   -1053.0879     149894.6   -47526.041    3983.9248   -51509.966   0.16864525 
    6900    295.83706   -999.30173    149938.72   -47449.049    4062.6096   -51511.659   0.15942079 
    7000     290.0992   -1041.1773    149916.32   -47447.174     3983.814   -51430.988   0.16966676 
    7100    290.26075   -993.46192    149925.72   -47454.482    3986.0324   -51440.515   0.15213775 
    7200    287.58323   -996.54177    149899.52   -47574.923    3949.2631   -51524.186   0.16273735 
    7300    287.01142    -988.6733    149873.25   -47621.017    3941.4107   -51562.427   0.15661537 
    7400    290.23677   -981.86288    149897.98   -47510.625    3985.7032   -51496.328   0.15705328 
    7500     296.7586   -975.43751     149914.5   -47442.987    4075.2648   -51518.252   0.16425629 
    7600    287.96311   -1008.7704    149930.27   -47413.976    3954.4799   -51368.456   0.15911693 
    7700    288.51798   -1041.2715    149900.41   -47508.049    3962.0997   -51470.149   0.16976111 
    7800    287.67146   -1014.9916    149910.09   -47575.792    3950.4747   -51526.267   0.16316508 
    7900    291.13397   -978.47057    149902.55   -47510.913     3998.024   -51508.937   0.15920847 
    8000     295.6358   -1010.6659    149945.02   -47413.991    4059.8457   -51473.837   0.15951287 
    8100    294.84111   -989.34635    149948.19   -47371.985    4048.9326   -51420.917   0.15991123 
    8200    292.99511   -1004.6607    149934.17   -47399.185    4023.5822   -51422.767    0.1618358 
    8300    297.27933   -1016.9136    149960.93   -47358.383    4082.4157   -51440.798   0.16886777 
    8400    294.95546   -1007.2344    149979.54   -47338.061    4050.5029   -51388.564   0.16512531 
    8500    295.98226    -995.5876     149964.7   -47430.164    4064.6035   -51494.767   0.16597883 
    8600    292.94315   -982.04577    149943.15   -47439.771    4022.8687   -51462.639   0.14917651 
    8700    293.77553   -1011.2699    149917.88   -47410.605    4034.2995   -51444.904   0.16703518 
    8800     293.8444   -981.97664    149913.22   -47448.864    4035.2452    -51484.11   0.15516847 
    8900     289.2722   -1019.7788    149899.22   -47517.747    3972.4571   -51490.205   0.16789477 
    9000    289.01908   -1011.7358    149912.25   -47435.328    3968.9811   -51404.309   0.15913274 
    9100    291.17196   -1012.2856    149921.99    -47492.28    3998.5457   -51490.826   0.15228397 
    9200    295.96309   -994.26017    149929.57   -47380.252    4064.3403   -51444.592   0.16764519 
    9300    290.51293   -992.91484    149918.44    -47535.77    3989.4956   -51525.266   0.15240771 
    9400    288.89449   -1021.4441    149925.53   -47494.953    3967.2702   -51462.223   0.16842913 
    9500    289.59167   -1036.9147    149945.09   -47543.847    3976.8442   -51520.691   0.15956174 
    9600    293.55844     -984.977    149915.23   -47536.538    4031.3182   -51567.857   0.15745342 
    9700    297.62786   -990.90969    149920.14   -47403.569    4087.2019   -51490.771   0.15379682 
    9800    290.36203   -1040.3885    149938.78   -47359.727    3987.4233    -51347.15   0.17232867 
    9900     294.0182   -986.07999    149917.01    -47391.59    4037.6319   -51429.222   0.16083797 
   10000    296.96006    -981.4031    149933.41   -47452.743    4078.0313   -51530.774   0.16200404 
   10100     294.0956    -1011.197    149933.24   -47403.179    4038.6948   -51441.874   0.16027368 
   10200    292.32938   -1033.3409    149928.82   -47370.568    4014.4401   -51385.008   0.16328242 
   10300     298.6591   -997.46622    149953.43   -47371.585    4101.3636   -51472.949   0.16061646 
   10400    295.35663   -975.31021    149933.79   -47368.242    4056.0121   -51424.254   0.16474193 
   10500     288.2841   -1038.8511     149921.7   -47421.206    3958.8879   -51380.093   0.16039427 
   10600    295.85259   -991.48778    149927.96   -47446.086    4062.8229   -51508.909   0.16013332 
   10700    295.57211   -1013.0292    149909.32   -47468.125    4058.9711   -51527.096   0.15767098 
   10800    288.04851   -999.46482    149872.29   -47599.267    3955.6527    -51554.92   0.15069708 
   10900     285.9643   -1056.6369    149848.18   -47582.331     3927.031   -51509.362   0.17326149 
   11000    285.31311   -1047.6175    149862.55    -47595.88    3918.0885   -51513.969   0.15891124 
   11100    290.32273   -1019.9546     149895.3   -47499.387    3986.8836   -51486.271   0.16621057 
   11200    292.67155   -996.07613    149897.85   -47609.619    4019.1389   -51628.758   0.15194769 
   11300    290.90748   -991.89542    149899.66   -47523.298    3994.9137   -51518.212   0.15232775 
   11400    289.27289   -996.71591    149920.68    -47501.67    3972.4665   -51474.137   0.16556756 
   11500    295.76483   -997.63101    149937.66   -47401.862    4061.6176    -51463.48   0.15757535 
   11600    290.68643   -1046.4287    149959.95   -47406.245    3991.8781   -51398.123    0.1649682 
   11700    299.94779   -999.16095     150014.8   -47268.489    4119.0606    -51387.55   0.15694631 
   11800    295.08671   -1011.7395    149991.07   -47344.889    4052.3053   -51397.194   0.16209445 
   11900    297.87123   -989.75232     149969.3    -47390.46     4090.544   -51481.004   0.15877778 
   12000    299.90496   -985.75096    149982.24   -47359.097    4118.4724   -51477.569    0.1564828 
   12100    291.47747   -1007.3894     149959.6    -47413.53    4002.7411   -51416.271   0.16752498 
   12200    297.36085   -1018.2169    149966.45   -47418.381    4083.5353   -51501.916   0.15134325 
   12300    294.24864   -984.46777    149919.93   -47473.462    4040.7965   -51514.259   0.15842798 
   12400    293.99244   -993.66579    149905.84   -47463.185    4037.2782   -51500.464    0.1600128 
   12500     298.0689    -1036.358    149925.74    -47399.88    4093.2586   -51493.139   0.16367329 
   12600     299.8053   -1012.7532    149933.85   -47355.671    4117.1039   -51472.775   0.16353235 
   12700    292.03456    -1010.744    149911.07   -47432.219    4010.3914    -51442.61   0.16676384 
   12800    296.27297   -958.51424     149906.3   -47418.294    4068.5958    -51486.89   0.15232721 
   12900    290.49707   -1006.7745    149891.03   -47476.944    3989.2777   -51466.221   0.16966927 
   13000    294.30914   -1002.6727    149910.01   -47452.718    4041.6274   -51494.345   0.15465461 
   13100    289.57757   -1026.7533    149882.49   -47528.993    3976.6506   -51505.643   0.16830981 
   13200    291.81972    -993.1612    149892.09   -47556.685    4007.4412   -51564.126   0.15572591 
   13300    287.96052   -1013.3919    149865.24   -47641.557    3954.4443   -51596.001    0.1546006 
   13400    288.13779   -1040.6229    149832.17   -47620.455    3956.8787   -51577.334   0.16682969 
   13500    294.75767   -1010.5689    149865.38   -47532.902    4047.7869   -51580.689    0.1521293 
   13600    287.56932   -1026.1759     149867.6   -47473.439    3949.0721   -51422.511   0.17382759 
   13700    292.03502    -1021.146    149908.21   -47515.108    4010.3977   -51525.506   0.14869345 
   13800    294.42869   -1005.5869    149922.09   -47460.433     4043.269   -51503.702   0.17027291 
   13900    296.12856   -980.70166    149908.33   -47451.348    4066.6127   -51517.961   0.15371696 
   14000    300.59945   -984.53926    149950.65   -47338.753    4128.0096   -51466.762   0.16394486 
   14100     292.8291   -999.48109    149940.82   -47427.902    4021.3025   -51449.205   0.16157196 
   14200    293.18105   -988.31707    149923.89   -47436.266    4026.1357   -51462.402   0.15781407 
   14300    293.25708   -972.80861    149923.31   -47473.479    4027.1798   -51500.659   0.16016087 
   14400    290.14874   -960.96854    149926.51    -47528.11    3984.4942   -51512.605   0.15383291 
   14500    287.92289   -980.75561    149902.79   -47541.737    3953.9275   -51495.665   0.15509858 
   14600    295.79768   -949.96786    149924.91   -47492.896    4062.0688   -51554.965   0.15398701 
   14700    290.58833   -991.94827     149947.4   -47447.527    3990.5309   -51438.058    0.1597848 
   14800     295.0306   -1024.6183    149947.14     -47425.5    4051.5348   -51477.034   0.15565179 
   14900    294.11186   -974.52532    149968.67   -47434.505    4038.9182   -51473.423   0.16116123 
   15000    287.77153   -1014.2217    149947.04   -47504.832     3951.849   -51456.681   0.15520807 
   15100    292.63834   -983.93723     149954.7   -47515.512     4018.683   -51534.195    0.1559225 
   15200    294.23952   -1043.6887     149946.3   -47442.642    4040.6712   -51483.313    0.1612046 
   15300    288.66034   -983.75238    149902.96    -47527.71    3964.0547   -51491.764   0.15998591 
   15400    290.17154   -999.10637    149908.05   -47523.573    3984.8073   -51508.381   0.15654745 
   15500    298.41024   -991.34314    149943.11   -47459.534     4097.946    -51557.48   0.15397742 
   15600    293.76322   -1025.5611    149951.41   -47330.803    4034.1305   -51364.934   0.16971644 
   15700     294.2454   -979.94963    149968.44   -47353.922     4040.752   -51394.674   0.15675716 
   15800    294.35668   -970.15845    149949.79   -47350.502    4042.2801   -51392.782   0.17107145 
   15900    294.36112   -976.83218    149976.94   -47375.767    4042.3412   -51418.108   0.15553857 
   16000    292.16019   -1000.5897    149930.38   -47419.884    4012.1167   -51432.001   0.16086906 
   16100     294.6333   -972.68512    149904.86   -47454.082    4046.0788   -51500.161   0.15829736 
   16200     293.7588   -987.96983    149905.55   -47462.901    4034.0698   -51496.971   0.16014131 
   16300    288.79338   -998.19879     149896.4   -47474.335    3965.8817   -51440.217   0.16970664 
   16400    289.63746   -1025.7998    149915.37   -47489.452    3977.4731   -51466.925   0.15951445 
   16500    294.02164   -1010.2285    149902.37    -47404.41    4037.6792   -51442.089    0.1682369 
   16600    297.56685   -978.76678    149913.13   -47325.511    4086.3641   -51411.875   0.15228068 
   16700    297.29645   -992.59217    149913.27   -47373.869    4082.6509    -51456.52   0.17265612 
   16800    292.48077     -998.616    149904.21   -47426.892    4016.5191   -51443.411   0.15375676 
   16900    295.48891   -991.23283    149896.82   -47458.776    4057.8287   -51516.605   0.16299056 
   17000    293.06135    -1008.882    149870.25    -47507.11    4024.4919   -51531.602   0.16100743 
   17100    293.94767   -1010.1868    149896.25   -47457.689    4036.6634   -51494.352   0.15326506 
   17200    293.62525    -1004.097    149873.34   -47516.228    4032.2358   -51548.464   0.16173563 
   17300     288.7034     -999.258    149849.32   -47610.821     3964.646   -51575.467   0.15647405 
   17400    285.45682   -1024.1685    149852.04   -47605.859    3920.0621   -51525.921   0.15753996 
   17500     292.8692   -998.93834    149871.48   -47497.207    4021.8532    -51519.06   0.16167528 
   17600    292.44945   -989.50158    149870.65   -47507.922    4016.0889   -51524.011   0.15761538 
   17700    291.28982   -1005.7768    149861.53   -47571.302    4000.1642   -51571.466   0.15406816 
   17800    293.58036   -999.67571    149838.49   -47513.202    4031.6193   -51544.822   0.16656773 
   17900    295.52776   -974.74982    149916.17   -47460.793    4058.3621   -51519.156   0.15344827 
   18000    295.14613   -1008.8064    149912.58   -47369.819    4053.1214    -51422.94   0.17172648 
   18100     298.1973    -1017.796    149950.69   -47383.511    4095.0219   -51478.533   0.15403023 
   18200    294.80739    -1025.771    149920.29   -47427.105    4048.4695   -51475.575   0.16375003 
   18300     291.4945   -1013.0348    149903.68   -47428.794    4002.9751    -51431.77   0.15866868 
   18400    293.57072    -995.1677    149927.41   -47536.324    4031.4869   -51567.811   0.15886333 
   18500    291.29041    -1012.817     149936.1   -47469.756    4000.1724   -51469.929    0.1648437 
   18600    297.15449   -993.86211    149945.05   -47423.219    4080.7013    -51503.92   0.14994182 
   18700    297.36921    -962.4408    149956.18   -47435.311      4083.65   -51518.962   0.16239038 
   18800    293.18694   -991.75194     149962.4    -47458.09    4026.2166   -51484.306   0.15132398 
   18900    296.19866   -992.58489    149968.77   -47415.504    4067.5753   -51483.079   0.16288376 
   19000    290.30314   -1033.9586    149961.71    -47449.22    3986.6145   -51435.835   0.16616946 
   19100    296.48831   -973.71728     149980.5   -47361.594    4071.5529   -51433.147   0.15121017 
   19200    299.36013   -982.78884    149962.78   -47385.549    4110.9905   -51496.539   0.16314559 
   19300    302.84702   -995.58234    149983.39   -47278.762    4158.8745   -51437.636   0.15578935 
   19400    299.97737   -992.60509    149945.43   -47342.497    4119.4668   -51461.964    0.1626774 
   19500    293.91371   -1033.4536     149948.4   -47343.374    4036.1971   -51379.571   0.16842776 
   19600    294.95789   -978.74128    149947.25   -47335.438    4050.5364   -51385.975   0.16057242 
   19700    296.06991   -1011.5864    149938.67   -47386.135    4065.8072   -51451.942   0.16232727 
   19800    300.08607   -953.01889       149942   -47335.117    4120.9596   -51456.076   0.15803409 
   19900    296.21892   -986.52555    149950.78   -47419.616    4067.8535    -51487.47   0.16348294 
   20000    294.28519   -995.91804    149949.83   -47451.813    4041.2984   -51493.112   0.16268106 
   20100    289.42244   -1041.1229    149934.27   -47493.368    3974.5202   -51467.888   0.16149401 
   20200    294.31448   -1027.6989    149944.49   -47466.224    4041.7006   -51507.925    0.1597005 
   20300    298.01156      -998.03    149962.98   -47429.958    4092.4711   -51522.429   0.15870926 
   20400    289.19512   -1064.8621    149974.32    -47498.24    3971.3986   -51469.639   0.16352619 
   20500    291.14055   -1016.8201    149907.81   -47533.869    3998.1143   -51531.984   0.16440563 
   20600    285.69263   -988.46957    149921.63   -47555.188    3923.3002   -51478.488   0.15562333 
   20700    289.60814   -977.27851    149911.25   -47492.602    3977.0704   -51469.672    0.1667835 
   20800    295.63242   -984.70946     149958.1   -47361.394    4059.7994   -51421.194    0.1574428 
   20900    292.79777   -990.70215    149969.65   -47462.647    4020.8723    -51483.52   0.16317368 
   21000    288.63061   -1023.0337     149968.6   -47474.388    3963.6463   -51438.034   0.16318822 
   21100     299.3596   -975.26665    149977.94    -47354.91    4110.9832   -51465.893   0.16313576 
   21200     299.0598   -999.46156    149968.47   -47367.747    4106.8662   -51474.613   0.16360884 
   21300    296.73088    -1031.403    149994.94   -47369.381    4074.8841   -51444.265   0.16788282 
   21400    296.69245    -973.1989    149957.12   -47396.709    4074.3564   -51471.065   0.15911143 
   21500    296.90677   -959.70957     149980.4    -47305.24    4077.2995    -51382.54   0.16403581 
   21600    297.91198   -972.89866    149967.47   -47308.119    4091.1037   -51399.222   0.16922416 
   21700    291.56959    -1024.974    149954.52   -47446.305    4004.0062   -51450.312   0.16125467 
   21800    293.32285   -1020.4106    149912.41   -47478.769     4028.083   -51506.852   0.16398613 
   21900    291.40112   -995.11463     149885.2   -47445.272    4001.6927   -51446.965   0.16294894 
   22000     291.7301    -980.6363    149892.95   -47479.373    4006.2104   -51485.584   0.15848775 
   22100    296.89305   -1019.4563    149898.45   -47530.219     4077.111    -51607.33   0.16323854 
   22200    287.74916   -1047.4941    149874.38   -47612.042    3951.5418   -51563.584   0.16466692 
   22300    294.65273   -1007.3564    149916.75   -47497.127    4046.3456   -51543.473   0.15577639 
   22400    291.62452   -1007.5305     149933.8   -47444.879    4004.7605   -51449.639   0.17179183 
   22500    291.39683   -997.67154    149917.79   -47394.808    4001.6337   -51396.442   0.15591708 
   22600    291.59642   -1028.9343    149888.81   -47439.435    4004.3746    -51443.81    0.1710591 
   22700    289.86065    -996.4598    149863.12   -47497.107     3980.538   -51477.646   0.16017107 
   22800    296.57302   -1008.8322    149883.38   -47427.434    4072.7162    -51500.15    0.1647769 
   22900    290.49309    -1033.591    149879.09   -47463.042     3989.223   -51452.265   0.16103889 
   23000    289.75996    -1023.789    149841.48   -47530.176    3979.1552   -51509.331   0.16348607 
   23100    291.39075    -978.9483    149890.06   -47468.449    4001.5502   -51469.999   0.16224729 
   23200    293.56954   -987.22997    149909.26   -47415.679    4031.4708    -51447.15    0.1597842 
   23300     295.7843   -1000.8737    149904.63   -47413.946     4061.885   -51475.831   0.16713443 
   23400    288.42956   -1017.2747    149886.67   -47461.874    3960.8855    -51422.76   0.15744171 
   23500     296.2284    -979.7244    149916.86   -47350.469    4067.9837   -51418.452   0.16694066 
   23600    296.29253   -972.00672    149921.97    -47366.73    4068.8645   -51435.594   0.16295816 
   23700    294.97972   -1002.8908    149944.58    -47366.35    4050.8361   -51417.186   0.16006311 
   23800    296.84108   -1008.6924    149961.77    -47373.15    4076.3974   -51449.547   0.16883804 
   23900    293.83259   -992.72394    149932.08   -47465.533    4035.0831   -51500.616   0.16167635 
   24000    294.34708   -985.22217    149926.94   -47409.123    4042.1483   -51451.271   0.15664596 
   24100    295.74454   -958.66831    149926.74   -47335.981     4061.339    -51397.32   0.16770493 
   24200    288.44583   -1040.3739    149941.63   -47460.372    3961.1089   -51421.481   0.16299022 
   24300    290.19932   -1020.6054    149919.33   -47502.196    3985.1888   -51487.385   0.16038791 
   24400    290.48275   -989.74946    149895.11   -47527.953    3989.0811   -51517.035   0.16034116 
   24500    292.86346   -977.08503    149915.75   -47479.735    4021.7744   -51501.509   0.15477295 
   24600    286.74679   -985.33943    149907.22   -47530.022    3937.7767   -51467.799    0.1660033 
   24700    290.35668   -980.07706    149915.91   -47534.231    3987.3498   -51521.581   0.15730595 
   24800    289.71145   -964.86121    149931.05   -47476.595    3978.4892   -51455.084   0.15514084 
   24900    290.04184    -990.8627    149907.72   -47535.767    3983.0263   -51518.793   0.16261368 
   25000    291.36218   -985.10699    149903.82   -47520.401    4001.1579   -51521.559   0.15509152 
   25100    285.11241   -1000.3408    149891.11   -47571.106    3915.3324   -51486.439   0.16203909 
   25200    282.97927   -1001.4364    149850.62   -47707.848    3886.0388   -51593.886   0.15107424 
   25300     288.6327   -995.09578    149859.78   -47540.469    3963.6751   -51504.144   0.16423961 
   25400    287.84487   -976.47145    149889.45   -47584.464    3952.8562    -51537.32   0.14945136 
   25500    292.92826   -984.11616    149918.52   -47471.362    4022.6643   -51494.027   0.16212336 
   25600    296.01934   -969.37602    149950.28   -47389.838    4065.1128   -51454.951   0.15779995 
   25700    295.79656   -997.15654    149931.45   -47488.025    4062.0534   -51550.078   0.15749808 
   25800    296.71695    -1006.003    149944.45   -47336.958    4074.6927   -51411.651   0.16536557 
   25900    295.36934   -1052.2984    149953.34   -47365.461    4056.1866   -51421.648   0.16343798 
   26000    294.93687   -1033.9978    149934.93   -47411.298    4050.2477   -51461.546   0.16379522 
   26100    298.76454   -951.64729    149952.17   -47391.109    4102.8114   -51493.921   0.15562827 
   26200    286.11877   -1027.1286    149926.47   -47506.664    3929.1523   -51435.817   0.16484783 
   26300    288.43575   -1001.9528    149908.06   -47457.464    3960.9704   -51418.434   0.15592922 
   26400    289.90483   -967.28957    149905.16   -47518.961    3981.1447   -51500.106   0.16713977 
   26500    291.36362   -1001.1668    149933.06   -47431.469    4001.1777   -51432.647   0.15228618 
   26600    289.37366   -1020.2208     149936.3   -47372.848    3973.8504   -51346.698    0.1673924 
   26700    295.88808   -986.83754    149948.98   -47377.815    4063.3102   -51441.125   0.16103316 
   26800    294.94448   -1014.8923    149941.95    -47427.73    4050.3522   -51478.083   0.15960076 
   26900    292.94986   -932.24642     149967.3   -47362.368    4022.9609   -51385.329   0.16212556 
   27000    295.18596   -998.62596    149990.42   -47403.871    4053.6683   -51457.539   0.15701669 
   27100    297.04952   -1011.5734    149955.07   -47341.736    4079.2598   -51420.995    0.1660108 
   27200    296.36989   -1006.5324    149960.01    -47418.21    4069.9267   -51488.137   0.15558302 
   27300    299.39906    -998.9628    149972.23   -47243.387    4111.5252   -51354.912   0.16692806 
   27400    297.10123   -988.00288    149966.86   -47371.129    4079.9699   -51451.099   0.15780933 
   27500    291.56932   -1009.8479    149946.49   -47478.706    4004.0025   -51482.709   0.16143128 
   27600    288.14438   -996.48028    149901.48   -47524.471    3956.9692   -51481.441   0.15615957 
   27700    296.31284   -953.87847    149909.08   -47421.114    4069.1433   -51490.257   0.16212517 
   27800    297.87218   -1000.4823    149935.15   -47400.605     4090.557   -51491.162   0.16015032 
   27900    293.30303   -1028.7586    149923.74   -47467.401    4027.8109   -51495.212   0.16092134 
   28000    293.72039   -992.79759    149886.97   -47538.701    4033.5423   -51572.244   0.15539736 
   28100    289.67995   -988.58135    149892.42   -47511.365    3978.0565   -51489.421   0.15484521 
   28200    291.47966   -999.76154    149911.82   -47478.746    4002.7712   -51481.517   0.16609484 
   28300    294.45866   -1006.7389    149896.49   -47498.208    4043.6806   -51541.888   0.15042968 
   28400    293.67149   -1005.1252    149933.57   -47432.858    4032.8707   -51465.729   0.16506495 
   28500    295.94447   -1029.8024    149934.51   -47466.843    4064.0847   -51530.928   0.15378222 
   28600    294.81356   -1002.4422    149908.95   -47474.776    4048.5543   -51523.331   0.15329467 
   28700    291.82885   -1026.6113    149917.25   -47475.867    4007.5665   -51483.433   0.16585662 
   28800    291.80226   -1002.6544    149880.91   -47512.263    4007.2014   -51519.464   0.15322986 
   28900    292.78997   -1019.0722     149881.8   -47483.365    4020.7651    -51504.13    0.1631092 
   29000    295.21429   -998.88261    149887.79   -47423.172    4054.0573   -51477.229   0.16010998 
   29100    294.21896   -1015.9991    149918.32   -47421.858    4040.3889   -51462.247   0.16128185 
   29200    297.56079   -1014.6055    149927.66   -47353.978    4086.2809   -51440.259   0.16411444 
   29300    292.51019   -1020.2563    149906.91   -47354.516     4016.923   -51371.439   0.16625444 
   29400    295.97423   -942.16908    149924.93   -47373.149    4064.4934   -51437.642   0.15569861 
   29500    296.85471   -1010.6938    149901.42   -47414.942    4076.5846   -51491.526   0.16313968 
   29600    297.11279   -994.12472    149923.91   -47390.141    4080.1286    -51470.27   0.15906616 
   29700     293.2977   -1012.9692    149877.43   -47460.955    4027.7376   -51488.693   0.16265566 
   29800    294.09068    -1058.193    149872.99   -47554.241    4038.6272   -51592.869    0.1592814 
   29900    287.21256   -997.75931    149888.44    -47532.92    3944.1729   -51477.093   0.16142656 
   30000    287.37233   -989.09568    149878.51   -47491.902    3946.3669   -51438.269   0.16290514 
   30100    294.77938   -972.98102    149914.88   -47473.081    4048.0849   -51521.166   0.15403544 
   30200    291.65006   -957.21848    149892.52   -47477.857    4005.1113   -51482.968   0.16651061 
   30300     292.7037   -1005.8084    149927.59   -47470.281    4019.5805   -51489.862   0.15003041 
   30400    290.42424   -1037.9149    149908.69   -47508.959    3988.2775   -51497.236   0.17208414 
   30500    287.80851   -1035.0967    149868.97   -47605.403    3952.3569    -51557.76    0.1516615 
   30600    292.20955   -968.71199     149868.4   -47479.959    4012.7945   -51492.754   0.15647685 
   30700    294.46945   -978.91225    149884.81   -47508.202    4043.8288   -51552.031   0.16210841 
   30800    297.20929   -1012.4314     149888.6   -47440.896    4081.4539    -51522.35   0.15372421 
   30900    292.29328   -984.54756     149924.8   -47416.853    4013.9443   -51430.797   0.16261517 
   31000    292.80576   -1016.9468    149915.21   -47454.471     4020.982   -51475.453   0.16538936 
   31100    289.16899   -1043.1677       149930   -47467.578    3971.0398   -51438.617   0.16008024 
   31200    294.32551   -994.33825    149924.36   -47408.763    4041.8521   -51450.615   0.16132054 
   31300     300.7083   -987.30734    149962.31   -47346.231    4129.5043   -51475.735    0.1622359 
   31400    292.95926   -962.55965     149955.8   -47467.268      4023.09   -51490.358   0.15166065 
   31500    297.65216    -996.9922    149956.99   -47415.736    4087.5356   -51503.272   0.16484554 
   31600    297.00217   -992.38323    149944.89   -47435.765    4078.6095   -51514.374   0.15738503 
   31700    293.23779   -1020.4516    149945.09   -47406.866    4026.9149   -51433.781    0.1652271 
   31800    298.43777   -1018.5371    149930.73   -47474.358    4098.3241   -51572.682   0.16088328 
   31900    291.94616   -996.02406    149935.25    -47463.51    4009.1775   -51472.688   0.15858005 
   32000     292.9051   -1005.3426    149906.59   -47411.112    4022.3462   -51433.458   0.16359322 
   32100    292.15764   -1035.5008    149900.09   -47453.042    4012.0816   -51465.123   0.16714172 
   32200    284.68376   -986.20955    149900.73   -47573.649    3909.4459   -51483.095   0.15694087 
   32300    292.62885   -991.89334    149904.65   -47517.556    4018.5526   -51536.109   0.15766564 
   32400    287.69597   -1012.9392    149902.87   -47614.181    3950.8113   -51564.993   0.16298637 
   32500     291.5354   -957.81954    149910.32   -47468.549    4003.5367   -51472.086   0.15867818 
   32600    291.65038   -993.68211    149916.16   -47422.388    4005.1156   -51427.503   0.16627249 
   32700    291.00936   -1012.2188    149898.39   -47514.097    3996.3128    -51510.41    0.1651088 
   32800    296.12838   -999.17891    149941.85   -47380.678    4066.6103   -51447.288   0.16257866 
   32900    294.75595   -996.77829    149915.48   -47449.646    4047.7632   -51497.409   0.16598237 
   33000    294.51749   -1024.9252    149933.43   -47442.542    4044.4886    -51487.03   0.15874156 
   33100    291.06943   -959.66776    149914.47   -47467.792    3997.1377   -51464.929   0.16351066 
   33200    293.48597   -964.11684    149934.57   -47444.064     4030.323   -51474.387   0.15591109 
   33300    294.12872   -1026.1826    149939.16   -47454.486    4039.1496   -51493.636   0.16903488 
   33400    290.29749   -985.89438    149916.47   -47465.597    3986.5369   -51452.133   0.15596819 
   33500    291.93507   -1001.4719    149911.94   -47495.461    4009.0252   -51504.486   0.16665295 
   33600    289.65226   -1013.8099    149910.61   -47507.542    3977.6763   -51485.218   0.15822396 
   33700    292.92045   -997.16499    149936.76   -47406.575     4022.557   -51429.132    0.1589911 
   33800      304.256   -965.83171    149961.31   -47288.752    4178.2235   -51466.975   0.16996139 
   33900    301.20621   -1026.4897    149941.74    -47321.84     4136.342   -51458.182   0.16187615 
   34000     293.2728   -1017.9154    149916.13   -47468.989    4027.3957   -51496.385   0.16464334 
   34100    295.00513   -987.57671    149909.73     -47485.5    4051.1851   -51536.686   0.16058539 
   34200    288.11942   -996.59584    149909.52   -47486.833    3956.6264   -51443.459   0.16195837 
   34300     290.7805   -995.94013    149911.06   -47526.824    3993.1699   -51519.994   0.16082307 
   34400    294.91276   -952.02641    149930.03   -47448.591    4049.9166   -51498.507   0.16237021 
   34500    292.52361   -976.26997    149935.29   -47370.555    4017.1073   -51387.662   0.16157122 
   34600    293.31962   -1014.5989    149962.65   -47367.796    4028.0386   -51395.835   0.17525874 
   34700    290.53119   -974.49675    149941.49   -47483.949    3989.7463   -51473.695   0.15426459 
   34800    290.95609   -1035.0115    149920.82   -47482.373    3995.5812   -51477.954   0.17273861 
   34900    293.79185   -976.74139    149910.45   -47458.562    4034.5236   -51493.085   0.15597935 
   35000    294.49538   -967.33491     149948.4   -47438.502    4044.1849   -51482.686   0.16399001 
   35100    297.10188   -988.81665    149932.72   -47449.317    4079.9788   -51529.296   0.15786842 
   35200    295.84746   -940.20799    149967.96   -47390.922    4062.7525   -51453.674   0.15772923 
   35300    289.03207   -1028.0702    149942.87   -47477.706    3969.1595   -51446.865    0.1723524 
   35400    296.34477   -1018.9557    149918.65   -47481.007    4069.5818   -51550.589   0.15729673 
   35500    298.36636   -1010.9915    149930.79   -47467.285    4097.3435   -51564.628   0.16296781 
   35600    295.59297   -981.85854    149936.64   -47434.413    4059.2576   -51493.671   0.16103392 
   35700    296.50629   -976.22279    149936.49   -47447.674    4071.7999   -51519.474   0.15563605 
   35800    300.56498   -982.46526     149986.9   -47276.086    4127.5362   -51403.623   0.17006038 
   35900    292.10229   -991.40326       149958   -47395.123    4011.3215   -51406.445   0.16301442 
   36000    292.67765    -998.6205     149974.2   -47459.867    4019.2227    -51479.09   0.15659694 
   36100    288.72863   -1000.7801    149944.55   -47499.704    3964.9925   -51464.696   0.16161653 
   36200    289.89804   -1011.0007    149933.28   -47532.747    3981.0515   -51513.799   0.15540956 
   36300    288.10241   -984.54968    149927.75   -47463.189    3956.3928   -51419.582    0.1642109 
   36400    289.65831   -1023.6746    149935.05   -47523.638    3977.7594   -51501.397   0.16369893 
   36500    294.41563     -984.365    149950.95   -47496.208    4043.0897   -51539.298   0.15668109 
   36600    292.80397   -1011.4945    149956.15   -47494.407    4020.9575   -51515.365   0.15686278 
   36700    289.18337   -1034.2001     149938.7   -47536.777    3971.2372   -51508.014   0.15958921 
   36800    286.96514   -1029.4783    149905.02   -47610.216    3940.7752   -51550.991   0.16068371 
   36900     287.9634   -1027.8545     149894.7   -47521.208    3954.4839   -51475.692   0.15988333 
   37000    291.47641   -1009.8994    149901.12   -47512.009    4002.7266   -51514.736   0.16423566 
   37100    288.05886   -1023.2669    149893.92   -47554.392    3955.7948   -51510.187   0.15853263 
   37200    292.48108   -1010.7644    149887.78    -47558.06    4016.5234   -51574.583   0.15175328 
   37300    289.74093   -1017.5977    149867.85   -47548.986    3978.8939    -51527.88   0.17154148 
   37400    286.38769   -1009.2793    149887.09   -47563.655    3932.8453     -51496.5   0.15278319 
   37500    292.72066   -1013.5632    149915.96    -47538.86    4019.8134   -51558.674   0.16180802 
   37600    288.76288   -997.09543    149873.95   -47580.558    3965.4628   -51546.021   0.15780633 
   37700    290.27735   -999.36049    149848.65   -47662.653    3986.2604   -51648.913    0.1521668 
   37800     288.6744   -998.07639    149823.97   -47677.724    3964.2477   -51641.971   0.15716735 
   37900    291.32535   -1004.3727    149863.21   -47586.005    4000.6521   -51586.657   0.15912513 
   38000    290.44986   -1003.4923    149885.71   -47513.209    3988.6295   -51501.838   0.16079066 
   38100    295.58648   -984.35562    149903.09   -47457.445    4059.1686   -51516.613   0.16249701 
   38200    291.25148   -962.76762    149912.61   -47421.483    3999.6377   -51421.121   0.16118381 
   38300    291.38953   -982.33853    149910.24   -47474.823    4001.5336   -51476.356   0.15430211 
   38400     294.0896   -1011.3526    149928.26   -47407.946    4038.6124   -51446.558   0.17375178 
   38500     293.8592   -1029.9121    149931.42   -47469.216    4035.4485   -51504.664   0.15771334 
   38600     290.4855   -1017.2244     149931.2   -47430.105    3989.1188   -51419.224   0.16640207 
   38700    296.99106   -967.16618    149932.66   -47396.487     4078.457   -51474.944   0.16491567 
   38800    294.20202   -988.51065    149950.02   -47434.462    4040.1563   -51474.618   0.15978428 
   38900    299.89845   -986.56199    149977.41    -47379.27     4118.383   -51497.653    0.1557686 
   39000    293.09196   -1005.2811    149963.72   -47439.201    4024.9123   -51464.113   0.16795898 
   39100    292.21872   -1023.0679     149951.2   -47456.771    4012.9204   -51469.691    0.1587378 
   39200     287.8717   -1041.8358    149929.18   -47587.584    3953.2246   -51540.809   0.16495724 
   39300    286.53639    -988.3147    149883.04    -47589.66    3934.8873   -51524.547   0.15417476 
   39400    293.14337   -1007.2514    149925.15   -47463.289    4025.6183   -51488.907   0.15827581 
   39500    295.47033   -967.68392    149938.94   -47444.637    4057.5735    -51502.21   0.16620666 
   39600    293.94897   -1025.9028    149938.68   -47446.913    4036.6812   -51483.594   0.16170412 
   39700    292.62846   -999.91717    149936.49   -47430.352    4018.5472   -51448.899   0.15989631 
   39800    292.61256   -988.16914    149919.83   -47453.968    4018.3289   -51472.297   0.16072937 
   39900     291.2544   -1008.4041    149942.77   -47415.577    3999.6779   -51415.254   0.16630076 
   40000    289.03243   -1016.2981    149919.07   -47484.568    3969.1644   -51453.732   0.15649586 
   40100    287.56741   -1037.0542    149938.99   -47504.093    3949.0459   -51453.139   0.16839741 
   40200    291.12442    -1001.752    149938.73   -47477.945    3997.8929   -51475.838   0.15992778 
   40300    291.34351   -962.72768    149919.14   -47484.896    4000.9015   -51485.797   0.15275089 
   40400    290.85701   -994.23662    149921.74   -47569.909    3994.2206   -51564.129   0.16162297 
   40500    295.76924   -978.50352    149935.08    -47428.24    4061.6782   -51489.918   0.15687457 
   40600    297.20748   -978.56016    149958.84   -47507.345     4081.429   -51588.774   0.16057446 
   40700    294.00641   -983.08867    149913.82   -47503.763      4037.47   -51541.233   0.15766184 
   40800    292.54301   -1017.1945    149932.97   -47483.767    4017.3738   -51501.141   0.15593641 
   40900    295.31607   -989.46446    149894.65   -47468.207     4055.455   -51523.662   0.16260069 
   41000     290.2382   -1012.4703    149919.65   -47541.665    3985.7227   -51527.387   0.15872742 
   41100    289.83977   -997.63929    149878.54   -47504.747    3980.2512   -51484.999   0.16304368 
   41200    301.72171   -1033.7467    149909.46    -47393.11    4143.4211   -51536.531   0.16316388 
   41300    294.09744    -1021.832    149900.01   -47474.495    4038.7201   -51513.215   0.16158183 
   41400    292.92064   -982.34342    149914.69   -47412.385    4022.5596   -51434.945   0.16449289 
   41500    290.99533   -1000.5756     149928.9   -47430.714    3996.1201   -51426.834   0.16348552 
   41600    291.01165   -1031.3272    149962.69   -47446.096    3996.3442   -51442.441   0.16263785 
   41700      289.717   -958.22673    149928.63   -47555.586    3978.5653   -51534.152   0.15741964 
   41800    291.91537   -983.50182    149941.34    -47464.87    4008.7547   -51473.625   0.15178188 
   41900    288.09206   -1028.1969    149914.97   -47548.117    3956.2506   -51504.367   0.16891588 
   42000    290.70235   -964.00447     149909.7   -47513.559    3992.0967   -51505.656   0.14929486 
   42100    286.44071   -979.88503    149902.49   -47597.358    3933.5734   -51530.931   0.16165356 
   42200    285.95529   -974.12996    149885.73   -47546.242    3926.9073    -51473.15   0.15623706 
   42300    293.52042   -990.22208    149924.64   -47516.469    4030.7962   -51547.265   0.15135692 
   42400     288.7266   -1024.1206    149927.32    -47535.32    3964.9646   -51500.284   0.16877844 
   42500    290.67618   -991.08032    149938.04    -47498.24    3991.7373   -51489.978   0.14943873 
   42600    293.85859   -1032.2518    149931.78   -47537.604      4035.44   -51573.044   0.16095826 
   42700    289.91595   -1018.6784    149913.99   -47607.266    3981.2974   -51588.564   0.15379279 
   42800    287.87741    -991.8419    149916.38   -47520.438    3953.3029   -51473.741   0.16464992 
   42900    292.58809   -967.67416    149896.25   -47533.265    4017.9929   -51551.258    0.1505312 
   43000     290.1539   -1005.0183    149921.32   -47555.387    3984.5651   -51539.952   0.15992961 
   43100    290.28171   -1066.4891    149922.62   -47476.309    3986.3202   -51462.629   0.16150364 
   43200    293.73318   -1030.0915    149917.42   -47491.446    4033.7179   -51525.164   0.15727703 
   43300    294.34106    -988.9952    149895.81   -47481.635    4042.0656     -51523.7   0.15882999 
   43400    295.83191   -976.77631    149933.27    -47415.23    4062.5389   -51477.769   0.15878998 
   43500     289.9205    -1046.948    149925.16    -47473.65    3981.3599    -51455.01   0.16228272 
   43600    291.29542   -997.80963     149907.8   -47517.553    4000.2411   -51517.794   0.16035912 
   43700    295.10559   -972.19315    149865.51   -47553.377    4052.5647   -51605.942   0.15234558 
   43800     289.1469   -1020.4958    149887.47   -47595.455    3970.7364   -51566.192   0.16009714 
   43900    290.85085   -987.54042    149877.91   -47503.591    3994.1361   -51497.727   0.16391156 
   44000    287.21358   -991.16227    149887.59   -47592.215    3944.1868   -51536.401   0.15083639 
   44100    292.61755    -965.1874    149890.02   -47548.281    4018.3974   -51566.678   0.16881347 
   44200    289.35197   -988.56074    149894.27   -47507.476    3973.5525   -51481.028   0.15407421 
   44300     292.6009   -979.40515    149923.96    -47509.31    4018.1688   -51527.478   0.15487559 
   44400    296.89559   -971.40919    149916.31   -47523.301     4077.146   -51600.447   0.15910953 
   44500     288.6789   -1017.5846    149915.77   -47529.888    3964.3095   -51494.197   0.15735392 
   44600    289.99788   -990.48367    149937.47   -47536.277    3982.4225     -51518.7   0.15832144 
   44700    292.16544   -973.21125    149924.38   -47519.218    4012.1888   -51531.407   0.15630814 
   44800    295.51021   -981.77751    149923.21   -47477.128    4058.1211   -51535.249   0.15733192 
   44900    299.17062   -987.96077    149933.46   -47465.806    4108.3881   -51574.194   0.15161479 
   45000    294.58187   -982.41878    149915.94   -47510.295    4045.3726   -51555.668   0.16335152 
   45100    290.90904     -1001.91    149946.39   -47392.748    3994.9351   -51387.683   0.15622488 
   45200    293.01687   -1009.4269    149955.65   -47430.665     4023.881   -51454.546    0.1624431 
   45300    295.14733   -974.19661    149953.62   -47451.451    4053.1379   -51504.589    0.1583405 
   45400      298.636   -938.26565    149961.37   -47519.186    4101.0464   -51620.232   0.14257772 
   45500     293.7931   -975.04578    149951.08   -47456.753    4034.5408   -51491.294   0.16613083 
   45600    292.62891   -996.78058    149972.25   -47455.169    4018.5534   -51473.722    0.1569697 
   45700    294.21944   -991.74805    149976.67   -47406.058    4040.3955   -51446.453   0.16201518 
   45800    292.35594   -1011.9885    149967.71   -47480.215    4014.8049   -51495.019   0.16036477 
   45900     296.9304   -1004.1176    149978.46   -47341.401     4077.624   -51419.025   0.15890175 
   46000    296.01271   -999.69381    149988.38   -47412.041    4065.0217   -51477.063   0.16048422 
   46100     302.1948   -980.44283    149997.43    -47315.01    4149.9179   -51464.928    0.1644874 
   46200    300.60029   -979.99182    149978.83   -47372.122    4128.0211   -51500.143   0.15371171 
   46300      297.612   -978.98639    149978.85   -47365.597    4086.9842   -51452.581   0.16081195 
   46400     293.0892   -980.63803    149947.53   -47404.223    4024.8743   -51429.098   0.15722961 
   46500    295.67735   -1004.3868    149955.18   -47374.506    4060.4164   -51434.923    0.1617069 
   46600    290.94859   -1024.6611    149920.32   -47428.072    3995.4783   -51423.551   0.15962969 
   46700     301.1852   -979.72209    149959.17   -47365.334    4136.0534   -51501.388   0.15742521 
   46800    297.83089   -984.23311    149954.74   -47377.886      4089.99   -51467.876   0.16310657 
   46900    292.62883   -1006.0246    149935.88   -47435.626    4018.5523   -51454.178   0.15262143 
   47000    299.03125    -1016.873    149934.35   -47466.307    4106.4741   -51572.781   0.16792068 
   47100    290.98901   -1012.4828    149942.62   -47477.047    3996.0334    -51473.08   0.14992038 
   47200    294.16121   -991.97455    149944.01   -47444.422    4039.5958   -51484.017   0.16245912 
   47300    286.58291   -1001.5406    149921.04     -47564.8    3935.5261   -51500.327    0.1551719 
   47400    296.54273   -943.07131     149949.9    -47502.03    4072.3003    -51574.33   0.15220599 
   47500    294.64915   -967.22323    149944.92   -47503.928    4046.2966   -51550.225   0.15722587 
   47600    292.10712   -1001.1405    149977.84   -47504.407    4011.3878   -51515.795   0.15064291 
   47700    299.25164   -1002.2286    149966.22   -47426.377    4109.5007   -51535.877   0.16599806 
   47800      292.981   -1002.3433    149965.27   -47483.464    4023.3885   -51506.853   0.15521065 
   47900    290.32641   -996.37421    149963.23   -47539.773     3986.934   -51526.707   0.15553731 
   48000    292.22599   -991.52153     149974.1   -47496.708    4013.0203   -51509.729   0.15895692 
   48100    291.44396   -1018.4676    149971.98   -47541.371    4002.2809   -51543.652   0.15478474 
   48200    288.23168    -1004.069    149942.45   -47528.903     3958.168   -51487.071   0.16296642 
   48300    290.44249   -966.81414    149960.81   -47477.065    3988.5282   -51465.593   0.15933231 
   48400    289.14043    -1020.079    149967.94   -47517.962    3970.6475   -51488.609   0.15622637 
   48500    285.15203   -1015.4568    149910.64    -47605.17    3915.8764   -51521.046   0.16758816 
   48600    288.27849   -991.22799    149907.46    -47595.15    3958.8108    -51553.96   0.15043914 
   48700    292.66682    -998.0275    149933.17   -47488.683     4019.074   -51507.757   0.16240167 
   48800    291.37234   -971.89817    149942.29   -47475.285    4001.2974   -51476.583   0.16107035 
   48900    289.79282   -1019.1826    149938.31    -47501.24    3979.6065   -51480.846   0.15653861 
   49000    293.77714   -979.18341    149934.46   -47540.822    4034.3216   -51575.144    0.1646797 
   49100    297.52374   -960.86042    149942.29   -47455.473    4085.7721   -51541.245   0.15385109 
   49200    293.35136   -994.63452       149955   -47492.151    4028.4745   -51520.626   0.16265271 
   49300    290.31531   -986.69431     149945.9   -47557.535    3986.7816   -51544.317   0.15975872 
   49400    284.25679   -1012.9269    149949.89    -47574.09    3903.5825   -51477.672   0.16197637 
   49500    291.34196   -1010.0644    149934.66   -47503.247    4000.8803   -51504.127   0.16130339 
   49600    294.89379   -986.85516     149945.7   -47508.947    4049.6561   -51558.603   0.15858498 
   49700    293.39198   -972.16927    149938.43   -47509.664    4029.0323   -51538.696   0.15941509 
   49800     290.4277   -1003.2847    149941.15   -47522.597    3988.3251   -51510.922   0.15604565 
   49900    292.60964   -956.64847    149919.05   -47494.529    4018.2888   -51512.818   0.16548778 
   50000    294.49923   -985.89791    149959.55    -47509.95    4044.2377   -51554.188    0.1534574 
   50100    297.37885   -977.84521    149978.15   -47367.474    4083.7824   -51451.256   0.16636668 
   50200    295.79233   -1016.2326       149974   -47443.558    4061.9954   -51505.554   0.16299944 
   50300    292.91632   -1023.8715       149961   -47459.591    4022.5002   -51482.091   0.16045284 
   50400    289.90003   -1005.6794     149941.6   -47477.566    3981.0789   -51458.645   0.16488602 
   50500    294.02378    -980.5284    149956.18   -47380.486    4037.7086   -51418.194   0.16495714 
   50600    298.08035   -997.56933    149971.36   -47308.512    4093.4158   -51401.928   0.16257295 
   50700    293.40992    -1016.392    149959.04   -47554.163    4029.2786   -51583.441   0.16315101 
   50800    286.03266   -1022.8599    149925.92   -47529.828    3927.9698   -51457.798   0.15793504 
   50900    288.76526   -985.76614    149932.35   -47557.876    3965.4955   -51523.372   0.15759396 
   51000    290.31435   -984.10494    149934.26   -47511.033    3986.7685   -51497.802   0.16509288 
   51100    294.65019   -1002.7092    149941.16   -47526.823    4046.3108   -51573.134   0.15180321 
   51200    289.79467   -1003.8605    149915.74   -47582.975     3979.632   -51562.607   0.16348554 
   51300    293.36329    -969.0937    149911.37   -47598.161    4028.6384   -51626.799   0.15302821 
   51400    286.41613   -987.17719    149921.89   -47535.534    3933.2358    -51468.77   0.16578087 
   51500     286.4339   -1020.3989    149912.47   -47591.256    3933.4799   -51524.736   0.15763319 
   51600    290.18013   -1038.3452    149917.03    -47503.87    3984.9253   -51488.796   0.16733246 
   51700    295.62854   -993.94223    149916.44   -47396.956    4059.7461   -51456.703    0.1587841 
   51800    293.14029   -1010.1158    149911.47   -47448.572     4025.576   -51474.148   0.16360148 
   51900    291.49609   -998.41275    149897.34   -47509.096    4002.9969   -51512.093   0.16432576 
   52000    290.74737   -1003.8114    149899.84   -47493.438     3992.715   -51486.153   0.15355371 
   52100    287.57823   -1008.8076    149880.58   -47571.191    3949.1945   -51520.386   0.16769444 
   52200    287.63924   -1008.2043    149870.57   -47628.182    3950.0322   -51578.214   0.15025806 
   52300    288.02993    -1007.218    149897.73   -47608.013    3955.3975    -51563.41    0.1594231 
   52400    282.51855   -1009.2305    149850.34   -47687.047    3879.7119   -51566.759   0.16041976 
   52500    288.26376   -993.62184    149911.75   -47538.166    3958.6086   -51496.775   0.15292338 
   52600    293.35218   -1013.3896     149919.6   -47501.728    4028.4858   -51530.214   0.16683626 
   52700    292.32691   -1003.2959    149925.58   -47439.719    4014.4061   -51454.125   0.16142317 
   52800    293.87805   -1019.8726    149940.72   -47414.954    4035.7074   -51450.662   0.16140805 
   52900    290.32931   -1023.8898    149922.44   -47437.495    3986.9739   -51424.469    0.1682034 
   53000    297.15227   -987.90509    149928.73   -47387.275    4080.6708   -51467.945   0.15853377 
   53100    289.77675   -1019.5923    149890.12   -47521.888    3979.3858   -51501.274   0.16519269 
   53200    289.09267   -967.13157    149882.14   -47569.436    3969.9917   -51539.428   0.15750447 
   53300    290.83447   -1003.5318    149907.59   -47530.272     3993.911   -51524.183   0.15477099 
   53400    295.16885   -1014.5988    149910.55   -47462.058    4053.4334   -51515.491   0.16625115 
   53500    291.43633   -1011.4663    149935.02    -47456.37    4002.1762   -51458.546   0.15881083 
   53600    291.07647   -1023.2488    149919.75   -47525.858    3997.2344   -51523.093   0.16453236 
   53700    292.45868   -997.29272    149919.23   -47508.703    4016.2157   -51524.919   0.15845199 
   53800     290.3913   -1015.7769    149897.22   -47533.251    3987.8252   -51521.076   0.15704018 
   53900     289.4456   -1026.3061    149880.03   -47535.749    3974.8382   -51510.588   0.16430433 
   54000    289.99948   -992.37024    149883.35   -47542.802    3982.4445   -51525.246   0.15734294 
   54100    292.82364   -989.46308    149889.16   -47517.149    4021.2276   -51538.377   0.16542978 
   54200    294.79085   -1002.4635     149933.3   -47468.524    4048.2424   -51516.766   0.15574142 
   54300    294.31876    -999.9516    149911.49   -47391.453    4041.7595   -51433.213   0.17072976 
   54400    293.17227   -997.08469    149953.08   -47306.586    4026.0152   -51332.601    0.1588587 
   54500      294.167   -1004.3671    149961.42   -47382.177    4039.6754   -51421.852   0.16743421 
   54600    292.89105   -1017.4373    149939.07   -47397.652    4022.1533   -51419.805   0.17162703 
   54700    293.96219   -975.24696     149936.4   -47464.046    4036.8628   -51500.909   0.15256176 
   54800    293.19617   -1003.3238    149960.81   -47389.858    4026.3434   -51416.201   0.17159079 
   54900    296.05379   -977.28113    149936.53   -47406.163    4065.5859   -51471.749   0.15757234 
   55000    298.98935   -996.88315     149946.5   -47440.337    4105.8988   -51546.236   0.15813908 
   55100    292.59174   -1016.7209    149938.87   -47455.361     4018.043   -51473.404   0.16509012 
   55200    296.82701   -1011.4118    149906.37   -47569.826    4076.2042   -51646.031   0.15186256 
   55300    288.22224   -983.41379    149882.01    -47617.84    3958.0384   -51575.878    0.1562694 
   55400    289.49822   -1011.4143    149864.23   -47577.768    3975.5609   -51553.329   0.16426984 
   55500    292.84749   -967.37644    149889.46   -47537.534     4021.555   -51559.089   0.15127194 
   55600    293.21325   -1020.1797     149894.9   -47430.611    4026.5779   -51457.189   0.17435524 
   55700    296.77935   -973.41248    149922.11   -47389.278    4075.5497   -51464.828   0.15844171 
   55800    293.45216   -1016.9161    149933.37   -47383.612    4029.8588   -51413.471   0.16503878 
   55900    292.48613   -1012.2817    149920.66   -47388.892    4016.5926   -51405.484     0.168632 
   56000    293.18392   -985.95422    149941.25   -47402.667    4026.1751   -51428.842      0.16381 
   56100     294.2769   -967.52401    149939.59   -47386.413    4041.1845   -51427.597   0.16749037 
   56200     288.7001   -1045.4378    149947.37   -47429.197    3964.6006   -51393.798   0.16886622 
   56300    296.78242   -988.92917     149899.9   -47493.613    4075.5918   -51569.205   0.16221642 
   56400    291.36369    -1006.187    149892.68   -47550.926    4001.1787   -51552.105   0.15557608 
   56500    286.39085   -1001.2607    149869.65   -47596.192    3932.8887   -51529.081   0.16412987 
   56600    289.62191   -994.78347    149850.83   -47654.089    3977.2594   -51631.349   0.15084416 
   56700     288.7308   -989.18067    149859.91   -47628.412    3965.0222   -51593.435   0.16149411 
   56800    288.83279   -1010.6334    149888.85    -47517.67    3966.4229   -51484.093   0.16699475 
   56900    287.80316   -1022.4439    149874.41   -47615.466    3952.2834   -51567.749   0.15188164 
   57000    285.91677   -1000.7358    149845.53   -47595.017    3926.3783   -51521.395   0.17025611 
   57100    288.86741   -1035.0547    149889.78   -47519.399    3966.8982   -51486.298   0.15950254 
   57200    291.96198   -1034.2649    149889.28   -47470.195    4009.3947    -51479.59   0.16517079 
   57300      288.004   -1001.7368    149848.93   -47600.811    3955.0413   -51555.852   0.16340988 
   57400    295.80078   -1000.7353    149896.37   -47484.965    4062.1114   -51547.077   0.15401795 
   57500    292.08862   -984.47236    149896.61   -47449.983    4011.1339   -51461.117   0.16590531 
   57600     291.6331   -1005.9894    149862.56   -47565.316    4004.8784   -51570.194   0.15902126 
   57700    289.93571   -1009.3693    149856.15   -47471.575    3981.5688   -51453.144   0.16011761 
   57800     291.3955    -982.9463    149866.53   -47417.073    4001.6154   -51418.689   0.16920981 
   57900    294.21414   -971.23914    149917.62   -47462.813    4040.3227   -51503.135   0.15682538 
   58000    296.54907   -1009.6719     149899.2   -47419.613    4072.3873       -51492   0.16248454 
   58100    288.36914     -1008.77    149873.69   -47467.994    3960.0557    -51428.05   0.16674047 
   58200    294.48519   -982.32809    149916.94   -47365.135     4044.045    -51409.18   0.16118654 
   58300     294.5769   -1012.6715    149907.57   -47428.242    4045.3044   -51473.547   0.16666136 
   58400    295.22686   -1006.6868    149915.07    -47474.41    4054.2299    -51528.64   0.15775024 
   58500    287.31771   -997.73579    149897.42   -47478.585    3945.6168   -51424.202   0.16874052 
   58600    293.52621   -982.12764    149891.01   -47516.203    4030.8757   -51547.078   0.15627455 
   58700    295.86601   -1002.1667    149874.79   -47466.421    4063.0072   -51529.428   0.17237116 
   58800    291.27163   -984.24274    149874.52    -47508.57    3999.9144   -51508.484   0.15803718 
   58900    293.64459   -1002.3072    149885.62   -47429.921    4032.5013   -51462.422    0.1679188 
   59000    297.17999   -1021.6711    149893.94   -47394.572    4081.0515   -51475.624   0.16892928 
   59100    298.01779   -992.10155    149897.28   -47360.092    4092.5567   -51452.649   0.15654416 
   59200    294.64149   -995.25141     149860.6     -47475.8    4046.1914   -51521.992   0.17168182 
   59300    292.01248    -1002.575    149888.61   -47457.419    4010.0882   -51467.508   0.15612942 
   59400    292.15128   -983.99623    149893.97   -47444.458    4011.9944   -51456.452   0.16620977 
   59500    291.70152    -1019.523    149855.95   -47549.262    4005.8179    -51555.08   0.16737168 
   59600    286.28327   -1020.1459    149895.69   -47523.645    3931.4113   -51455.056   0.16065109 
   59700    295.59521   -1010.9773    149891.18   -47454.022    4059.2884   -51513.311   0.16846829 
   59800    289.21633   -1023.1583    149872.89   -47573.248    3971.6899   -51544.937   0.15899641 
   59900    288.24889   -1017.5962    149870.26   -47569.792    3958.4044   -51528.196   0.15743057 
   60000    291.55565   -1002.0078    149866.68   -47533.231    4003.8147   -51537.046   0.16688089 
   60100     294.3312   -969.86316    149880.65   -47492.406    4041.9302   -51534.336   0.15358962 
   60200    297.17973   -955.76816    149893.22   -47456.085    4081.0479   -51537.133    0.1625461 
   60300    292.36605   -1030.6923    149898.87   -47418.333    4014.9436   -51433.277   0.16802416 
   60400    296.53936   -999.27287    149925.13   -47369.002     4072.254   -51441.256   0.16482099 
   60500    294.87895   -977.43672    149932.76   -47402.719    4049.4523   -51452.172   0.16422843 
   60600    290.34953   -996.46529    149906.75   -47459.834    3987.2516   -51447.086   0.16238922 
   60700    294.66782   -980.88346    149945.98   -47282.897    4046.5529   -51329.449    0.1665927 
   60800    298.51799   -983.50867    149931.58   -47305.785    4099.4257   -51405.211   0.16320176 
   60900    293.50227   -1037.7691    149913.46   -47400.329    4030.5469   -51430.876   0.17420652 
   61000    294.98828   -991.77358    149902.28   -47444.397    4050.9536    -51495.35   0.15814356 
   61100    293.02454   -990.36117    149919.16   -47430.005    4023.9864   -51453.992   0.16365605 
   61200    297.67925   -980.94134    149914.77    -47364.03    4087.9077   -51451.938   0.16672284 
   61300    292.53187   -978.89022    149909.21   -47462.176    4017.2208   -51479.397   0.15586495 
   61400    289.56734   -1037.3996    149885.24   -47517.716    3976.5101   -51494.226   0.17684983 
   61500    290.65586   -1012.5188    149885.13    -47450.53    3991.4583   -51441.988   0.15819273 
   61600    294.11342   -967.27172    149866.96   -47495.325    4038.9396   -51534.264   0.15958297 
   61700     288.1158    -1005.494    149863.79   -47554.846    3956.5768   -51511.423   0.16318678 
   61800    289.04724   -1040.1878    149879.73   -47553.958    3969.3678   -51523.325   0.15523812 
   61900    293.38032   -997.50846    149892.73   -47444.265    4028.8722   -51473.137   0.17040744 
   62000    290.88989    -975.6737    149919.06   -47455.318    3994.6721    -51449.99   0.16114477 
   62100    287.15487   -992.61522    149874.59   -47524.438    3943.3806   -51467.818   0.15878528 
   62200    292.59591   -992.86988    149898.73   -47412.527    4018.1003   -51430.627    0.1700454 
   62300    297.12748   -955.70034    149867.21   -47456.556    4080.3304   -51536.886   0.15600468 
   62400    291.27697   -1004.1971    149870.92   -47510.614    3999.9877   -51510.602   0.16118456 
   62500    291.10731   -996.09341    149871.91   -47498.319    3997.6579   -51495.977   0.16674123 
   62600    288.67473   -974.91894     149898.6   -47528.988    3964.2523    -51493.24    0.1560533 
   62700    288.84102   -1015.1694    149881.73   -47561.658    3966.5358   -51528.194   0.16392146 
   62800    290.42743   -992.39005    149865.86   -47533.924    3988.3213   -51522.245   0.16218982 
   62900    292.84866   -1000.8809    149870.68   -47440.584    4021.5712   -51462.155   0.16786492 
   63000    290.33429   -990.31821    149897.56   -47477.937    3987.0423   -51464.979   0.15793376 
   63100    288.68804   -993.18582    149867.74   -47547.418    3964.4351   -51511.853   0.16611032 
   63200    295.97497    -968.2059     149905.5   -47424.348    4064.5034   -51488.852   0.15674331 
   63300    291.67899   -1044.4128    149897.81   -47528.662    4005.5085   -51534.171   0.16486281 
   63400    288.11727   -999.97938    149882.52    -47616.97    3956.5969   -51573.567   0.15915166 
   63500    289.43462   -994.07895    149901.16   -47597.109    3974.6876   -51571.797   0.15257816 
   63600    284.24072   -1022.0201     149881.3   -47641.532    3903.3618   -51544.894   0.17117279 
   63700    288.65041   -980.15294    149915.64   -47612.474    3963.9182   -51576.392   0.14754443 
   63800    284.10062     -1018.86     149890.2   -47683.739    3901.4379   -51585.177   0.15869902 
   63900    288.91407   -994.48857    149911.96   -47570.376     3967.539   -51537.915    0.1608866 
   64000    295.80701   -986.14913    149925.72   -47487.484    4062.1969   -51549.681    0.1534144 
   64100    293.39564   -993.94612    149924.44   -47439.715    4029.0826   -51468.798   0.16781904 
   64200    294.86936   -988.57484    149925.87   -47425.422    4049.3206   -51474.742   0.16423877 
   64300    293.63279   -1037.7945    149901.23   -47463.836    4032.3392   -51496.175   0.15788627 
   64400    286.84027   -1021.0979     149896.7    -47511.96    3939.0604    -51451.02   0.16700316 
   64500    286.46747   -1034.1186    149913.35   -47501.882    3933.9408   -51435.823   0.16137194 
   64600    291.91074   -1016.7879    149881.07   -47538.846     4008.691   -51547.537    0.1617138 
   64700    289.70481   -987.87567    149885.77   -47544.905    3978.3979   -51523.303   0.16374361 
   64800     291.7212   -983.47026    149901.57   -47489.758    4006.0881   -51495.846    0.1549452 
   64900    294.09922   -982.21573    149931.05   -47405.115    4038.7446    -51443.86   0.16223655 
   65000    290.57333   -1008.8929    149952.82   -47396.601     3990.325   -51386.926   0.16748455 
   65100    296.69872   -1033.1239    149932.82   -47467.131    4074.4424   -51541.573    0.1611803 
   65200    289.74498   -1007.3439    149936.09   -47485.239    3978.9496   -51464.189   0.16200142 
   65300    293.66978   -1033.9781    149952.26   -47416.187    4032.8473   -51449.034   0.17038567 
   65400    292.50198   -971.73181    149947.55   -47458.809    4016.8103   -51475.619   0.15558149 
   65500    295.17149   -1030.3006    149982.57   -47398.927    4053.4696   -51452.396   0.16656241 
   65600    288.79425   -987.12601     149963.3   -47405.659    3965.8936   -51371.553   0.16688715 
   65700    298.92293   -998.68656    149979.35   -47371.367    4104.9867   -51476.353   0.15329547 
   65800    294.73093   -1020.1012    149956.41   -47440.234    4047.4195   -51487.653    0.1690696 
   65900    292.16562   -1029.9361    149940.22    -47449.64    4012.1912   -51461.832   0.15757331 
   66000    294.71427   -990.59146    149920.99   -47460.713    4047.1908   -51507.904   0.16283675 
   66100    294.05724   -969.87957    149910.28   -47422.866    4038.1681   -51461.034   0.16407982 
   66200    288.31439   -986.11904    149896.22   -47560.304    3959.3039   -51519.608    0.1557706 
   66300    293.22855   -1016.7854    149899.26   -47490.203     4026.788   -51516.991   0.16493976 
   66400    297.17725   -941.03173    149898.66   -47491.591    4081.0139   -51572.604   0.15754442 
   66500    292.05818   -1022.0168    149887.78   -47528.136    4010.7158   -51538.852   0.16334624 
   66600    289.20979   -1011.0306    149863.26   -47530.128    3971.6001   -51501.728   0.16247132 
   66700    292.61007   -1020.2933    149883.85   -47517.755    4018.2946   -51536.049   0.15938789 
   66800    290.16656   -1022.8214    149875.53   -47540.045    3984.7389   -51524.784   0.16023426 
   66900    289.99129   -1004.0791    149890.06     -47549.9     3982.332   -51532.232   0.16400187 
   67000    286.78234   -975.63367    149877.84   -47658.071    3938.2649   -51596.336   0.14626314 
   67100    290.29136   -988.66575    149905.21   -47494.346    3986.4528   -51480.799   0.16561213 
   67200    283.44048   -1025.2932    149904.06   -47601.792    3892.3724   -51494.164   0.15956729 
   67300    292.41495   -984.25649     149908.2   -47519.054    4015.6152   -51534.669   0.16023237 
   67400    296.34854   -1031.5772    149895.48   -47496.515    4069.6335   -51566.148   0.16069458 
   67500    297.34927   -978.93873    149900.97   -47481.571    4083.3761   -51564.947   0.16177124 
   67600    293.39003   -1041.9209    149904.74   -47332.892    4029.0056   -51361.897   0.16709339 
   67700    293.60651   -1033.4938    149897.51   -47411.963    4031.9784   -51443.941   0.16840103 
   67800    293.27576   -1000.2082    149899.28   -47450.764    4027.4363     -51478.2    0.1644834 
   67900    290.09673    -1012.391    149890.89   -47484.397    3983.7799   -51468.177   0.15962117 
   68000    292.83923   -997.47881    149865.19   -47520.215    4021.4416   -51541.657   0.16706942 
   68100    289.66682   -990.21265    149875.65   -47523.882    3977.8762   -51501.759   0.15335457 
   68200    296.85292    -970.6957    149890.96   -47490.346      4076.56   -51566.907   0.16657309 
   68300    292.57098   -994.81886    149889.07   -47427.183    4017.7579   -51444.941   0.16564783 
   68400    291.72081   -1040.5734    149919.88   -47404.424    4006.0828   -51410.506   0.16228066 
   68500    292.21653   -1012.8646    149907.59   -47399.485    4012.8903   -51412.375   0.17083885 
   68600    290.36922   -1032.9872     149905.1   -47493.167     3987.522   -51480.689   0.16126801 
   68700    291.56786   -1058.9708    149881.28   -47471.569    4003.9824   -51475.552    0.1634635 
   68800    290.25167   -1019.1766    149881.59   -47465.426    3985.9077   -51451.333   0.16932702 
   68900    290.19263   -943.19234    149879.26   -47468.751     3985.097   -51453.848   0.15426768 
   69000    294.41788   -1002.1935    149884.71   -47469.751    4043.1206   -51512.872   0.16170548 
   69100     288.8127   -970.07537    149860.99   -47530.591     3966.147   -51496.738   0.16134953 
   69200    288.46475   -1004.7142    149860.49   -47541.355    3961.3687   -51502.723   0.15434389 
   69300    288.04039   -974.09258    149854.18   -47570.727    3955.5411   -51526.268   0.16583328 
   69400     289.7949    -1005.761    149849.26   -47621.505    3979.6351    -51601.14   0.16139777 
   69500    292.42097   -1010.8568    149862.96   -47487.068    4015.6978   -51502.765    0.1582941 
   69600    295.26901   -1002.9398    149917.65   -47380.193    4054.8088   -51435.002   0.17280465 
   69700    290.26377   -1039.4649    149924.29   -47476.917    3986.0739    -51462.99   0.16240914 
   69800    295.86733   -1012.0651    149887.25    -47476.03    4063.0254   -51539.055   0.16149035 
   69900    291.61864    -1015.853    149877.66   -47572.966    4004.6798   -51577.646    0.1655476 
   70000    294.19765   -988.05354    149877.43   -47500.851    4040.0962   -51540.947   0.16050412 
   70100    290.36394   -992.04545    149863.12   -47626.394    3987.4495   -51613.844   0.15609299 
   70200    295.27084   -975.58353    149904.84   -47458.108    4054.8339   -51512.942   0.16770031 
   70300    297.39168   -992.53032    149913.16   -47465.224    4083.9586   -51549.182   0.15090055 
   70400    290.86613   -1027.1563    149931.36   -47355.135    3994.3459   -51349.481   0.17424384 
   70500    291.25271   -974.29118    149912.32   -47427.072    3999.6546   -51426.726    0.1695077 
   70600    293.53756   -1035.1618    149919.28   -47492.082    4031.0315   -51523.114   0.15569238 
   70700    296.17349    -977.0864    149916.62   -47460.615    4067.2297   -51527.845   0.16772892 
   70800    292.74168   -978.86278    149907.22   -47493.112     4020.102   -51513.214   0.15884615 
   70900    290.89872   -1003.6889    149893.55   -47487.191    3994.7934   -51481.984   0.16437117 
   71000    292.62684   -1018.8335     149901.1   -47505.566    4018.5249   -51524.091   0.16690204 
   71100    291.02804   -972.08166     149896.9   -47497.775    3996.5693   -51494.344    0.1612758 
   71200    291.62188   -1032.7423    149894.01   -47538.071    4004.7242   -51542.795   0.15831058 
   71300    286.51627   -988.37397    149866.58   -47587.702    3934.6109   -51522.313   0.16613714 
   71400    293.29494   -973.70687    149886.38   -47524.226    4027.6997   -51551.925   0.15342266 
   71500    293.74654   -1012.2588     149883.9   -47474.937    4033.9014   -51508.839   0.16672548 
   71600    294.79184   -977.71467    149898.45   -47494.084     4048.256    -51542.34   0.16201997 
   71700    294.97845   -1006.8975    149899.79   -47486.401    4050.8186    -51537.22   0.15576833 
   71800    286.28561   -1004.3664    149855.13   -47652.394    3931.4435   -51583.837   0.16218929 
   71900    287.95797   -995.46149    149860.33   -47593.501    3954.4093    -51547.91   0.15847165 
   72000    287.80106   -967.65448    149874.52   -47563.986    3952.2545    -51516.24   0.15566119 
   72100    291.32959   -1014.1326    149903.97   -47425.598    4000.7104   -51426.309   0.16773425 
   72200    296.30131   -1006.0798    149931.38   -47317.519    4068.9849   -51386.504   0.16584982 
   72300    297.49455   -985.81194    149958.15   -47294.988    4085.3713   -51380.359   0.16222025 
   72400    293.53988   -1022.2942    149941.36   -47416.523    4031.0634   -51447.586   0.16816174 
   72500    295.47379   -985.48939    149915.89   -47410.347    4057.6209   -51467.968    0.1545556 
   72600    297.30175   -1044.0705    149916.45   -47348.762    4082.7236   -51431.485   0.16835518 
   72700    290.25694   -989.16762    149907.31    -47518.72    3985.9801     -51504.7   0.16241505 
   72800    294.52392   -970.36027    149914.41   -47442.778    4044.5768   -51487.354   0.15384884 
   72900    291.01243   -1027.6381    149906.89   -47452.437    3996.3549   -51448.792   0.16954956 
   73000    293.45569    -991.9061    149891.44   -47460.206    4029.9072   -51490.113   0.15772124 
   73100    294.86943   -1005.6001    149897.31    -47422.69    4049.3215   -51472.011   0.16350035 
   73200    297.52646   -986.92799    149899.61   -47400.195    4085.8095   -51486.004   0.16703414 
   73300    290.86349   -1027.4488    149929.44     -47383.8    3994.3096    -51378.11   0.16370685 
   73400    298.58213   -1033.5983    149923.75   -47368.497    4100.3066   -51468.804    0.1636895 
   73500    292.88529   -989.09637    149901.09    -47366.85    4022.0742   -51388.924   0.16693654 
   73600     290.6833   -966.47573    149897.05   -47409.201    3991.8352   -51401.037   0.15799084 
   73700    289.77605   -1011.8597    149876.99   -47467.436    3979.3762   -51446.812    0.1660605 
   73800    289.31907   -1032.0978    149874.14   -47564.256    3973.1007   -51537.357   0.16045595 
   73900     292.0761   -992.49772    149888.46   -47539.616    4010.9618   -51550.578   0.15096662 
   74000    293.94745   -988.01026    149913.09   -47464.404    4036.6604   -51501.065   0.16636421 
   74100    297.03508   -1001.3979     149969.3   -47294.962    4079.0616   -51374.024   0.16045061 
   74200    292.13238   -1015.9004    149939.36   -47463.919    4011.7347   -51475.653   0.16235874 
   74300    294.90523   -997.80535    149934.83   -47463.274    4049.8131   -51513.087   0.15888649 
   74400    288.30389   -999.73889    149905.12   -47494.811    3959.1597    -51453.97   0.15661409 
   74500    291.83344   -1015.7425    149893.63    -47519.93    4007.6296   -51527.559   0.15892711 
   74600    293.90744   -1038.0555    149902.99   -47521.169    4036.1109    -51557.28   0.16074185 
   74700    293.12036   -1004.2371    149907.58   -47432.285    4025.3023   -51457.587   0.15810869 
   74800    290.13608   -1025.1407    149893.06   -47494.641    3984.3203   -51478.961   0.16018243 
   74900    290.49662   -1024.5374    149911.47   -47494.469    3989.2715    -51483.74   0.16152987 
   75000     296.9393   -991.63444    149886.11   -47473.123    4077.7462   -51550.869    0.1511901 
   75100    293.02318   -955.83139    149910.85   -47401.586    4023.9677   -51425.554   0.16814447 
   75200    294.08143   -976.32196    149913.37   -47448.656    4038.5003   -51487.156   0.15259788 
   75300    291.97186   -980.70119    149895.34   -47500.296    4009.5304   -51509.827   0.15486372 
   75400    296.85317    -1046.253     149886.2   -47513.629    4076.5634   -51590.193   0.16080186 
   75500    297.54013   -993.99734    149905.06   -47508.378    4085.9972   -51594.375   0.15098936 
   75600    293.31893     -1016.73    149932.09   -47439.248    4028.0291   -51467.278   0.15923083 
   75700    296.20196   -991.42822    149930.69   -47391.585    4067.6206   -51459.206   0.16251094 
   75800    292.20627   -1010.4225    149939.66   -47414.888    4012.7495   -51427.638   0.15539626 
   75900    292.81657   -1018.3317     149937.7   -47438.678    4021.1305   -51459.809   0.16206089 
   76000    293.83163    -993.5631    149939.01   -47439.339    4035.0699   -51474.409   0.16138616 
   76100    287.98117   -1027.0153    149917.56   -47532.937    3954.7279   -51487.665   0.15223322 
   76200    286.44573   -1017.2578    149893.25     -47577.7    3933.6423   -51511.342   0.16312708 
   76300    294.12441   -994.15367    149907.15   -47517.367    4039.0905   -51556.458    0.1503511 
   76400    294.90685   -997.53256    149914.97   -47516.761    4049.8354   -51566.596   0.15392948 
   76500    289.06932    -1032.746    149911.13   -47502.684     3969.671   -51472.355   0.16605934 
[...]
   81900    289.64265   -966.64332    149904.06   -47544.563    3977.5443   -51522.108   0.15945548 
   82000    294.60821   -962.75288       149910   -47446.772    4045.7343   -51492.507   0.15975607 
   82100    292.68536   -1022.0679     149948.1   -47398.504    4019.3286   -51417.832     0.154611 
   82200    291.78731    -1048.432    149953.57   -47417.959    4006.9961   -51424.955   0.16972604 
   82300    292.47905    -1039.519    149928.42   -47491.798    4016.4954   -51508.293   0.16116922 
   82400     293.8587   -1008.2109    149951.05   -47369.846    4035.4417   -51405.287   0.15856906 
   82500    296.64652   -957.85312    149982.35   -47263.457    4073.7256   -51337.183   0.16200256 
   82600      296.585   -978.73581    149972.64   -47365.498    4072.8808   -51438.379   0.16222806 
   82700    290.93007   -991.78593    149980.86   -47455.073    3995.2239   -51450.297   0.15393848 
   82800    286.27839   -1010.5305    149970.62   -47466.561    3931.3443   -51397.906    0.1644321 
   82900    290.14002   -1029.2346    149984.58   -47417.481    3984.3745   -51401.855   0.16017416 
   83000    295.14894   -994.57961    149987.75   -47356.863    4053.1599   -51410.023   0.15687615 
   83100    296.36429   -995.10358    149996.52   -47400.483    4069.8499   -51470.333   0.16797825 
   83200    295.57099    -990.9686    149993.01   -47428.434    4058.9557   -51487.389   0.14867536 
   83300    292.51591   -990.44316    149999.87   -47417.005    4017.0016   -51434.007   0.15953244 
   83400    294.87564   -1005.3493    149987.86   -47498.122    4049.4069   -51547.529   0.15493133 
   83500    286.76768   -979.09437    149955.29   -47605.368    3938.0635   -51543.431   0.14107945 
   83600    290.75634   -990.82542    149933.75   -47545.109    3992.8381   -51537.947   0.16074255 
   83700    291.56907   -991.46258    149927.66   -47574.507    4003.9991   -51578.506   0.15398365 
   83800    288.56311   -1008.6339    149919.89   -47538.856    3962.7195   -51501.575   0.15367335 
   83900    289.58025   -987.61202    149911.96   -47541.991    3976.6875   -51518.678   0.16735138 
   84000    294.52573   -979.48142    149924.02   -47558.173    4044.6017   -51602.775   0.14356236 
   84100     288.8528   -1035.7903    149917.93   -47483.438    3966.6976   -51450.136   0.16354183 
   84200    293.91663   -996.21747    149928.93   -47435.709    4036.2371   -51471.946   0.16440273 
   84300    290.56375   -1016.8167    149923.19   -47490.731    3990.1934   -51480.924   0.15554468 
   84400    290.61952   -1013.7207    149913.75   -47484.475    3990.9592   -51475.434   0.16403617 
   84500    292.41925   -1024.8901    149902.39   -47539.811    4015.6742   -51555.485   0.15755555 
   84600    290.94567   -986.95629    149912.38   -47452.374    3995.4381   -51447.812   0.15772765 
   84700    293.96964   -1034.4434    149900.74    -47461.53     4036.965   -51498.495   0.16179447 
   84800    293.56358   -1029.2234    149888.17   -47454.616    4031.3889   -51486.005   0.16358281 
   84900    291.15286   -975.35893    149895.18    -47374.78    3998.2834   -51373.064   0.16354945 
   85000    289.41331   -1008.6893     149889.7   -47447.939    3974.3949   -51422.334   0.16236131 
   85100    288.89729   -1006.4442    149879.11   -47466.851    3967.3085   -51434.159   0.16389629 
   85200    290.20733   -1012.8631    149891.37   -47509.087    3985.2989   -51494.386   0.15572465 
   85300    290.82801   -1020.2759    149896.35   -47516.357    3993.8224   -51510.179   0.16645333 
   85400    283.83834   -1008.3506    149894.96    -47541.35     3897.836   -51439.186   0.16065214 
   85500     290.3157   -993.91932    149907.91    -47487.45    3986.7871   -51474.237   0.16035059 
   85600    285.71321   -978.88421    149879.31   -47515.945    3923.5829   -51439.528   0.16902568 
   85700    296.26267   -1007.5787    149903.83   -47457.042    4068.4543   -51525.496    0.1517755 
   85800    289.49714   -999.12564    149885.74    -47447.57     3975.546   -51423.116   0.17144479 
   85900    293.10988   -995.42498    149908.57   -47410.831    4025.1583    -51435.99   0.16565773 
   86000    293.56278   -1013.7927    149911.64   -47473.896    4031.3779   -51505.274   0.15592832 
   86100    297.35478   -1005.5453    149911.59   -47449.138    4083.4518    -51532.59   0.16777672 
   86200    293.87155   -1016.3424    149880.23   -47410.214     4035.618   -51445.832   0.16161181 
   86300    292.62144   -1017.1786    149873.45   -47464.208    4018.4509   -51482.659   0.16286965 
   86400    290.85669   -988.32426    149876.54   -47524.105    3994.2162   -51518.321   0.16740752 
   86500    290.11557   -1009.3617    149903.13   -47557.922    3984.0387   -51541.961   0.15037326 
   86600    293.56184    -1010.814    149932.63   -47399.508    4031.3649   -51430.873    0.1714058 
   86700    293.35127   -1005.6176    149937.04   -47396.024    4028.4733   -51424.497   0.16184072 
   86800    290.78568   -1031.5136    149911.76   -47522.586    3993.2411   -51515.827    0.1584355 
   86900    288.13724   -1014.2573    149884.22   -47498.908    3956.8711   -51455.779   0.17329351 
   87000    290.61954   -1005.7544    149912.16   -47475.407    3990.9595   -51466.367   0.16215819 
   87100    291.22202   -971.88688    149922.18   -47447.522    3999.2331   -51446.755   0.16147757 
   87200    294.84168   -964.03781    149921.39   -47375.099    4048.9405   -51424.039   0.16625651 
   87300      293.629   -1022.0939    149930.35   -47386.063    4032.2872    -51418.35   0.16347411 
   87400     294.4841   -1009.9441    149918.42   -47446.241      4044.03   -51490.271   0.16218882 
   87500    295.91339   -1025.8518    149917.54    -47417.46    4063.6579   -51481.118   0.17275024 
   87600    291.21256   -979.96488    149933.53   -47445.898    3999.1032   -51445.001   0.15710922 
   87700    296.39975   -992.21056    149938.01   -47422.086    4070.3368   -51492.422   0.16509689 
   87800    293.28634   -1014.5379    149918.17   -47505.589    4027.5816   -51533.171   0.16234396 
   87900    292.76747   -986.83966    149914.14   -47531.178    4020.4561   -51551.634   0.15262686 
   88000    290.20398    -991.0741    149901.37   -47495.336    3985.2529   -51480.589   0.16901958 
   88100    291.53483   -960.48772    149939.62   -47465.198    4003.5289   -51468.726   0.16014765 
   88200    289.49246   -1014.0148    149921.14   -47572.485    3975.4818   -51547.966   0.15695583 
   88300    289.36171   -1024.8705    149912.07   -47513.805    3973.6862   -51487.491   0.16751718 
   88400    295.17877   -985.42972    149936.07   -47441.503    4053.5696   -51495.072   0.15754566 
   88500    293.92034   -997.53155    149916.27   -47515.939     4036.288   -51552.227   0.16270788 
   88600    289.62433   -999.34203     149923.1   -47503.273    3977.2927   -51480.565   0.16678534 
   88700    292.42847   -989.98106    149939.58   -47474.541    4015.8009   -51490.341   0.15557365 
   88800    292.64878   -996.32492    149911.44    -47539.69    4018.8262   -51558.517   0.16257646 
   88900    294.00635   -965.66926    149917.11   -47476.981    4037.4693   -51514.451   0.15931815 
   89000    294.00525   -972.07596    149924.92   -47437.353    4037.4541   -51474.807   0.15699137 
   89100    289.73268   -1042.9315    149934.73   -47488.469    3978.7806   -51467.249     0.166171 
   89200     293.5839   -1027.6538    149924.65   -47441.059    4031.6679   -51472.727   0.16132687 
   89300    291.00063   -989.23592    149930.91   -47569.507     3996.193     -51565.7   0.15104652 
   89400    288.90404   -978.21968    149947.06   -47464.109    3967.4013   -51431.511   0.16797697 
   89500    291.96745   -994.74049    149926.91   -47564.993    4009.4698   -51574.462   0.15611131 
   89600    291.58004   -979.73632    149920.08   -47594.071    4004.1497   -51598.221   0.15192701 
   89700     289.3133   -988.58468    149918.72   -47506.151    3973.0215   -51479.173   0.17021868 
   89800    298.31014   -985.92071    149941.73   -47441.429    4096.5714   -51538.001   0.14941699 
   89900    292.79601   -987.29197    149952.04    -47427.62    4020.8481   -51448.468   0.16616062 
   90000    290.56391   -1017.9614    149949.08     -47445.6    3990.1956   -51435.795   0.16774912 
   90100    292.91049   -1019.6675    149958.16   -47432.162    4022.4202   -51454.583   0.15019674 
   90200    292.75215   -1032.0578    149930.45   -47505.715    4020.2458   -51525.961   0.17381294 
   90300    293.97301   -1037.9407     149930.7   -47481.744    4037.0114   -51518.756   0.15320527 
   90400    295.49384   -988.61811    149944.93   -47466.687    4057.8963   -51524.584   0.15585965 
   90500    292.47968   -1005.1557    149938.08   -47474.205    4016.5041   -51490.709   0.17058218 
   90600    295.10485   -1019.1829    149974.79   -47502.739    4052.5544   -51555.294   0.15148382 
   90700    294.30725   -1010.0229    149940.65   -47536.879    4041.6013   -51578.481    0.1619078 
   90800    288.62081   -1046.1966    149923.43   -47554.599    3963.5119    -51518.11   0.16699859 
   90900    287.03751   -1011.6461    149906.98   -47521.004     3941.769   -51462.773   0.15196036 
   91000     287.6284   -1026.9719    149905.49   -47541.973    3949.8835   -51491.856   0.16954478 
   91100    284.63502   -1024.0606    149888.84   -47646.627    3908.7766   -51555.403   0.15606313 
   91200    286.96052   -1006.4447     149891.2   -47589.973    3940.7117   -51530.684     0.156969 
   91300    289.52759   -987.01083    149917.32   -47522.657    3975.9643   -51498.622   0.16190529 
   91400    288.95353   -1038.1127    149919.68    -47496.51     3968.081   -51464.591   0.15958713 
   91500    300.30835   -989.89149    149975.58   -47338.737     4124.012   -51462.749   0.16201307 
   91600    295.45113   -1009.7837     149951.7   -47401.241    4057.3098   -51458.551    0.1653842 
   91700    295.04164   -985.80382    149922.62   -47473.498    4051.6864   -51525.184   0.16283334 
   91800    291.53415   -1044.1223    149967.83   -47453.169    4003.5196   -51456.688   0.16118292 
   91900    288.89445   -1022.6276    149969.96   -47443.255    3967.2696   -51410.524    0.1699416 
   92000    292.30102   -1009.8862    149967.42   -47485.237    4014.0506   -51499.287   0.15535187 
   92100    285.94362    -996.3192    149934.19   -47462.931     3926.747   -51389.678   0.16383689 
   92200    294.81781    -964.4778    149944.22    -47500.81    4048.6126   -51549.422   0.16169608 
   92300    298.60036   -954.15968    149964.03    -47375.13    4100.5569   -51475.687   0.14993984 
   92400    294.32744   -1010.0665    149942.44   -47421.866    4041.8786   -51463.744   0.16920905 
   92500    290.79278    -1003.144    149960.92    -47414.26    3993.3385   -51407.599   0.16127841 
   92600     294.8659   -1007.1106    149976.45   -47328.188     4049.273   -51377.461   0.15790259 
   92700     293.0117   -1030.5666    149943.12   -47451.999    4023.8101   -51475.809   0.17066114 
   92800    298.39345   -1007.0273    149948.62   -47465.201    4097.7154   -51562.916   0.15404342 
   92900    292.55564   -990.96155    149949.49   -47503.396    4017.5472   -51520.944   0.16163721 
   93000    295.50224   -974.98415    149931.06   -47507.495    4058.0117   -51565.507   0.16085272 
   93100    297.00589   -974.28748       149942   -47422.147    4078.6606   -51500.807   0.15382454 
   93200    293.52113   -1017.5086    149945.84    -47488.11    4030.8058   -51518.916   0.16653374 
   93300    290.59684   -1007.0523    149947.94   -47534.084    3990.6478   -51524.732   0.15791989 
   93400    287.70098   -1006.9812    149917.34    -47591.13    3950.8801    -51542.01    0.1554055 
   93500     286.7164   -1027.8778    149917.61    -47591.36    3937.3593   -51528.719   0.16759893 
   93600    293.79189   -1009.0517    149921.65   -47540.873    4034.5242   -51575.397   0.15414116 
   93700    294.71458   -987.45124    149934.41   -47520.569     4047.195   -51567.764   0.15824628 
   93800     293.1443   -982.99919    149920.96   -47517.384    4025.6311   -51543.015   0.16301904 
   93900    292.54143   -1022.5326    149918.04    -47597.78    4017.3521   -51615.132   0.15383498 
   94000     292.5304   -1005.1346    149902.69   -47566.285    4017.2006   -51583.486   0.16210411 
   94100    292.68062   -989.26561    149936.35   -47445.365    4019.2635   -51464.628   0.16412598 
   94200    296.02452   -1006.7102    149947.58   -47431.982     4065.184   -51497.166   0.15688151 
   94300    297.63811   -962.53655     149943.9   -47448.228    4087.3428   -51535.571   0.16108177 
   94400    297.00077   -974.76757    149923.61   -47440.005    4078.5903   -51518.595   0.15930535 
   94500    300.08221   -995.59445    149958.04   -47451.882    4120.9065   -51572.789   0.15408152 
   94600    296.50289   -1001.9668    149907.06   -47451.986    4071.7532   -51523.739   0.16752942 
   94700    292.09549   -1023.0713    149927.36   -47493.551    4011.2281   -51504.779   0.15413828 
   94800    291.33633   -1017.3169    149914.49   -47533.766    4000.8029   -51534.569   0.16158639 
   94900    288.93726   -1020.3699    149914.79   -47557.142    3967.8574   -51524.999    0.1634613 
   95000    293.09986   -988.17554    149915.93   -47516.171    4025.0208   -51541.192    0.1541383 
   95100    292.62822   -1002.9659    149920.88   -47478.402    4018.5439   -51496.946   0.16567431 
   95200    289.21305   -1002.8804    149931.46   -47505.549    3971.6448   -51477.193   0.15813953 
   95300    293.00745   -988.59368    149934.22   -47458.915    4023.7517   -51482.667   0.15468465 
   95400    293.79205   -999.84041    149943.14   -47430.504    4034.5263    -51465.03   0.17045516 
   95500    292.39799   -1004.4319    149920.33   -47442.529    4015.3822   -51457.911   0.15903549 
   95600    297.93324   -1032.1775    149926.33   -47438.896    4091.3956   -51530.291   0.16385953 
   95700    292.06074   -1023.3992    149906.17   -47473.329     4010.751    -51484.08   0.16825512 
   95800    295.71518   -983.17655    149904.55   -47412.553    4060.9359   -51473.489   0.15739997 
   95900    290.19394   -950.55393    149910.36   -47428.465    3985.1149    -51413.58   0.16124839 
   96000    294.94893   -986.79506     149929.1   -47395.911    4050.4133   -51446.324   0.16657926 
   96100    296.00693   -1003.0818    149952.78   -47345.073    4064.9424   -51410.015   0.15896236 
   96200    297.89003   -982.52242    149955.47    -47373.32    4090.8022   -51464.122   0.16334784 
   96300    292.92387   -987.56783     149950.9   -47391.313    4022.6039   -51413.916   0.16931197 
   96400    292.61777   -1019.9736    149929.32   -47443.731    4018.4004   -51462.131   0.15565563 
   96500    293.05968   -1021.0007    149924.74   -47442.991     4024.469    -51467.46   0.17281428 
   96600    288.89071   -1001.3868    149898.95   -47492.996    3967.2182   -51460.214   0.16321908 
   96700    289.84967   -998.73375    149918.33   -47464.123    3980.3872    -51444.51   0.15433077 
   96800    289.54343    -1005.033    149920.29   -47481.464    3976.1818   -51457.646   0.17028903 
   96900    289.11545   -970.48042    149896.78   -47488.269    3970.3044   -51458.573   0.15549838 
   97000    288.53484   -997.60313    149919.55   -47564.356    3962.3312   -51526.687   0.15488469 
   97100    290.88115   -1014.3373    149922.74   -47531.556    3994.5522   -51526.108   0.17104083 
   97200    294.55064   -1012.9904    149919.09   -47470.956    4044.9437     -51515.9   0.14937937 
   97300    293.78261   -990.32939    149946.49    -47356.57    4034.3966   -51390.967   0.17199857 
   97400    295.96098   -997.43661    149934.55   -47453.658    4064.3113    -51517.97   0.16023099 
   97500    296.87464   -967.62213    149939.49    -47427.87    4076.8583   -51504.728   0.15187249 
   97600     296.7414   -979.62874    149897.89   -47361.479    4075.0286   -51436.507   0.17279821 
   97700    302.80441   -985.30211    149920.28    -47323.88    4158.2894   -51482.169   0.15862012 
   97800    295.91079   -1010.0311    149903.66   -47436.566    4063.6221   -51500.188   0.16114847 
   97900    294.88474    -1007.855    149908.25   -47394.547    4049.5318   -51444.079    0.1672624 
   98000    288.15436   -1014.4302    149881.88   -47481.647    3957.1063   -51438.753    0.1615752 
   98100    293.08978   -1042.1865    149903.81   -47469.569    4024.8823   -51494.451   0.16462695 
   98200     289.4645   -995.59837    149898.66    -47458.78    3975.0978   -51433.878   0.16557638 
   98300    292.38002   -985.56463    149918.09   -47396.835    4015.1354   -51411.971   0.16153319 
   98400    290.64078   -995.41176    149923.71    -47440.74    3991.2512   -51431.991   0.15846486 
   98500    292.84998   -1008.4403    149921.17   -47417.136    4021.5893   -51438.725   0.16406032 
   98600    292.31071   -1004.7895    149936.07   -47430.392    4014.1837   -51444.576   0.15870004 
   98700    294.72745    -995.9421     149943.5   -47392.844    4047.3717   -51440.215   0.16355194 
   98800    295.09096    -997.6653     149961.3   -47402.974    4052.3637   -51455.338   0.16269335 
   98900    290.78062    -993.7646     149958.4   -47471.208    3993.1717    -51464.38   0.15149362 
   99000     292.4771    -1012.046    149933.24   -47458.427    4016.4687   -51474.896   0.16742707 
   99100    290.12217    -1004.738    149925.69   -47529.285    3984.1293   -51513.414   0.15713844 
   99200    288.88647    -1018.895    149916.09   -47530.493      3967.16   -51497.653   0.15932467 
   99300    294.54208   -1028.7676     149923.1   -47456.655    4044.8262   -51501.481   0.16288631 
   99400    293.92588   -971.28791    149920.33   -47497.725    4036.3641   -51534.089    0.1558858 
   99500     294.1955   -974.83785    149928.68   -47448.837    4040.0667   -51488.904   0.16153573 
   99600    293.23818   -1010.7153    149939.53   -47441.052    4026.9203   -51467.972   0.16566387 
   99700     286.7445   -987.78712    149952.89   -47490.971    3937.7452   -51428.716   0.15872132 
   99800     291.7294    -1047.859    149945.25   -47507.454    4006.2008   -51513.655    0.1637117 
   99900    290.81096   -973.63088     149924.5    -47557.84    3993.5882   -51551.429   0.15376305 
  100000     294.8593   -1008.8534     149944.6   -47476.296    4049.1825   -51525.478   0.15808983 
Loop time of 51.4134 on 6 procs for 100000 steps with 4608 atoms

Performance: 840.247 ns/day, 0.029 hours/ns, 1945.016 timesteps/s
97.8% CPU use with 6 MPI tasks x no OpenMP threads

MPI task timing breakdown:
Section |  min time  |  avg time  |  max time  |%varavg| %total
---------------------------------------------------------------
Pair    | 37.593     | 37.903     | 38.061     |   2.6 | 73.72
Neigh   | 5.287      | 5.4132     | 5.6231     |   5.9 | 10.53
Comm    | 4.949      | 5.3571     | 5.5354     |   8.9 | 10.42
Output  | 0.17664    | 0.17769    | 0.18239    |   0.5 |  0.35
Modify  | 1.856      | 1.9214     | 1.9694     |   2.7 |  3.74
Other   |            | 0.6411     |            |       |  1.25

Nlocal:        768.000 ave         781 max         755 min
Histogram: 1 1 0 1 0 0 1 0 1 1
Nghost:        1391.67 ave        1406 max        1384 min
Histogram: 2 1 1 0 0 1 0 0 0 1
Neighs:        0.00000 ave           0 max           0 min
Histogram: 6 0 0 0 0 0 0 0 0 0
FullNghs:      21839.3 ave       22231 max       21480 min
Histogram: 1 1 1 0 0 0 1 0 0 2

Total # of neighbors = 131036
Ave neighs/atom = 28.436632
Neighbor list builds = 6337
Dangerous builds = 0

undump              1
unfix               2
unfix               3
unfix               4




################################################
#######         Run Simulation         #########
################################################

reset_timestep      0
log                 log.run_${NAME}
log                 log.run_ice_293K_-1000atm_ML
