

read_data data.ice_${TEMP}K_${PRES}atm_ML group ice
read_data data.ice_293K_${PRES}atm_ML group ice
read_data data.ice_293K_-1000atm_ML group ice
Reading data file ...
  orthogonal box = (-0.11921772 -0.10597131 -0.10597131) to (57.389728 51.013091 51.013091)
  3 by 1 by 2 MPI processor grid
  reading atoms ...
  4608 atoms
  reading velocities ...
  4608 velocities
  read_data CPU = 0.015 seconds
read_data data.liq_${TEMP}K_${PRES}atm_ML add append shift ${X_HI} ${YZ_LO} ${YZ_LO} group water
read_data data.liq_293K_${PRES}atm_ML add append shift ${X_HI} ${YZ_LO} ${YZ_LO} group water
read_data data.liq_293K_-1000atm_ML add append shift ${X_HI} ${YZ_LO} ${YZ_LO} group water
read_data data.liq_293K_-1000atm_ML add append shift 51.0130913103839 ${YZ_LO} ${YZ_LO} group water
read_data data.liq_293K_-1000atm_ML add append shift 51.0130913103839 0.105971310386625 ${YZ_LO} group water
read_data data.liq_293K_-1000atm_ML add append shift 51.0130913103839 0.105971310386625 0.105971310386625 group water
Reading data file ...
  orthogonal box = (-0.11921772 -0.20010235 -0.20010235) to (104.66163 51.319165 51.319165)
  3 by 1 by 2 MPI processor grid
  reading atoms ...
  4608 atoms
  reading velocities ...
  4608 velocities
  read_data CPU = 0.010 seconds

write_data data.icewater_test
System init for write_data ...
WARNING: Communication cutoff is 0.0. No ghost atoms will be generated. Atoms may get lost. (../comm_brick.cpp:167)

# Define potential
#
pair_style sw
pair_coeff * * /data/emrosky-sim/Freezing_Simulations/Melting/MLmW_fancy/ML_mW.sw mW
Reading sw potential file /data/emrosky-sim/Freezing_Simulations/Melting/MLmW_fancy/ML_mW.sw with DATE: 2019-02-27

# Delete water and ice atoms that are overlapping
#
delete_atoms overlap 2.5 water ice
System init for delete_atoms ...
Neighbor list info ...
  update every 1 steps, delay 10 steps, check yes
  max neighbors/atom: 2000, page size: 100000
  master list distance cutoff = 6.0032907
  ghost atom cutoff = 6.0032907
  binsize = 3.0016454, bins = 35 18 18
  2 neighbor lists, perpetual/occasional/extra = 1 1 0
  (1) command delete_atoms, occasional, copy from (2)
      attributes: full, newton on
      pair build: copy
      stencil: none
      bin: none
  (2) pair sw, perpetual
      attributes: full, newton on
      pair build: full/bin/atomonly
      stencil: full/bin/3d
      bin: standard
Deleted 684 atoms, new total = 8532

# set timestep
#
timestep 10.0

# Define output
#
compute 1 all msd
thermo 50
thermo_style custom step temp press vol etotal ke pe c_1[4]

# Neighbor lists
#
neigh_modify delay 0 every 1 check yes

# Set fixes
#
fix 1 all momentum 10 linear 1 1 1 rescale
fix 2 all nph iso ${PRES} ${PRES} ${PCOUPL}
fix 2 all nph iso -1000 ${PRES} ${PCOUPL}
fix 2 all nph iso -1000 -1000 ${PCOUPL}
fix 2 all nph iso -1000 -1000 10000.0
fix 3 all temp/csvr ${TEMP} ${TEMP} ${TCOUPL} 837492
fix 3 all temp/csvr 293 ${TEMP} ${TCOUPL} 837492
fix 3 all temp/csvr 293 293 ${TCOUPL} 837492
fix 3 all temp/csvr 293 293 5000.0 837492


# Fix ice atoms in place
#
velocity ice set 0.0 0.0 0.0
fix 4 ice setforce 0.0 0.0 0.0

# Run 1.0 ns equilibration of water
#
dump 1 all atom 1000 eq.all.${NAME}.dump
dump 1 all atom 1000 eq.all.coexist_293K_-1000atm_ML.dump
run 100000
Neighbor list info ...
  update every 1 steps, delay 0 steps, check yes
  max neighbors/atom: 2000, page size: 100000
  master list distance cutoff = 6.0032907
  ghost atom cutoff = 6.0032907
  binsize = 3.0016454, bins = 35 18 18
  1 neighbor lists, perpetual/occasional/extra = 1 0 0
  (1) pair sw, perpetual
      attributes: full, newton on
      pair build: full/bin/atomonly
      stencil: full/bin/3d
      bin: standard
Per MPI rank memory allocation (min/avg/max) = 4.591 | 4.599 | 4.607 Mbytes
Step Temp Press Volume TotEng KinEng PotEng c_1[4] 
       0    133.26624   -2005.5566    278112.98   -83417.559     3388.866   -86806.425            0 
      50     158.8024   -1386.3071    276283.73    -83090.34    4038.2323   -87128.572   0.87216886 
     100    165.35679   -747.67897     273280.9   -82828.678    4204.9058   -87033.584    1.8473389 
     150     175.3966   -700.97081     271969.3   -82516.644    4460.2111   -86976.855    2.8131276 
     200    178.81205   -929.12647    272368.98   -82211.011    4547.0636   -86758.075    3.8554823 
     250     184.5359   -961.62426    273212.04    -81919.04    4692.6169   -86611.657    4.9968178 
     300    186.89506   -1075.4998    273832.28   -81618.623    4752.6087   -86371.231    6.2556075 
     350    195.16304   -1224.1072    274085.56   -81301.345    4962.8575   -86264.203     7.606112 
     400    198.47444   -1049.8319    274136.27   -81107.864    5047.0641   -86154.928    9.1174474 
     450    204.28664    -960.6378    274246.89    -80885.61    5194.8643   -86080.475     10.77527 
     500    203.01647   -1036.5237    274694.71   -80667.174    5162.5649   -85829.739    12.427626 
     550    207.03369   -1201.9498    275244.32   -80466.358    5264.7199   -85731.078    14.183093 
     600    210.59311   -1210.8215    275198.73   -80253.338    5355.2333   -85608.571     15.98933 
     650    213.87199   -959.79231     274633.9   -80087.689    5438.6131   -85526.302    17.585601 
     700    217.95586   -433.69221    274513.89   -79859.115    5542.4629   -85401.578    19.432087 
     750    224.52229   -948.82179    275127.78   -79691.405    5709.4425   -85400.847    21.347319 
     800    225.26103   -810.96156    275750.39   -79515.992    5728.2282    -85244.22    23.275797 
     850    225.00179   -1291.4093    276278.88   -79368.164    5721.6358     -85089.8    25.208526 
     900    231.38832   -1311.2053    276205.43   -79223.422    5884.0408   -85107.463    27.228563 
     950    232.49998   -833.22256    275707.23   -79082.951    5912.3096   -84995.261    29.236765 
    1000    236.80325   -621.73154    275626.89   -78899.786    6021.7386   -84921.525    31.695528 
    1050    239.02638   -937.68228     276253.8   -78778.468    6078.2712   -84856.739    34.204194 
    1100    240.00559   -1244.2246     276870.7   -78600.522    6103.1719   -84703.694    36.346045 
    1150     241.6129   -1105.4058    277042.22   -78436.616    6144.0447    -84580.66    38.558806 
    1200    247.30099   -1043.4419    276776.05   -78351.463    6288.6888   -84640.152    40.321665 
    1250    248.69257   -949.11301    276442.63   -78247.792    6324.0757   -84571.868    42.684608 
    1300    248.30176   -1095.4063    276621.56   -78176.061    6314.1376   -84490.199    45.165862 
    1350    255.75771   -1189.5846    277066.21   -78011.751    6503.7371   -84515.488     47.73835 
    1400    250.98471    -910.1725    277202.81   -77905.495    6382.3631   -84287.858    50.359715 
    1450    257.80672   -1078.1658    277449.71   -77785.469    6555.8419   -84341.311    52.528031 
    1500    254.67617   -1109.8869     277769.5   -77739.225    6476.2342   -84215.459    55.198178 
    1550    258.98913   -1017.5058     277737.5   -77619.713    6585.9098   -84205.622    57.914047 
    1600    263.46497   -681.61316    277544.41   -77538.029    6699.7272   -84237.756    60.546481 
    1650    263.92589   -1186.3299    277725.52   -77476.332    6711.4481    -84187.78     63.34276 
    1700    261.79337    -852.7796    277761.15   -77406.209    6657.2198   -84063.429    66.063579 
    1750    267.04548   -988.46352    278069.49   -77294.813     6790.777    -84085.59    68.664268 
    1800    264.12218   -971.14931    278179.48    -77256.62    6716.4396    -83973.06    71.349043 
    1850    268.80019   -937.51873    277989.67   -77159.071    6835.3981   -83994.469    74.017384 
    1900    267.85847   -1137.3471    277806.66   -77103.913    6811.4509   -83915.364     77.27924 
    1950    265.58099   -893.25028    277802.32   -77039.563    6753.5361     -83793.1     80.72524 
    2000    274.23529   -1158.7193    277955.85   -76933.048    6973.6088   -83906.657    83.897587 
    2050     271.6528   -746.86827    278029.05   -76890.778    6907.9379   -83798.716    86.825885 
    2100     268.5417    -967.4243    278486.11   -76835.883    6828.8249   -83664.707    89.781352 
    2150    279.49928   -1343.0557    278890.39   -76729.985    7107.4684   -83837.454    92.583198 
    2200    272.41545   -1221.3471    278757.55   -76658.559    6927.3317   -83585.891    95.067401 
    2250    276.32527   -676.91808    278314.35   -76636.716    7026.7556   -83663.472     98.14841 
    2300    277.87319   -884.95764     278329.3   -76616.736    7066.1182   -83682.854    101.26205 
    2350    279.01707   -951.52352    278562.98   -76541.179    7095.2062   -83636.385    104.40896 
    2400    280.87026   -1221.7298    278682.62   -76549.166    7142.3314   -83691.497    107.61154 
    2450    277.49165   -1007.8912    278659.16       -76564    7056.4157   -83620.416    110.36799 
    2500    276.83191   -940.36383    278833.54   -76563.291    7039.6391    -83602.93    113.49096 
    2550    285.04421   -1206.4392    278904.72   -76477.541    7248.4721   -83726.013    116.61021 
    2600    277.12645   -730.23981    278585.06   -76484.908     7047.129   -83532.038    119.76836 
    2650    277.05321   -961.65479    278549.61    -76493.54    7045.2666   -83538.806    122.86387 
    2700    278.77756   -968.82291    278749.98   -76441.296    7089.1155   -83530.412    125.73049 
    2750    285.22741   -903.58174    278830.39   -76399.285    7253.1308   -83652.416    128.59467 
    2800    281.32936   -1153.3288    278830.09   -76429.712     7154.006   -83583.718    131.33158 
    2850    281.56972   -1176.1895    278589.08   -76391.002    7160.1182   -83551.121    134.53349 
    2900    288.00128   -983.40211    278365.15    -76357.34    7323.6682   -83681.008    137.50804 
    2950     283.0078   -907.58377    278604.44   -76342.443    7196.6877   -83539.131    141.24955 
    3000    284.53613    -783.8442    278837.66   -76337.314    7235.5519   -83572.866    144.59567 
    3050     285.0133   -982.43986    279208.61   -76304.135    7247.6859   -83551.821    148.32861 
    3100    285.19562   -1048.3154    279438.87   -76228.506    7252.3224   -83480.829    151.93267 
    3150    285.96401   -961.66569    279215.74   -76181.281     7271.862   -83453.143     154.6709 
    3200    287.52892   -770.35353    278943.09   -76153.201    7311.6564   -83464.857    157.84706 
    3250    286.11399   -817.35217    278879.98   -76120.157    7275.6758   -83395.833    161.88098 
    3300     289.0877   -960.87813    279142.67   -76130.431    7351.2951   -83481.726    164.63738 
    3350     285.4722   -1130.0755    279374.76    -76148.72    7259.3556   -83408.075    166.54613 
    3400    292.17115   -1161.8899    279262.95   -76159.822    7429.7051   -83589.527    169.53348 
    3450    289.56116   -806.35488     278837.2   -76225.864    7363.3349   -83589.199    172.13094 
    3500    285.95613   -892.51066    278415.71   -76233.362    7271.6615   -83505.023    174.71621 
    3550    284.25476   -916.89848    278604.83   -76214.078    7228.3968   -83442.475    177.53444 
    3600    282.20386   -983.40857    279016.48    -76182.25    7176.2439   -83358.494    180.70889 
    3650    285.80051   -772.61196     279273.8   -76150.445    7267.7042   -83418.149    184.19145 
    3700    284.31708   -803.77873    279382.36   -76103.103    7229.9817   -83333.085     187.2672 
    3750    286.10147   -1107.4012    279396.18    -75997.16    7275.3574   -83272.518    190.10359 
    3800    290.44386   -1128.7036    279550.23   -75990.948    7385.7813   -83376.729    193.21485 
    3850    291.52381   -995.73658    279465.61   -75939.321    7413.2437   -83352.564    196.62017 
    3900    290.84614   -1153.8617    279297.29   -75905.882    7396.0111   -83301.894    199.34253 
    3950    289.05924   -976.40686    279167.37   -75902.112    7350.5713   -83252.683    202.19027 
    4000    289.25849   -918.56155    279407.16   -75959.557    7355.6383   -83315.195    205.10676 
    4050    288.48963    -1050.526    279613.37   -75959.687    7336.0867   -83295.774    207.54933 
    4100    290.99814   -1014.6281    279513.65   -75947.221    7399.8763   -83347.097    210.51686 
    4150    284.02925   -803.38139    279082.31   -75991.426    7222.6624   -83214.089    213.63029 
    4200    295.10859   -920.28465    278675.35   -75972.177     7504.402   -83476.579    216.54035 
    4250    289.51988   -604.39894    278825.86   -75947.614    7362.2852   -83309.899    219.13518 
    4300    289.59609   -1050.5203    279553.52   -75921.927     7364.223    -83286.15    222.56765 
    4350    289.98382   -1059.8902    279761.86    -75915.91    7374.0828   -83289.993    225.99188 
    4400    289.12446   -772.53041    279528.84   -75940.237    7352.2299   -83292.467    228.97443 
    4450    290.25624   -1261.3687    279416.47    -75915.45    7381.0103   -83296.461    232.80093 
    4500    293.93152   -873.08664     279172.5   -75900.531    7474.4701   -83375.001     235.5214 
    4550    291.98898   -1183.6344    279270.86    -75893.39    7425.0726   -83318.463    238.36692 
    4600    290.84544   -1190.4572    279546.09   -75857.945    7395.9932   -83253.938    240.71475 
    4650    290.83399   -1128.6711    279718.63   -75854.608    7395.7022    -83250.31    243.30673 
    4700    289.12721   -1003.5297    279675.25   -75853.061    7352.2998   -83205.361    245.52917 
    4750    291.59407   -1035.7872    279229.22   -75888.976    7415.0304   -83304.006    247.83739 
    4800    292.36731   -777.80867    278911.98   -75860.177    7434.6932   -83294.871    249.98583 
    4850    291.47626   -1066.9589     279054.3   -75814.088    7412.0345   -83226.122    253.47155 
    4900      292.906   -1071.2162     279481.2   -75816.629    7448.3917   -83265.021    257.39682 
    4950    291.34732   -1229.1786     279766.7   -75821.313    7408.7556   -83230.068    261.29817 
    5000    292.82855   -1287.2164    279900.23   -75815.755    7446.4223   -83262.178    264.42627 
    5050     292.7566   -1097.8648    279647.35   -75825.804    7444.5927   -83270.396    267.17709 
    5100     293.8494    -875.1197    279171.47   -75813.252    7472.3817   -83285.633    269.92052 
    5150    297.16694   -962.16508    278891.35   -75845.711    7556.7445   -83402.455    271.85636 
    5200    297.23131   -1004.3911    278949.01   -75801.682    7558.3814   -83360.063    275.06471 
    5250    293.56358   -1124.6933    279357.23   -75771.877    7465.1134   -83236.991     278.8009 
    5300    291.55899   -1133.3796    279835.53   -75716.643    7414.1383   -83130.781    282.61305 
    5350    291.65608   -1227.0189    280145.95   -75697.235    7416.6073   -83113.842     286.5222 
    5400    294.15006   -1000.8527    279972.18   -75708.384    7480.0274   -83188.411    290.07581 
    5450    294.35521   -710.72326    279292.62   -75705.485    7485.2441   -83190.729     293.1349 
    5500    291.12987   -718.38264    278939.56   -75703.058    7403.2261   -83106.284    294.53673 
    5550    292.27984   -605.47677    279395.31   -75738.374     7432.469   -83170.843    297.45738 
    5600    294.91659    -1011.236    280164.91   -75693.246    7499.5196   -83192.765    301.73839 
    5650    299.40951    -1547.114    280252.02   -75684.017    7613.7715   -83297.789    304.49656 
    5700    298.91757    -1006.566    279466.79   -75638.585    7601.2617   -83239.847    306.82599 
    5750    297.35631   -885.81632    278926.62   -75677.381      7561.56   -83238.941    309.69619 
    5800    298.09865   -944.04555     278994.7   -75707.085    7580.4371   -83287.522     312.3979 
    5850    294.10536   -923.40884    279475.53   -75688.252    7478.8905   -83167.143    315.23152 
    5900    299.17476   -1024.2849    280028.62   -75644.515    7607.8018   -83252.317     318.3638 
    5950    297.46248   -1099.0783    280035.34   -75614.076    7564.2597   -83178.336    321.96362 
    6000    297.09653     -1016.65    279548.23    -75668.28     7554.954   -83223.233    325.33412 
    6050    291.73375   -919.70801    279040.72   -75716.843    7418.5823   -83135.425    327.57422 
    6100    297.59896   -1050.1456    279093.93   -75725.217    7567.7304   -83292.947    330.78271 
    6150    294.86612   -1257.9499    279488.06    -75685.45    7498.2363   -83183.686    334.09268 
    6200    293.17538    -1025.217    279764.12   -75671.974    7455.2418   -83127.215    336.46398 
    6250    298.98345   -923.25161    279710.48   -75638.521     7602.937   -83241.458    339.12005 
    6300    302.04826   -957.62445    279663.61   -75645.028    7680.8729     -83325.9    340.96942 
    6350    293.42202   -969.21909    279675.74   -75680.449    7461.5139   -83141.963    343.80408 
    6400    292.73744    -1131.627    279697.44   -75607.192    7444.1054   -83051.297    347.43762 
    6450    300.12009   -775.00494     279588.7   -75603.634     7631.841   -83235.475    349.57315 
    6500    301.36134   -1074.0561    279610.19   -75604.627     7663.405   -83268.032     352.3853 
    6550    297.88014   -810.39783    279793.45   -75609.556    7574.8806   -83184.436    354.92758 
    6600    289.26399   -1177.5981    279954.06   -75696.779    7355.7781   -83052.557    357.58001 
    6650    293.23211   -835.39933    279419.34   -75736.422    7456.6845   -83193.107    360.10414 
    6700    295.14349   -1164.9674    279102.88   -75753.381    7505.2896   -83258.671    361.81722 
    6750    291.33003    -963.6225    278903.62   -75784.648     7408.316   -83192.964    364.61533 
    6800     292.1802   -1274.8068    279304.64     -75789.8    7429.9351   -83219.735    367.46627 
    6850    292.82809   -832.77378    279483.81   -75807.373    7446.4106   -83253.784     370.1741 
    6900    297.39961   -705.26523    279546.51   -75829.093    7562.6611   -83391.754    372.80133 
    6950    291.09145   -1071.2221    279436.78   -75802.267    7402.2491   -83204.516    376.67447 
    7000    292.72235   -806.74628    279354.17    -75794.03    7443.7217   -83237.752    380.33276 
    7050    290.09936   -899.84034    279445.37   -75772.771    7377.0209   -83149.792    383.97978 
    7100    296.63767   -1097.1925    279309.28   -75725.017    7543.2854   -83268.302    386.54521 
    7150    296.09753   -1133.1892    279479.15   -75733.976      7529.55   -83263.526    388.89034 
    7200     294.4169   -1082.8855    279747.01   -75693.812    7486.8129   -83180.625    392.69036 
    7250    301.18082   -1121.4486    279817.21   -75659.582    7658.8145   -83318.397    395.17105 
    7300     289.7346   -756.29058    279668.53    -75648.48    7367.7454   -83016.225    397.98025 
    7350    298.54284   -933.14657    279409.07    -75680.41    7591.7326   -83272.142     400.5587 
    7400    294.86884   -854.81212    279367.93   -75678.541    7498.3053   -83176.846    403.39317 
    7450    297.44166   -1047.5346    279695.33   -75649.457    7563.7305   -83213.188    406.73265 
    7500    291.44395   -968.01644    279955.68   -75668.305    7411.2128   -83079.518    408.75667 
    7550    293.75025   -1115.6175    279987.44   -75718.256    7469.8604   -83188.117    412.19342 
    7600    294.16212   -1202.5546    279765.21   -75717.155    7480.3339   -83197.489    415.06356 
    7650    295.83739   -949.25997    279463.25   -75702.486    7522.9348   -83225.421    418.11512 
    7700    299.29413   -1012.3053    279425.89     -75702.7    7610.8374   -83313.537    422.00062 
    7750     294.5182   -1100.9779    279755.17   -75717.825    7489.3889   -83207.214    425.01647 
    7800    299.47809   -1233.3523    280012.19    -75758.39    7615.5153   -83373.905    427.99757 
    7850    294.58137   -1091.2882    279852.46   -75740.632    7490.9953   -83231.627    430.50347 
    7900    298.61422   -1062.4687    279648.11   -75712.588    7593.5477   -83306.135    432.62514 
    7950    298.27295   -1163.8098    279602.71   -75733.001    7584.8695   -83317.871    436.28426 
    8000    292.46935     -1067.48    279674.81   -75723.586     7437.288   -83160.874    439.65077 
    8050    296.57923   -1165.9522    279849.75    -75735.89    7541.7994    -83277.69    441.89755 
    8100    297.04837    -1031.741    279647.75   -75775.209    7553.7292   -83328.938    444.24623 
    8150    291.40822   -839.92426    279242.91   -75826.491    7410.3042   -83236.795    447.49138 
    8200    294.57557   -919.50369    279214.46   -75790.235    7490.8477   -83281.083    451.41096 
    8250    294.95802   -710.60484    279150.86   -75791.467    7500.5731    -83292.04    455.15078 
    8300    295.16527   -816.29542    279241.04   -75770.921    7505.8434   -83276.764    457.16656 
    8350    292.02775   -900.38481    279459.78   -75835.913    7426.0586   -83261.972    459.71247 
    8400    290.38465   -1236.8782    279827.76   -75845.879    7384.2756   -83230.154    462.74865 
    8450    297.28897   -1113.3596    279818.76   -75837.027    7559.8476   -83396.874    465.90471 
    8500    292.56029   -881.34723    279478.01   -75782.969    7439.6007   -83222.569    467.28034 
    8550    291.41146   -952.88797     279261.4   -75741.521    7410.3867   -83151.907    469.43931 
    8600    296.08709   -1006.1622    279265.07   -75754.673    7529.2846   -83283.957    472.30656 
    8650    296.32133   -1254.8966    279404.98   -75708.338    7535.2412    -83243.58    474.98118 
    8700    291.02348    -781.7324    279486.12   -75673.017    7400.5205   -83073.538    477.20906 
    8750    300.24546   -842.33634    279868.93   -75658.783    7635.0291   -83293.812    480.16325 
    8800    293.60896   -1061.2644    280205.38   -75635.902    7466.2675    -83102.17    483.48722 
    8850    293.78527   -1067.8612    280090.59   -75613.135     7470.751   -83083.886    486.47596 
    8900    306.02647     -1263.52    279712.36   -75631.018     7782.036   -83413.054    489.27886 
    8950    298.09812   -657.92117    279260.75   -75612.563    7580.4236   -83192.986    492.33412 
    9000    295.81373   -598.67073    279329.59   -75624.932    7522.3332   -83147.265    497.20433 
    9050    299.60275   -954.54966     280020.9   -75594.246    7618.6854   -83212.932     500.3165 
    9100     299.1287   -1309.9098    280637.72   -75595.411    7606.6307   -83202.042     503.4959 
    9150    291.28832   -1215.4976    280234.57   -75616.026    7407.2554   -83023.281    505.82442 
    9200    296.52585   -1002.1368    279520.29   -75578.234     7540.442   -83118.676    508.07777 
    9250    299.58023   -1112.2625    279144.52     -75566.7    7618.1126   -83184.813    509.49136 
    9300    297.19195   -788.95947    279481.26   -75627.778    7557.3804   -83185.159    513.12731 
    9350    291.64964   -1215.8617    280117.56   -75618.169    7416.4435   -83034.612    516.51445 
    9400    293.83978   -1291.3076    280170.55   -75664.207    7472.1371   -83136.344    518.59628 
    9450     296.7555   -980.04617    279913.35   -75668.711    7546.2818   -83214.992    520.45992 
    9500    296.27264   -1153.2866    279486.76   -75668.538     7534.003   -83202.541     523.4971 
    9550    292.36964    -1026.292    279377.37   -75674.092    7434.7525   -83108.845    525.87685 
    9600    293.75683   -746.51996    279699.78   -75672.188    7470.0279   -83142.215    529.55282 
    9650    295.71348   -1014.3341    280220.76   -75622.145     7519.784   -83141.929    532.30789 
    9700     295.5593   -946.74415    279993.19   -75625.223    7515.8634   -83141.086    534.49843 
    9750    292.71175   -913.51956    279587.82    -75714.59    7443.4522   -83158.042    535.85727 
    9800    297.39753   -946.73826    279399.14   -75697.721    7562.6083    -83260.33    537.56662 
    9850    296.73693   -1048.8851    279432.21   -75697.759    7545.8096   -83243.569    541.73294 
    9900    297.93964   -1006.5003    279680.84    -75653.74    7576.3937   -83230.134    545.97412 
    9950    294.50659   -1173.3782    280053.85   -75655.473    7489.0938   -83144.567    549.43703 
   10000    295.04595   -1068.6751    279730.57    -75674.76    7502.8092   -83177.569    551.10525 
   10050     296.5191   -764.31072    279307.19   -75685.238    7540.2704   -83225.508    552.84981 
   10100    296.23208   -1086.7463    279363.55   -75683.006    7532.9715   -83215.977     555.4222 
   10150    300.11228   -1290.5941    279745.79   -75677.514    7631.6424   -83309.156    559.04602 
   10200    297.28828   -966.28655    280009.98   -75704.597      7559.83   -83264.427    563.08555 
   10250    304.19997   -1113.1961    280101.55   -75653.966    7735.5895   -83389.555    565.53727 
   10300    297.37895   -1121.7355    279946.63   -75620.298    7562.1358   -83182.434    568.38582 
   10350    296.18421   -1064.2772    279752.03   -75645.665    7531.7544   -83177.419    570.44578 
   10400    295.16635   -991.84434    279472.77   -75676.202    7505.8709   -83182.073    573.33685 
   10450    296.48665   -833.13894     279566.6   -75654.992    7539.4451   -83194.437    575.88102 
   10500    295.82783    -1170.747    279715.51    -75628.68    7522.6918   -83151.372    579.60596 
   10550    297.75173   -867.48983    279715.14   -75611.237    7571.6152   -83182.852    583.28252 
   10600    297.62783   -1240.7174    279973.45   -75600.628    7568.4646   -83169.093    584.90182 
   10650    296.70472   -965.52651    279641.06   -75636.947    7544.9906   -83181.938    587.30009 
   10700    296.33785   -705.27678    279179.39   -75699.809    7535.6613    -83235.47    589.76757 
   10750    297.17825   -770.68954    278998.21   -75695.573    7557.0319   -83252.605     591.0359 
   10800    295.68307   -742.67493    279317.15    -75695.97    7519.0106    -83214.98    594.52234 
   10850    293.63039   -1241.7269    279912.59   -75693.378    7466.8125    -83160.19    597.90641 
   10900    293.82376   -1354.7237    280215.34   -75685.594    7471.7298   -83157.324    600.59427 
   10950    292.27381   -716.50795    279833.22   -75719.043    7432.3155   -83151.359    601.10271 
   11000    293.74125    -1142.896    279346.16   -75752.015    7469.6316   -83221.647    603.64769 
   11050    292.41811   -789.05032    278997.94   -75747.638     7435.985   -83183.623     605.8259 
   11100    292.97214   -808.48994     279154.2   -75786.084    7450.0737   -83236.158    610.16145 
   11150    293.57945   -1027.7515    279667.87    -75781.63     7465.517   -83247.148    613.12736 
   11200    292.17788    -889.8921    279992.98   -75792.583    7429.8762   -83222.459    616.85619 
   11250     291.4133   -1181.8538    279783.01   -75777.252    7410.4336   -83187.686    618.69943 
   11300    291.96073   -1011.6905    279119.29   -75798.252    7424.3543   -83222.606    619.43459 
   11350    297.04658   -646.74344    278552.04   -75825.461    7553.6837   -83379.145     619.6821 
   11400    297.01792   -1019.2624    278701.62   -75848.257    7552.9551   -83401.212    622.58751 
   11450    288.31548   -789.47811    279454.57   -75789.081     7331.658   -83120.739    626.58073 
   11500    296.04052   -1300.5765    280190.81   -75708.521    7528.1003   -83236.622    629.61165 
   11550    295.56322   -1209.1118     280381.9   -75690.742     7515.963   -83206.705    631.60738 
   11600    294.07517   -1147.6944    279961.63   -75737.252     7478.123   -83215.375    634.61195 
   11650    292.87995   -900.13695    279109.95   -75843.647    7447.7292   -83291.376     635.3115 
   11700    293.67205   -1096.0329    278831.97    -75804.81     7467.872   -83272.682    634.60524 
   11750    293.01332   -1283.3022    279379.02   -75842.607    7451.1207   -83293.728    637.05527 
   11800    291.32097   -1256.2572    279955.05   -75876.692    7408.0855   -83284.777    639.94334 
   11850    292.46223   -984.77878    279932.52   -75883.877    7437.1071   -83320.984    643.75738 
   11900    288.48154   -824.07945    279710.04   -75866.659    7335.8809    -83202.54    645.31282 
   11950    290.76008    -1092.992    279395.01   -75854.221    7393.8226   -83248.043    645.46646 
   12000    290.61676   -940.69399    279082.77    -75882.82    7390.1779   -83272.998    646.40119 
   12050    291.29365   -857.18114    279073.93   -75911.633     7407.391   -83319.024    649.42498 
   12100     291.7459   -813.20912    279223.68   -75874.775    7418.8913   -83293.666    652.65888 
   12150    296.35106   -1023.4915    279766.28   -75825.832    7535.9971   -83361.829    656.06407 
   12200    295.61637    -1028.634    280099.94   -75784.957    7517.3145   -83302.271    659.57156 
   12250    287.28296   -1086.8452    279873.06    -75820.63    7305.4019   -83126.032    661.97326 
   12300    297.64624   -891.21616    279231.77   -75748.012    7568.9328   -83316.945    664.73358 
   12350    293.47453   -1160.9227    279144.23   -75789.114     7462.849   -83251.963    667.01626 
   12400    294.22892   -944.52036    279161.29   -75762.565    7482.0326   -83244.597    670.02168 
   12450     299.3868   -923.88393    279381.43   -75739.817     7613.194   -83353.011    673.09423 
   12500    291.54762   -1148.6284    279901.17   -75748.031     7413.849    -83161.88    677.92321 
   12550    293.68908   -1037.5208    280035.27   -75737.945     7468.305    -83206.25    680.52872 
   12600    293.19623   -972.00662    279663.93   -75769.451    7455.7722   -83225.223    682.99398 
   12650    290.93472   -1050.7227    279223.59   -75779.691    7398.2635   -83177.954    685.43646 
   12700    294.96936   -622.50487    279122.98   -75798.329    7500.8615   -83299.191     687.6485 
   12750    291.47183   -1046.2599     279397.6   -75781.315    7411.9217   -83193.237    690.12003 
   12800    292.29007   -993.63902    279612.12   -75815.275    7432.7291   -83248.004    693.44526 
   12850    289.83094   -1321.6594    279499.97   -75845.656    7370.1951   -83215.851    697.14368 
   12900    294.21968   -916.12398    279247.45   -75826.885    7481.7978   -83308.682    698.86061 
   12950    289.74464   -1267.1047    279635.57   -75816.607    7368.0007   -83184.607    700.97698 
   13000    291.56551   -889.23078    279960.92   -75777.439    7414.3041   -83191.743      703.728 
   13050    293.09902    -1243.879    280070.66   -75740.688    7453.3002   -83193.989    705.90462 
   13100    295.70582   -1123.2663    279830.97   -75697.974    7519.5891   -83217.563    708.21705 
   13150    295.49731   -875.62953    279353.19   -75732.265    7514.2871   -83246.552    708.82086 
   13200    294.04253   -940.24305    279135.35   -75748.164     7477.293   -83225.457    711.41604 
   13250    292.51375   -781.13647    279324.57   -75726.168    7438.4171   -83164.585    715.12389 
   13300     298.2173   -1180.4903    279809.09   -75727.826    7583.4544   -83311.281    718.67808 
   13350    300.50564   -1276.2024    279959.23   -75729.054    7641.6451   -83370.699    721.32024 
   13400     291.7815   -1366.8711    279731.71   -75776.969    7419.7966   -83196.766    722.78009 
   13450    293.20201   -1068.5206       279425   -75745.505    7455.9192   -83201.424    725.04921 
   13500    295.32694    -1066.549    279356.69   -75734.612    7509.9547   -83244.566    726.86578 
   13550    303.34375   -995.29907    279486.38   -75724.515    7713.8165   -83438.332    730.30845 
   13600    297.16608   -1046.2905    279664.03   -75737.092    7556.7225   -83293.814    733.60399 
   13650    297.07502   -981.59106    279641.85   -75763.342     7554.407   -83317.749    736.92675 
   13700    294.51849   -951.01709    279500.16   -75778.022    7489.3963   -83267.418    739.13752 
   13750    292.06492   -754.69708    279219.71   -75775.456    7427.0037    -83202.46    742.15015 
   13800    299.02207   -992.29048    279270.22   -75759.339    7603.9192   -83363.258    745.72369 
   13850    295.50509   -1036.4952    279582.85   -75748.041    7514.4848   -83262.526    749.53388 
   13900    292.50492   -1076.8575    279657.98   -75770.244    7438.1926   -83208.437     752.3461 
   13950    291.48574   -1040.5908    279409.44   -75786.278    7412.2756   -83198.554    754.54741 
   14000    297.07288   -970.74651    278984.07   -75809.661    7554.3525   -83364.014    755.34478 
   14050    291.99485   -986.75729     278900.5   -75819.288     7425.222    -83244.51    757.84199 
   14100    290.65151    -512.1929    279170.53   -75781.284    7391.0617   -83172.346    761.53039 
   14150    292.54196   -1163.1226    280092.39   -75780.074    7439.1345   -83219.209    765.67232 
   14200    290.62246   -1318.3984    280244.41   -75807.799    7390.3229   -83198.122    767.35364 
   14250    289.93437   -1370.6324    279591.66   -75848.279    7372.8253   -83221.104    768.17858 
   14300    289.74963   -452.24635    278851.95    -75855.46    7368.1275   -83223.587    768.31922 
   14350    293.66477   -931.79416    279026.33   -75879.898    7467.6868   -83347.585    770.42968 
   14400    294.43833   -1042.8796    279502.95   -75863.193     7487.358   -83350.551    773.94448 
   14450    290.90942   -1303.4173    279909.68   -75841.365    7397.6201   -83238.985    776.27789 
   14500     288.7553   -1088.1915    279721.29   -75801.581    7342.8424   -83144.423    779.23504 
   14550     290.0772   -913.28903    279303.95   -75815.799    7376.4573   -83192.256    780.55218 
   14600    295.23718   -824.22887    279051.18   -75840.774    7507.6721   -83348.446    781.71791 
   14650    295.73351   -999.73719    279272.67   -75821.536    7520.2934    -83341.83    784.50936 
   14700    291.76832   -858.62407    279689.95   -75762.285    7419.4614   -83181.746    788.86413 
   14750    294.60131   -1230.6487    279957.03   -75779.421    7491.5024   -83270.923    792.63781 
   14800    295.28649   -1035.6823    279599.49   -75786.788    7508.9259   -83295.714    794.06508 
   14850    291.21342   -525.79648    279158.49   -75801.341    7405.3507   -83206.691     797.0516 
   14900    292.93695   -962.96234    279202.05   -75801.931    7449.1788    -83251.11    800.30905 
   14950    288.23038   -1197.4544    279399.82   -75852.925    7329.4941   -83182.419    803.12259 
   15000    292.20546   -1069.9896    279329.36   -75859.681    7430.5774   -83290.259    805.16044 
   15050    295.76165   -873.06873    279258.64   -75905.701    7521.0088   -83426.709     809.5927 
   15100    289.68564    -759.5019    279067.22   -75915.584    7366.5002   -83282.084     811.0414 
   15150    294.00416   -676.91468    279085.99   -75946.518    7476.3172   -83422.835    813.24218 
   15200    292.15373   -967.06259    279482.67   -75977.303    7429.2621   -83406.565    815.84047 
   15250    293.22423   -1090.1397    279630.64   -75955.788     7456.484   -83412.272    819.24622 
   15300    289.42019   -1182.0996    279327.44   -75956.795    7359.7502   -83316.545     819.5516 
   15350    290.68521    -860.5203    278745.86   -75972.836    7391.9187   -83364.755    818.59812 
   15400    291.69441    -866.4362    278669.82   -75995.571    7417.5819   -83413.153    818.44068 
   15450    287.75785   -1091.3077    278863.73   -76093.211    7317.4781   -83410.689    822.54261 
   15500    287.57915   -1213.2304    279165.14   -76103.446    7312.9336    -83416.38    826.45045 
   15550       287.56   -821.53943    279215.88   -76122.023    7312.4468    -83434.47    828.51593 
   15600    289.77277   -1346.8588     279168.4   -76069.461    7368.7161   -83438.177    830.22739 
   15650    289.94021   -851.19968    278865.87   -76016.181    7372.9739   -83389.155     832.8243 
   15700    290.17962   -937.98191    278752.49    -75972.38    7379.0619   -83351.442    834.58433 
   15750    291.30043   -854.80326    278760.11   -75931.181    7407.5632   -83338.744    836.78048 
   15800    290.58401   -1046.3323    279072.88   -75935.986    7389.3452   -83325.331    839.96019 
   15850    290.19373   -1378.3895    279427.47   -75932.131    7379.4208   -83311.552    844.49669 
   15900    286.11446   -1062.1433    279449.46   -75936.179    7275.6876   -83211.866    846.93221 
   15950    292.95963   -1040.6813    279275.09   -75953.136    7449.7557   -83402.892    848.70736 
   16000    290.91594    -730.5587    279063.37   -75920.449    7397.7858   -83318.235    850.06375 
   16050    291.00256   -1215.1265    279267.75   -75935.543    7399.9885   -83335.532    851.72561 
   16100    291.45341   -1263.8835    279393.46   -75932.682    7411.4535   -83344.136    853.45515 
   16150    291.04128    -818.8127    279349.28   -75916.878    7400.9733   -83317.851    855.08908 
   16200    292.93591   -1057.8819    279558.56   -75828.532    7449.1524   -83277.684    856.54306 
   16250    293.10425   -1000.8783     279819.5   -75820.053     7453.433   -83273.486    859.43733 
   16300    293.62159   -1221.9071    279570.48   -75797.996    7466.5888   -83264.585    862.31107 
   16350    295.12238   -1166.5917    278997.34   -75776.717    7504.7528    -83281.47    864.45716 
   16400    295.91186   -1126.4537    278962.24     -75826.9    7524.8287   -83351.729    867.00955 
   16450    295.28069   -953.92435    279175.96   -75812.609    7508.7785   -83321.388    870.01867 
   16500    290.62898   -799.02825    279431.44   -75813.688    7390.4889   -83204.177     873.4556 
   16550      290.277   -1136.1347    279774.07   -75876.821    7381.5382   -83258.359    877.64707 
   16600      286.701   -827.21935    279822.29   -75852.052     7290.603   -83142.655    880.58616 
   16650    293.03804   -842.55201    279480.79   -75902.239    7451.7494   -83353.989    883.05607 
   16700    297.20101   -1105.1734    279157.43   -75881.201    7557.6107   -83438.811     882.7724 
   16750    292.91439   -931.00532    278960.17   -75844.953    7448.6052   -83293.558     884.7758 
   16800    294.56231   -1000.3335    279231.75   -75811.655    7490.5106   -83302.165    887.15194 
   16850    299.15672    -1129.634    279628.39   -75785.879    7607.3433   -83393.223    891.48027 
   16900    293.98855   -1171.3743     279728.9   -75802.869    7475.9202   -83278.789    895.00635 
   16950    291.87271   -1026.7481    279688.79   -75793.887    7422.1158   -83216.003    897.47933 
   17000    293.50978   -1141.1111    279690.45   -75811.384    7463.7455   -83275.129    899.30051 
   17050    292.44308    -1073.867    279327.57   -75789.674      7436.62   -83226.294    900.72258 
   17100    289.84026   -1116.6525    279150.59    -75781.16    7370.4322   -83151.592    904.92508 
   17150    295.33083   -762.18766    279037.33   -75812.202    7510.0534   -83322.255       907.66 
   17200    287.52397   -1022.3157    279331.75   -75824.933    7311.5306   -83136.464    910.76966 
   17250    290.95809   -847.01326    279506.63   -75834.782    7398.8578    -83233.64    912.67106 
   17300    289.00638   -988.61295     279435.1   -75854.549    7349.2272   -83203.776    915.27628 
   17350     292.3745   -1080.6173    279041.96   -75885.442     7434.876   -83320.318    917.41369 
   17400    296.11979    -958.7138    278736.93   -75898.778    7530.1162   -83428.894    921.19282 
   17450    291.54295   -798.16186    278777.39   -75894.621    7413.7303   -83308.351    924.15277 
   17500    290.55986   -1105.7379    279290.38   -75952.613    7388.7311   -83341.344    928.49243 
   17550    288.33632   -962.39414    279540.48   -75945.829    7332.1879   -83278.017    931.60597 
   17600    288.04725   -1039.6899    279413.95   -75954.131    7324.8371   -83278.968    934.86763 
   17650    292.03586   -715.67703     278881.6   -75932.744    7426.2647   -83359.008    937.06735 
   17700     288.5328   -683.25386    278672.37   -75965.203    7337.1845   -83302.387     940.5692 
   17750    292.16769   -1243.2092    279060.55   -75972.202    7429.6171   -83401.819    944.93088 
   17800    287.23243   -1001.2224    279318.07   -75983.523    7304.1169    -83287.64    948.24046 
   17850    287.08807    -762.7923    279229.28   -76018.365     7300.446   -83318.811    951.35803 
   17900    289.39894   -862.77634     279247.1   -75962.401    7359.2097    -83321.61    955.97275 
   17950    297.02264   -1206.1811    279324.95   -76003.886     7553.075   -83556.961    959.58025 
   18000    288.63528   -1109.7894    279223.18   -75990.441    7339.7905   -83330.232    962.38295 
   18050    289.52143   -1133.5597    278968.46    -76035.52    7362.3246   -83397.845    963.53809 
   18100    286.61619    -1107.152    278890.17   -76041.553    7288.4464   -83329.999    965.87224 
   18150    288.73725   -1032.9996    279046.95   -76054.543    7342.3834   -83396.926    968.82324 
   18200    284.85868   -747.10062    279313.04   -76041.611    7243.7542   -83285.365    972.33861 
   18250    286.68885   -1378.2855    279724.86   -76074.584     7290.294   -83364.878    976.00047 
   18300    283.66009    -1102.801    279574.49   -76046.822    7213.2748   -83260.097    977.49906 
   18350    291.15303   -1093.8475    279015.97   -76032.199     7403.815   -83436.014    979.64017 
   18400    288.95475   -710.29498    278673.13   -76064.304    7347.9143   -83412.218     981.1284 
   18450    291.35179    -954.4308    279149.64   -76038.999    7408.8694   -83447.868    983.65878 
   18500    293.91512   -1084.3578    279587.88   -76002.552    7474.0529   -83476.605    987.63657 
   18550    290.25311   -1100.0419    279654.12   -75971.155    7380.9306   -83352.086    989.43133 
   18600      289.845   -1079.8723    279271.18   -75978.765    7370.5528   -83349.318    990.68469 
   18650    289.91734   -979.85138    278826.05   -75960.843    7372.3922   -83333.235     990.8876 
   18700    294.84005   -790.94196    278720.86   -75905.761    7497.5733   -83403.334     993.7458 
   18750    292.77443    -1020.061    279333.16    -75882.27    7445.0461   -83327.316    996.79513 
   18800    294.58821   -1280.6895    279817.48   -75814.927    7491.1691   -83306.096    1001.0144 
   18850     289.1209    -1022.215    279865.13   -75818.094    7352.1395   -83170.234    1003.9231 
   18900    291.00466   -1068.8557    279588.84   -75865.253    7400.0421   -83265.295    1006.0848 
   18950    291.27904   -976.23349     279167.4   -75924.781    7407.0194   -83331.801    1007.5732 
   19000    289.79926   -595.86428     278816.8    -75909.01    7369.3895     -83278.4    1009.6699 
   19050     289.7468   -857.95789    279072.07   -75929.177    7368.0557   -83297.233    1012.6687 
   19100    293.58563   -1125.6123    279636.93   -75898.902    7465.6742   -83364.576    1016.4872 
   19150    293.34419   -1148.2698    279773.41   -75884.779    7459.5347   -83344.313    1018.6509 
   19200    294.20895   -823.61915     279406.8   -75869.539    7481.5248   -83351.064    1019.7066 
   19250    292.62916   -1085.6504    279184.47   -75855.386     7441.352   -83296.738    1021.9548 
   19300    292.37014   -1081.0345    278948.91   -75855.424    7434.7654   -83290.189    1024.6193 
   19350    290.36967   -867.56674    278793.13   -75846.956    7383.8946   -83230.851     1026.006 
   19400    286.45215   -889.05613    279045.83   -75827.544     7284.275   -83111.819    1029.7159 
   19450    294.45944   -1107.7857     279674.3   -75795.987    7487.8946   -83283.881    1032.6231 
   19500    294.13862   -1166.6519    280020.77   -75782.146    7479.7364   -83261.882    1036.2622 
   19550    290.59181   -1001.3493    279712.87   -75836.832    7389.5436   -83226.375    1038.4311 
   19600    290.45003     -1101.74    279118.79   -75851.833    7385.9383   -83237.771    1037.6455 
   19650    291.99013   -667.61258     278620.5   -75846.381    7425.1019   -83271.482    1038.0545 
   19700    289.44866   -665.63194     278744.1   -75844.816     7360.474    -83205.29    1040.1221 
   19750    296.55151   -1103.2481     279565.2   -75825.478    7541.0944   -83366.573    1043.8641 
   19800    295.41662   -1326.9346    280087.42     -75805.6     7512.235   -83317.835    1047.2163 
   19850      294.753   -934.95778    279931.09   -75806.571    7495.3596   -83301.931     1049.534 
   19900     292.8591   -701.38104    279412.96   -75796.024    7447.1992   -83243.223    1051.7985 
   19950    294.25984   -849.46987    279118.68   -75807.748    7482.8189   -83290.567    1052.1276 
   20000    290.79685   -895.12005       279205   -75815.916    7394.7575   -83210.673    1055.6945 
   20050     292.3569   -1223.5608    279454.55   -75830.899    7434.4285   -83265.327    1060.2822 
   20100    292.96857   -987.00088    279544.28   -75850.695    7449.9829   -83300.678    1065.1022 
   20150    294.22347   -1114.3891    279567.15   -75901.633    7481.8941   -83383.527    1068.6809 
   20200    292.91882   -1136.4603    279291.16   -75885.755    7448.7179   -83334.473    1070.1367 
   20250    294.01928   -1010.0822    279144.36   -75895.096    7476.7017   -83371.798    1071.9923 
   20300    298.53936   -1045.2787     279368.5   -75892.848    7591.6442   -83484.493    1074.2175 
   20350    296.40529   -1187.9994    279595.15   -75856.944    7537.3763   -83394.321     1077.573 
   20400    295.67109    -900.6236    279393.51   -75856.197    7518.7061   -83374.903    1080.7266 
   20450    291.36661   -956.26557    279101.35   -75866.695    7409.2462   -83275.941    1083.4848 
   20500    287.04006    -738.3257    278905.37   -75891.501    7299.2252   -83190.726     1084.909 
   20550    292.80255    -1007.724     279237.1   -75859.268    7445.7611   -83305.029      1087.19 
   20600     293.6532   -1281.7411    279632.81   -75851.615    7467.3927   -83319.008    1091.4496 
   20650    290.85028   -1241.4282    279798.45   -75869.059    7396.1162   -83265.175    1094.2066 
   20700    292.74987   -1200.9188    279872.36   -75883.272    7444.4215   -83327.693    1097.1523 
   20750    293.04717   -591.63188    279215.19    -75848.82    7451.9816   -83300.801      1097.72 
   20800    295.39062   -886.16297    278858.38   -75878.558    7511.5739   -83390.132    1097.1313 
   20850    293.51893   -1142.5971    279206.06    -75846.69    7463.9782   -83310.668    1101.1181 
   20900    289.59682   -978.78871    279595.54   -75845.123    7364.2417   -83209.365     1106.272 
   20950    291.25035   -1102.2933    279820.46    -75878.95    7406.2897   -83285.239    1110.3007 
   21000    292.43712   -941.62959       279616   -75856.083    7436.4684   -83292.551    1112.3676 
   21050    292.39022   -809.97185    279286.67   -75882.845    7435.2759   -83318.121    1114.3105 
   21100    292.59625   -957.30647     279163.8   -75894.002    7440.5151   -83334.517    1116.5054 
   21150     296.6148   -902.51058    279137.17   -75893.692    7542.7038   -83436.396    1117.6684 
   21200    292.84248   -884.70859     279243.6   -75867.411    7446.7764   -83314.188    1120.2995 
   21250    292.87119   -699.27989    279438.27   -75872.897    7447.5066   -83320.404    1122.6185 
   21300    292.87345   -1204.7049     279554.4   -75857.668    7447.5639   -83305.232    1126.9035 
   21350    290.75239   -1156.9348    279328.09   -75863.991    7393.6269   -83257.618    1126.4771 
   21400    299.01133    -935.7989    278778.02   -75875.739    7603.6461   -83479.385    1126.3294 
   21450    291.81923   -560.62515    278622.61   -75831.112     7420.756   -83251.868    1128.9479 
   21500     295.8469   -886.18771    279221.63   -75832.641    7523.1769   -83355.818    1132.5601 
   21550    293.42211   -1390.1228    279933.22   -75799.164    7461.5162   -83260.681    1135.4984 
   21600    289.79426   -1183.7726    279938.61   -75785.212    7369.2624   -83154.475    1137.9971 
   21650    294.91228   -511.11328    279234.02   -75759.173    7499.4101   -83258.583    1140.2016 
   21700    300.21512   -998.83418    278967.53   -75729.751    7634.2575   -83364.008    1143.1329 
   21750    298.66622   -1435.1934    279125.99   -75766.478    7594.8702   -83361.349    1146.7584 
   21800    295.24874   -486.66656    279106.67   -75738.612     7507.966   -83246.578    1149.1972 
   21850    296.29213   -905.06111    279404.77    -75717.28    7534.4988   -83251.779    1153.2219 
   21900    295.58349   -1039.5216    279900.07   -75729.731    7516.4785    -83246.21    1156.2826 
   21950    292.81084   -971.60846    280130.34   -75728.174     7445.972   -83174.146    1159.7219 
   22000    293.40718   -1278.6192    279654.83   -75728.715    7461.1364   -83189.851    1160.2437 
   22050     297.2598   -814.81998    279127.11   -75708.827    7559.1059   -83267.932    1160.2601 
   22100    295.66542   -887.48778    279084.36   -75693.634    7518.5619   -83212.196    1162.6779 
   22150    293.87583    -1016.777    279508.45    -75707.42    7473.0538   -83180.473    1165.9333 
   22200    298.59635   -1176.0568    280188.14    -75646.81    7593.0933   -83239.903    1170.1198 
   22250    294.80726     -1072.31    280426.07   -75635.025    7496.7394   -83131.765    1173.4348 
   22300    295.98506   -954.90898    280050.88   -75574.696      7526.69   -83101.386    1175.4827 
   22350     296.4173   -948.23216    279560.11   -75599.488    7537.6816    -83137.17    1177.9939 
   22400    295.48967   -879.42414    279227.24   -75638.572    7514.0925   -83152.665    1181.5502 
   22450    296.28459   -813.68022     279225.3    -75642.66    7534.3068   -83176.966    1183.4724 
   22500    299.32262   -974.91425    279598.02   -75614.198    7611.5618    -83225.76    1187.0264 
   22550    295.82682    -1382.664    280000.84   -75616.385    7522.6662   -83139.051    1189.4018 
   22600    295.09579   -981.13172    279800.11   -75676.183    7504.0766    -83180.26    1190.5017 
   22650    292.24385   -829.73662    279517.95   -75641.539    7431.5537   -83073.093    1192.4514 
   22700    296.30087   -998.81772    279100.14   -75667.738    7534.7209   -83202.459    1194.0607 
   22750    299.15977   -628.05312    278928.66   -75665.012    7607.4208   -83272.433    1196.3649 
   22800    300.11808   -1044.9353    279290.63    -75682.03    7631.7899   -83313.819     1202.236 
   22850    295.08028   -906.74815    279790.01   -75684.402    7503.6822   -83188.084    1207.2184 
   22900    295.02955   -1149.0384     280291.1   -75705.949     7502.392   -83208.341    1212.6751 
   22950    293.62442   -1304.4254     280421.9   -75712.075    7466.6606   -83178.736    1214.7137 
   23000    295.63977   -992.02461    279698.03   -75748.393    7517.9096   -83266.302    1214.0613 
   23050    293.94835   -859.77756    279117.81   -75707.954    7474.8979   -83182.852    1214.2299 
   23100    296.21353   -935.18596    279111.31   -75686.928    7532.4999   -83219.428    1216.8823 
   23150    296.21716   -1096.4281    279429.16   -75694.615    7532.5923   -83227.207    1219.8902 
   23200    292.71904   -740.58699    279674.06    -75698.14    7443.6375   -83141.777    1222.1129 
   23250    296.59339   -1095.5791    279979.61   -75708.617    7542.1595   -83250.776    1225.4041 
   23300    296.38379   -1335.5306    279749.74   -75726.586    7536.8295   -83263.416     1229.034 
   23350    296.31819   -783.14772    279360.74    -75739.84    7535.1613   -83275.001    1229.6602 
   23400    296.74343   -1030.5407    279426.46   -75752.964    7545.9748   -83298.938    1233.1467 
   23450    295.30004   -886.56667    279545.72   -75760.053    7509.2706   -83269.324     1238.417 
   23500    289.75929   -987.38051    279784.58   -75797.018    7368.3731   -83165.391    1242.9359 
   23550    290.59699   -867.88438    279671.66    -75792.98    7389.6754   -83182.656     1245.806 
   23600    291.26938   -1017.5497    279264.86   -75763.782    7406.7737   -83170.556    1247.0388 
   23650    295.43346   -743.92805    278924.09   -75738.919    7512.6633   -83251.582    1247.9327 
   23700    295.76226   -1072.1069    279055.34   -75689.626    7521.0245    -83210.65    1251.3075 
   23750    292.76353   -1098.7771    279488.65    -75679.41    7444.7688   -83124.179    1254.9406 
   23800    295.79929    -1241.993    280122.53   -75638.932     7521.966   -83160.898    1258.0917 
   23850    295.69845   -1510.1157    280484.83   -75647.211    7519.4017   -83166.613    1260.5545 
   23900    294.91351   -965.88925    280067.76   -75668.665    7499.4413   -83168.106    1260.8787 
   23950    297.13068   -1119.3938    279303.75   -75731.175    7555.8225   -83286.998    1261.1221 
   24000    292.59013   -779.69218    278802.09   -75757.085    7440.3594   -83197.444     1263.388 
   24050     297.1805   -1034.3693    278984.33   -75716.065    7557.0892   -83273.154    1267.7519 
   24100    298.90437   -1047.7122    279425.96    -75668.75    7600.9261   -83269.676    1270.7909 
   24150    296.45304   -1007.0189    279722.16   -75681.692    7538.5904   -83220.282    1273.4615 
   24200    296.47101   -1223.5622    279732.01   -75697.774    7539.0476   -83236.822    1276.8901 
   24250    295.27342   -1150.0588    279274.48   -75738.436    7508.5937   -83247.029     1277.481 
   24300    295.83707    -905.9052    279184.02   -75712.828    7522.9269   -83235.755    1279.3756 
   24350    298.24968    -1167.032    279614.69   -75721.169    7584.2778   -83305.447    1282.5472 
   24400    296.65654   -952.67653    279720.58   -75687.879    7543.7653   -83231.645    1285.2812 
   24450    295.76371   -847.31373    279482.11     -75763.3    7521.0613   -83284.361    1287.7011 
   24500    294.17949   -792.32793    279470.13   -75773.971    7480.7757   -83254.747    1289.0203 
   24550    293.19062   -1128.2825    279729.44   -75744.602    7455.6294   -83200.231     1290.633 
   24600    288.50318   -923.62369    280080.33   -75726.396    7336.4311   -83062.828    1293.5176 
   24650    295.91293    -1196.473    280063.28   -75722.659    7524.8558   -83247.515    1295.5086 
   24700    294.31471   -857.26052    279626.41   -75676.356    7484.2142   -83160.571    1297.8716 
   24750    297.80134   -983.61414    279241.77   -75676.414    7572.8769   -83249.291    1299.3924 
   24800    298.42128   -673.98695    278826.12   -75610.913    7588.6415   -83199.554    1300.9262 
   24850    300.41595   -724.89761     278915.2   -75593.092    7639.3645   -83232.456     1304.425 
   24900    295.63096   -1100.6033    279305.98   -75560.732    7517.6857   -83078.418    1308.6565 
   24950    293.10133   -856.27491    279676.34   -75598.778    7453.3588   -83052.137    1311.1767 
   25000    294.30336   -1356.6653    280114.52   -75633.319    7483.9257   -83117.244    1313.9406 
   25050    293.46888    -1093.198    279895.48   -75657.313    7462.7054   -83120.018    1314.5819 
   25100    295.84447   -948.99307    279391.38   -75618.802    7523.1151   -83141.917    1316.0428 
   25150    295.29278   -943.71737    279117.98   -75650.996    7509.0858   -83160.081    1317.8137 
   25200    296.54742   -1061.9811    279167.32   -75681.878    7540.9906   -83222.869    1321.1732 
   25250    297.13991   -850.76134    279487.19   -75727.958    7556.0572   -83284.015    1325.7627 
   25300    296.04082   -908.17516    279952.16   -75770.124    7528.1081   -83298.232    1330.8565 
   25350    289.43553   -1093.8498    280049.07   -75810.153    7360.1401   -83170.293    1336.1658 
   25400    292.84596    -1322.403    279597.66   -75838.875    7446.8649    -83285.74    1340.0199 
   25450    296.59882   -846.20651    278694.74   -75807.863    7542.2976    -83350.16    1341.4952 
   25500     295.6729   -710.04723    278065.19   -75810.959     7518.752   -83329.711    1342.4825 
   25550     287.5851   -439.59804    278330.29   -75849.825    7313.0851    -83162.91    1346.9562 
   25600    289.22105   -945.14352    279410.11   -75851.036    7354.6862   -83205.723    1353.0735 
   25650    287.40123   -1560.3693    280376.23   -75839.096    7308.4093   -83147.506    1359.5809 
   25700     291.7153   -1409.8732    280245.59    -75817.66    7418.1132   -83235.773    1360.2657 
   25750    290.75445   -972.11016    279359.67   -75823.466    7393.6794   -83217.145    1359.9691 
   25800    295.06963   -756.66931    278683.97   -75837.487    7503.4113   -83340.898    1360.9194 
   25850    297.11872   -917.43535    278854.68   -75825.995    7555.5183   -83381.513    1364.3577 
   25900    295.23982   -813.90772    279345.43   -75771.978    7507.7392   -83279.718    1367.5362 
   25950     290.4414   -1037.1907    279825.08   -75798.964    7385.7188   -83184.683    1373.6587 
   26000     288.8435   -933.10724    279865.22    -75770.36    7345.0854   -83115.446    1377.2061 
   26050    289.41346   -1225.8352    279561.11   -75858.134    7359.5789   -83217.713    1377.9289 
   26100    293.27654   -879.57338    279076.71   -75895.174    7457.8143   -83352.988    1378.0744 
   26150    292.79306   -1059.7011    279043.09   -75898.757    7445.5198   -83344.277    1383.0741 
   26200    288.63164    -725.6801    279175.99   -75885.533    7339.6977    -83225.23    1384.5459 
   26250    295.19346   -1040.4785    279531.92   -75876.981    7506.5603   -83383.542    1385.9748 
   26300    291.10531   -1303.6177    279978.28   -75892.097    7402.6015   -83294.698    1389.7064 
   26350    290.46809   -1183.6395    279983.86   -75906.451    7386.3975   -83292.848    1393.9177 
   26400     290.8946   -917.85914    279481.86   -75909.189    7397.2434   -83306.433    1394.1709 
   26450    296.36908   -700.12014     278848.9    -75874.65    7536.4555   -83411.106    1394.4971 
   26500    289.58002   -927.56033    278728.71   -75881.802    7363.8144   -83245.616    1398.2608 
   26550    290.39331   -892.71975    279261.61   -75867.934    7384.4959    -83252.43    1404.5274 
   26600      289.395   -1436.1292    280015.19   -75869.508    7359.1096   -83228.617    1408.6449 
   26650    289.79404   -1096.6133    279798.48   -75865.602    7369.2569   -83234.859    1410.9171 
   26700    291.85815   -791.86006    279124.28   -75834.377    7421.7456   -83256.123    1410.9528 
   26750    295.79579   -724.27353     278890.6   -75848.013     7521.877    -83369.89    1413.0093 
   26800    290.45729   -742.14426    279324.64   -75893.374    7386.1228   -83279.497    1415.6948 
   26850    292.64139   -1137.6951    279793.84   -75883.748     7441.663   -83325.411     1419.458 
   26900    295.05066   -1157.2313    279786.16   -75840.317    7502.9289   -83343.246    1420.7565 
   26950    293.34637   -1121.5898    279563.48   -75873.003      7459.59   -83332.593    1420.6852 
   27000    296.35904   -707.27803    279081.58   -75885.405       7536.2   -83421.605    1423.0582 
   27050      288.167    -641.7196     278923.8   -75901.363    7327.8823   -83229.245    1425.8528 
   27100    292.05791   -808.04963    279235.11   -75863.738    7426.8254   -83290.564    1428.2828 
   27150     293.7774   -1213.8992    279815.81   -75880.387     7470.551   -83350.938    1430.9229 
   27200    290.81007   -1233.0283    279884.28   -75852.486    7395.0938    -83247.58    1435.6278 
   27250    289.85534   -1284.3027    279540.28   -75837.039    7370.8158   -83207.855    1438.6346 
   27300    294.05675   -854.71431    278943.84   -75849.523    7477.6545   -83327.177    1437.0775 
   27350    293.75842   -1072.8521    278817.93   -75825.286    7470.0682   -83295.354    1439.1923 
   27400    294.25548    -926.0001    279194.68   -75773.471     7482.708   -83256.179    1443.6916 
   27450    297.33208   -876.37056    279869.29   -75796.697     7560.944   -83357.641    1448.6476 
   27500    291.01884   -942.12664    280234.59   -75772.305    7400.4027   -83172.708    1452.6336 
   27550    291.88033   -1251.6441    280100.22   -75769.418    7422.3097   -83191.727    1454.3202 
   27600    291.98756   -722.57235       279280    -75780.05    7425.0364   -83205.086    1453.3896 
   27650    292.92296    -837.0422    278922.88   -75807.363    7448.8231   -83256.186    1455.2003 
   27700    298.14482   -979.67239    279060.38    -75833.43    7581.6112   -83415.042    1458.8015 
   27750    299.58234   -1149.3149    279469.22    -75797.24    7618.1663   -83415.406    1463.1981 
   27800    294.05577   -1196.0034    279865.52   -75800.588    7477.6296   -83278.217    1467.8896 
   27850    292.52375   -1075.7557    279718.59    -75760.41    7438.6715   -83199.081    1471.0892 
   27900    292.48471   -1209.5251     279532.6   -75780.594    7437.6786   -83218.273    1473.5457 
   27950    294.76319   -845.77696    279117.34    -75809.54    7495.6188   -83305.158    1474.8194 
   28000    295.01854   -918.47055    279096.31   -75815.277    7502.1123   -83317.389    1477.3354 
   28050    290.84131   -1051.6575    279394.48   -75798.626    7395.8881   -83194.514     1479.538 
   28100    290.84665    -1084.847    279666.22   -75817.857    7396.0239   -83213.881    1482.3293 
   28150    293.75276   -970.54891    279863.85   -75789.091    7469.9243   -83259.015    1484.1546 
   28200    289.56744   -1059.6717    279821.47    -75795.53    7363.4945   -83159.025    1486.6167 
   28250    288.92745   -1088.0253     279398.7   -75864.889    7347.2201   -83212.109    1488.5072 
   28300    292.82137   -762.06301    279171.87   -75859.793    7446.2397   -83306.033    1490.8168 
   28350    292.57291   -1056.2491    279546.86   -75847.703    7439.9215   -83287.624    1495.1288 
   28400     295.4405   -1371.2086    279670.07   -75799.722    7512.8423   -83312.564    1498.6227 
   28450    294.09524   -881.32951    279334.03   -75803.838    7478.6333   -83282.472    1501.1869 
   28500    294.88627   -1290.6221    279113.72   -75814.289    7498.7487   -83313.037    1503.0334 
   28550    286.92861   -923.70594    279222.19   -75838.504     7296.391   -83134.895    1504.7427 
   28600    293.96794   -1175.0463    279704.01   -75812.793    7475.3961   -83288.189    1508.6559 
   28650     291.9645   -1298.6617    279851.09   -75831.533    7424.4502   -83255.984    1510.1493 
   28700    292.82955   -919.58728    279430.09   -75843.718    7446.4478   -83290.165    1511.5682 
   28750    297.48497   -1034.8015    279164.62   -75851.832    7564.8318   -83416.664    1512.4622 
   28800    293.96027   -924.01025    279170.79   -75872.829    7475.2011    -83348.03    1513.0476 
   28850    287.20541   -1045.7286     279580.4   -75837.122    7303.4299   -83140.552    1516.3406 
   28900    290.54501   -1086.1578    279613.04     -75886.4    7388.3534   -83274.753    1520.4577 
   28950    291.64378   -966.37241    279507.99   -75906.186    7416.2944    -83322.48    1522.1583 
   29000     291.0693   -1000.4873    279485.64   -75931.025    7401.6857   -83332.711    1523.4981 
   29050    289.94091   -844.98637    279509.56   -75920.275    7372.9916   -83293.266    1527.1526 
   29100    289.31786   -984.32081    279234.07   -75957.492     7357.148    -83314.64    1528.5507 
   29150    289.49912   -905.15116    278944.87   -75954.192    7361.7573   -83315.949    1529.2812 
   29200    293.47467   -982.55085    279017.16   -75959.622    7462.8527   -83422.475    1531.6484 
   29250    288.72087   -1026.9299    279161.39   -75964.809    7341.9669   -83306.776    1535.5175 
   29300    288.46353   -804.41903    279458.76   -75980.481    7335.4228   -83315.904    1539.4167 
   29350    290.47298    -1120.876    279726.56   -75975.348    7386.5218    -83361.87     1542.929 
   29400    292.17951   -1250.8402     279819.7   -75951.314    7429.9176   -83381.232    1545.5684 
   29450    289.91871    -916.2315    279539.79   -75919.526    7372.4271   -83291.953    1546.3596 
   29500    291.59467   -998.43595    279133.15   -75904.682    7415.0457   -83319.728    1546.9068 
   29550    295.76434   -594.71825    278878.57   -75862.795    7521.0772   -83383.873    1549.0598 
   29600    293.69702   -963.57295     279329.1   -75857.048    7468.5068   -83325.555    1554.6353 
   29650    291.52282   -1073.3904    279929.14   -75821.417    7413.2185   -83234.636    1559.2434 
   29700    289.70142   -894.72759    279950.34   -75816.981    7366.9016   -83183.882     1561.616 
   29750    290.78976   -737.64198    279401.62   -75783.855    7394.5774   -83178.433    1561.4742 
   29800    293.37568   -493.28384    278856.44   -75758.631    7460.3355   -83218.967    1561.7016 
   29850    292.41417    -741.4222    279108.49   -75726.766    7435.8849   -83162.651    1567.2876 
   29900    298.86042   -1174.0484    279831.16   -75731.811    7599.8083    -83331.62    1573.9626 
   29950    294.35206   -1205.4378    280274.42   -75728.209    7485.1641   -83213.373    1577.3275 
   30000    293.71829   -1245.9128    280158.87   -75704.589    7469.0477   -83173.637     1577.327 
   30050    298.82128   -962.28302    279547.78   -75698.428    7598.8133   -83297.241    1579.1214 
   30100    296.54144   -853.41146    278958.04   -75716.871    7540.8385    -83257.71    1581.0367 
   30150    292.21226   -614.80519    278721.89   -75709.964    7430.7506   -83140.714    1581.5993 
   30200    297.26111   -1094.3007    279222.67   -75746.088    7559.1392   -83305.228    1588.8119 
   30250     295.1208   -893.14928    279813.64    -75760.19    7504.7125   -83264.903    1596.1658 
   30300    289.33843   -881.80716    279862.12   -75805.574    7357.6709   -83163.245    1599.4704 
   30350    291.29835   -795.29739    279637.52   -75829.963    7407.5104   -83237.473    1600.9109 
   30400    293.61133   -972.95678     279321.9   -75865.284    7466.3277   -83331.612    1602.0509 
   30450    291.27519   -973.31204    279176.62    -75893.03    7406.9215   -83299.951    1605.2045 
   30500    292.68138   -1218.8303    279478.16       -75871    7442.6798    -83313.68    1606.8742 
   30550    293.27254   -929.21156    279827.38   -75801.014    7457.7126   -83258.727    1609.9956 
   30600    293.06973   -1233.0607    279568.45   -75775.889    7452.5552   -83228.444    1611.5126 
   30650    295.83332   -865.52388    279020.13   -75742.264    7522.8315   -83265.096    1612.1579 
   30700    298.30145   -871.69596    278932.64   -75746.762    7585.5942   -83332.357    1613.7004 
   30750     292.8142   -922.98355    279230.97   -75729.542    7446.0575     -83175.6    1618.6985 
   30800    292.53419   -1217.1429    279645.31   -75728.245     7438.937   -83167.182    1624.4562 
   30850    294.88136   -1048.4077    279920.62   -75684.571    7498.6237   -83183.195    1629.5199 
   30900    294.47265   -1040.6798    279619.07   -75671.428    7488.2305   -83159.658    1632.9428 
   30950    299.79704   -1231.6529    279258.24   -75713.709     7623.626   -83337.335    1632.4181 
   31000    296.81527   -1045.5958    279220.15   -75721.917    7547.8016   -83269.719    1633.5016 
   31050    297.97659    -824.1852    279597.88   -75750.553    7577.3333   -83327.886    1637.3944 
   31100    296.04176   -904.44045    279610.83   -75722.143    7528.1318   -83250.275    1640.5067 
   31150    296.32722   -962.64979    279436.24   -75694.487    7535.3911   -83229.878    1640.9021 
   31200    296.83213   -1099.7777    279415.42   -75728.159    7548.2306   -83276.389    1645.8443 
   31250    296.37799   -783.84189    279557.71   -75744.325     7536.682   -83281.007      1647.01 
   31300    295.43149   -1081.2161    279656.48   -75732.409    7512.6132   -83245.022     1649.536 
   31350    292.29903   -825.13221    279553.47   -75747.889     7432.957   -83180.846    1652.0743 
   31400    295.04401   -1178.6463     279771.7   -75748.832    7502.7599   -83251.592    1657.0696 
   31450    292.42147   -1051.8391    279939.77   -75746.553    7436.0705   -83182.623    1658.6577 
   31500    294.85414   -1049.0841    279787.49   -75800.925    7497.9315   -83298.857    1660.0538 
   31550    291.06481     -727.594    279494.52   -75873.388    7401.5716   -83274.959    1663.0427 
   31600    292.01631   -1083.5226     279346.3   -75819.871    7425.7676   -83245.639    1666.5824 
   31650    299.99962   -820.39487    279058.71   -75806.137    7628.7775   -83434.914    1667.5239 
   31700    296.90485   -933.27598    279219.07   -75770.943    7550.0797   -83321.022    1669.8739 
   31750      291.136    -856.2534    280011.78   -75727.362     7403.382   -83130.744    1675.3402 
   31800    294.02144   -1331.7335    280441.69   -75774.858    7476.7565   -83251.615    1680.2738 
   31850    291.27393   -744.90204    279919.85   -75756.967    7406.8895   -83163.857    1680.4939 
   31900    295.63476    -838.1401    279322.22   -75740.597    7517.7822   -83258.379     1680.218 
   31950    290.29772   -777.09539    279113.26   -75727.131    7382.0651   -83109.196    1679.4744 
   32000    297.56308   -911.01788    279319.21   -75717.445    7566.8179   -83284.263    1683.3129 
   32050    294.10036    -962.2299    279553.22    -75729.76    7478.7634   -83208.524    1686.4196 
   32100    290.53887   -1033.3232     279755.6   -75738.956    7388.1973   -83127.153    1690.4261 
   32150    295.61662   -1529.9219    279901.07   -75781.623     7517.321   -83298.944    1692.1319 
   32200    294.86543   -948.53466    279672.64   -75794.505    7498.2187   -83292.724    1692.6352 
   32250     291.6441    -1160.803    279512.72   -75725.063    7416.3026   -83141.366    1692.1873 
   32300    293.61315   -1089.9549    279534.22   -75726.884     7466.374   -83193.258    1694.1079 
   32350    296.08486   -1104.3414    279501.19   -75770.281     7529.228   -83299.508    1697.4322 
   32400    292.99017   -1017.4935    279630.64    -75808.53    7450.5321   -83259.062    1700.6371 
   32450    294.84086   -1009.7251    279531.38   -75759.533    7497.5939   -83257.127    1703.6561 
   32500    296.52288    -589.3965    279185.77   -75746.209    7540.3664   -83286.576    1705.0627 
   32550    297.69019   -1035.5203    279234.36   -75735.119    7570.0504   -83305.169    1708.2205 
   32600    294.67419     -658.188    279312.81   -75749.162    7493.3555   -83242.517    1711.6061 
   32650      292.319   -739.04208    279609.24   -75740.412    7433.4648   -83173.877     1715.825 
   32700    297.53908   -892.29394    279803.93   -75752.217    7566.2077   -83318.425    1720.3002 
   32750    290.69618   -1047.4556    279800.22   -75766.858    7392.1977   -83159.056    1724.1754 
   32800    292.61957   -1083.6421    279761.37   -75735.674    7441.1082   -83176.782    1726.6936 
   32850    294.94625   -1092.7322    279459.79   -75730.631     7500.274   -83230.905    1726.4885 
   32900    296.59438   -1062.2515    279271.92    -75715.45    7542.1848   -83257.634     1726.782 
   32950    297.93491   -1122.6071    279556.36   -75729.171    7576.2734   -83305.444    1729.9413 
   33000    295.83941   -1265.5165    279963.22   -75732.244    7522.9864    -83255.23    1733.5892 
   33050    296.32462   -1154.8886    279916.11   -75719.945    7535.3248   -83255.269    1736.6158 
   33100    297.99993   -1069.5476    279502.99   -75733.123    7577.9268    -83311.05    1738.5648 
   33150    298.41249    -1045.201    279039.17   -75724.425    7588.4178   -83312.842    1737.7009 
   33200    292.56013   -598.82117    278882.59   -75752.393    7439.5964    -83191.99    1741.1225 
   33250    295.34125     -1012.23    279447.46   -75701.351    7510.3184    -83211.67     1746.986 
   33300    295.18891   -1145.8541    279922.12   -75670.881    7506.4444   -83177.326    1752.7902 
   33350    301.74821   -1033.4549    279943.85   -75671.091     7673.243   -83344.334    1756.2855 
   33400    295.21092   -918.94596    279873.61   -75679.457    7507.0042   -83186.462    1756.8411 
   33450    295.96625   -1001.9754     279763.2   -75650.184    7526.2118   -83176.395    1759.0428 
   33500    297.39502   -973.01317    279568.95   -75610.339    7562.5444   -83172.883    1761.0067 
   33550    296.37829   -809.99826    279735.39   -75553.079    7536.6897   -83089.769    1764.0331 
   33600    296.29524   -1466.9525    280526.28   -75556.796    7534.5777   -83091.373    1769.3986 
   33650    297.92679   -944.53061    280440.69   -75547.419    7576.0669   -83123.486    1775.0728 
   33700    302.45612   -1191.6715    279968.53   -75577.276    7691.2445    -83268.52    1776.7192 
   33750    292.28178   -891.37335     279322.2   -75615.946    7432.5184   -83048.464    1777.9917 
   33800    300.49885   -676.16998    278985.88   -75659.694    7641.4727   -83301.166    1779.8106 
   33850    294.05214   -1118.6411    279411.65   -75694.196    7477.5373   -83171.734    1783.9988 
   33900    296.68192   -1130.9353    280031.91   -75685.813    7544.4108   -83230.224    1790.3114 
   33950    294.84665   -1024.2644    280110.46   -75678.375    7497.7411   -83176.116     1794.829 
   34000    299.13687   -1019.8131    279728.86   -75687.176    7606.8384   -83294.014    1794.4948 
   34050    291.87489   -731.48523    279122.42   -75738.912    7422.1715   -83161.083    1793.8677 
   34100    293.23536   -640.46141    279135.38   -75755.571    7456.7673   -83212.338    1795.3087 
   34150     289.6662   -980.53251    279599.92   -75770.395     7366.006   -83136.401    1799.4267 
   34200    292.81674   -1144.4601    279930.36   -75744.127     7446.122   -83190.249    1803.5776 
   34250    293.11816   -970.32458    279666.48   -75826.612    7453.7868   -83280.398    1807.7825 
   34300    289.10496   -732.86401    278944.95   -75866.464     7351.734   -83218.198    1805.4738 
   34350    298.69524   -631.79307    278699.83   -75858.851     7595.608   -83454.459    1806.3656 
   34400    289.28102   -1053.1112    279080.39    -75896.25    7356.2112   -83252.461    1809.5872 
   34450    289.67115    -1212.237    279646.01   -75853.632    7366.1318   -83219.764    1813.9665 
   34500    295.42936   -1095.0061    279884.35   -75890.867    7512.5589   -83403.426    1816.4992 
   34550    297.33075   -1101.6018    279674.39    -75841.65    7560.9101    -83402.56    1818.7045 
   34600    295.79275   -1131.2078    279232.03   -75826.067    7521.7997   -83347.867     1821.191 
   34650    292.26968   -591.85763    278808.28   -75831.952    7432.2105   -83264.163    1820.5478 
   34700    293.55668   -771.77842    279354.35   -75804.398    7464.9381   -83269.337    1825.0277 
   34750    290.47792   -1020.6941    280436.86    -75886.39    7386.6475   -83273.038    1831.7811 
   34800    291.36316   -1507.6792     280687.3   -75856.876    7409.1585   -83266.035     1834.482 
   34850    291.95904   -1288.0684    279480.36   -75908.864    7424.3113   -83333.175    1832.6003 
   34900    293.53791   -897.12266    278130.18   -75901.722    7464.4609   -83366.183    1830.0859 
   34950    291.67706   -749.71341    278088.11   -75932.691    7417.1406   -83349.832     1832.333 
   35000    290.28662   -1162.9167    279080.85   -75899.267    7381.7827   -83281.049    1840.2951 
   35050    288.65211    -1062.555    280073.18    -75932.02    7340.2184   -83272.239     1846.689 
   35100    294.07613   -1287.9883    280356.41   -75924.003    7478.1474   -83402.151    1850.6971 
   35150    291.78413   -1141.9155    279727.75   -75916.747    7419.8634   -83336.611     1851.403 
   35200    293.56807   -867.93787    278786.66   -75911.608    7465.2276   -83376.836    1848.6776 
   35250    296.39109   -897.23321    278325.91   -75931.965    7537.0151    -83468.98    1848.8705 
   35300    295.71816   -875.40518    278648.73   -75864.924    7519.9029   -83384.827    1851.7256 
   35350     289.0668   -1008.0937    279519.91   -75853.046    7350.7637    -83203.81    1858.2441 
   35400    292.29866   -1226.0181    279991.25   -75811.391    7432.9475   -83244.338    1861.1342 
   35450    292.54581   -1067.8882    279664.18   -75845.176    7439.2324   -83284.408    1863.1474 
   35500     295.1106   -768.70379    278929.06   -75853.993    7504.4532   -83358.446    1860.9628 
   35550    291.51589   -615.72156    278817.45   -75868.414    7413.0423   -83281.456    1865.1083 
   35600    292.07877   -1212.2507    279425.61   -75798.037    7427.3559   -83225.393    1871.8926 
   35650    292.50957   -967.14909    280006.97   -75791.214    7438.3109   -83229.525    1877.8048 
   35700    290.85415   -1082.7761     280214.2   -75794.773    7396.2148   -83190.987    1882.1702 
   35750    297.68862    -975.4061    279516.94   -75779.205    7570.0105   -83349.216    1881.9036 
   35800    296.28711   -737.01911    278857.14   -75787.608    7534.3711   -83321.979    1881.6439 
   35850     296.9225   -898.79934     278990.6   -75787.741    7550.5285   -83338.269    1883.9803 
   35900    290.89782   -725.43381    279318.02   -75736.428    7397.3253   -83133.753    1890.2192 
   35950    295.57962   -904.54981    279744.03   -75757.775      7516.38   -83274.155    1894.6591 
   36000    294.91661   -1207.7289     280055.8    -75742.01    7499.5201    -83241.53    1899.1118 
   36050    291.60381   -914.49965    279654.46    -75805.19    7415.2781   -83220.468    1897.8518 
   36100    294.15921   -856.32902    279278.62   -75755.826    7480.2601   -83236.086    1897.3763 
   36150    298.58598    -1120.325    279252.13   -75777.607    7592.8295   -83370.437    1901.2781 
   36200    288.48628   -1158.1486    279434.09   -75795.154    7336.0013   -83131.155    1906.5344 
   36250    295.88351   -1051.0468     279453.6   -75815.513    7524.1077    -83339.62    1908.3967 
   36300    291.82772   -1321.8491    279594.65   -75827.059    7420.9718   -83248.031    1911.6193 
   36350    292.49586   -806.14323    279358.41   -75845.226    7437.9621   -83283.188    1911.5084 
   36400    294.69542     -896.404    279400.63   -75850.021    7493.8954   -83343.916    1912.7338 
   36450     293.3207    -814.4588    279621.87   -75786.787    7458.9373   -83245.725    1916.2454 
   36500    295.66752   -1166.1377    279828.19   -75725.699    7518.6154   -83244.314    1920.8572 
   36550    295.60329   -1149.6063    279765.92   -75733.422     7516.982   -83250.404    1924.1506 
   36600    290.82082   -998.21114    279642.07   -75795.836    7395.3671   -83191.204    1925.5459 
   36650    289.12417   -1069.5605     279337.4   -75808.501    7352.2225   -83160.723    1927.2045 
   36700    290.51296   -846.08418    279033.53   -75848.613    7387.5385   -83236.151    1931.2332 
   36750    288.69419   -717.52985    279180.46   -75843.032    7341.2885    -83184.32    1935.2808 
   36800    294.71141   -1013.6396    279654.53   -75838.465    7494.3021   -83332.767    1940.2015 
   36850    293.88549   -1024.3629    279775.68   -75828.114    7473.2996   -83301.413    1943.7673 
   36900    292.20784   -945.84836    279789.71   -75820.739     7430.638   -83251.377    1947.0118 
   36950    295.43689   -1163.7233    279874.06   -75824.968    7512.7505   -83337.719    1950.2069 
   37000    291.99209   -1010.3086    279752.89   -75834.278    7425.1517    -83259.43    1953.2217 
   37050    294.21219   -952.57074    279549.56    -75835.11    7481.6072   -83316.717    1953.7846 
   37100    298.47931   -1277.7444    279511.05   -75773.779    7590.1172   -83363.896     1956.384 
   37150    300.20177   -713.43517    279359.26   -75767.115     7633.918   -83401.033    1958.4009 
   37200    300.27311   -1112.3857    279202.94   -75784.309    7635.7321   -83420.041     1962.078 
   37250    289.85096    -705.6208    279216.44   -75804.678    7370.7042   -83175.382    1964.7567 
   37300    297.41625   -953.57014    279517.07   -75836.196    7563.0841    -83399.28     1969.408 
   37350    294.57298   -1145.3266    279825.13   -75806.661     7490.782   -83297.443    1974.9432 
   37400    294.40817   -934.33238    279823.61   -75768.442    7486.5909   -83255.032    1977.9798 
   37450    293.04641   -1204.1788    279877.58   -75756.682    7451.9624   -83208.644    1979.0729 
   37500    296.17597   -890.90954     279698.6   -75721.191    7531.5448   -83252.736    1980.4651 
   37550    292.29051   -897.74298    279667.99   -75783.885    7432.7402   -83216.625    1981.4233 
   37600    291.39226    -827.5601    279499.24   -75809.566    7409.8983   -83219.464    1983.9282 
   37650    299.56826   -1105.9276    279289.89   -75817.527    7617.8084   -83435.335    1984.5144 
[...]
   90850    288.31756   -1094.3194    279440.45   -75908.208    7331.7111   -83239.919     4570.626 
   90900    289.84562   -957.34048    279354.15   -75905.393    7370.5686   -83275.962    4572.2906 
   90950    289.85948   -944.47262    279017.71   -75909.252     7370.921   -83280.173    4567.1683 
   91000    290.07304   -771.62399    278702.94   -75926.521    7376.3515   -83302.872    4564.6109 
   91050    288.65704   -817.63741    279018.22   -75958.664    7340.3437   -83299.007    4570.5418 
   91100    287.80531   -1062.2777    279834.38   -75891.465    7318.6847   -83210.149    4582.7819 
   91150    293.05208   -1072.0389    279933.43   -75861.067    7452.1064   -83313.174    4589.9529 
   91200    297.52729   -1097.7591    279302.67   -75897.723     7565.908   -83463.631    4586.2734 
   91250    289.49474   -644.95564    278697.17   -75864.013    7361.6457   -83225.659    4577.2223 
   91300    294.89408   -417.31187    278805.35   -75873.528    7498.9472   -83372.475    4578.4308 
   91350      291.612   -1095.4088    279407.27   -75882.296    7415.4861   -83297.782    4585.0621 
   91400     289.2863   -989.72262    279834.49   -75903.416    7356.3455   -83259.761    4591.1787 
   91450    293.99553   -1200.6134    279869.26   -75851.076    7476.0976   -83327.173     4597.427 
   91500    289.18485   -973.72402    279340.94   -75904.152    7353.7655   -83257.918     4593.553 
   91550    291.70955   -1029.3142    278895.12   -75871.689     7417.967   -83289.656    4593.5118 
   91600    289.75264   -962.94019    279039.08   -75883.418    7368.2041   -83251.622    4596.7207 
   91650    295.74554   -1011.6855    279500.09   -75851.771    7520.5992    -83372.37    4602.4022 
   91700     294.0208   -906.14397    279652.54   -75862.413    7476.7403   -83339.154    4606.8516 
   91750    289.64282    -1105.024       279460   -75836.293    7365.4114   -83201.704    4606.1192 
   91800    296.75752   -676.51239    279195.06    -75872.45    7546.3332   -83418.783    4605.9901 
   91850    292.13346   -1019.4205    279278.17   -75864.483    7428.7467    -83293.23    4608.0173 
   91900    293.92658    -888.7108    279574.26   -75839.405    7474.3444    -83313.75    4618.4724 
   91950    288.58325     -1192.02    279860.14   -75815.943    7338.4673   -83154.411    4626.4288 
   92000    294.87712   -1144.9808    279575.81   -75878.449    7498.5159   -83376.965    4625.3922 
   92050    291.84423   -778.05253    279052.23   -75901.168    7421.3918    -83322.56    4624.5081 
   92100    292.50181   -874.63814    278864.34   -75876.101    7438.1135   -83314.215    4625.5699 
   92150    293.10488   -1119.7467    279210.22   -75906.177    7453.4492   -83359.626     4634.448 
   92200    290.32265   -1018.6954    279728.79     -75867.1     7382.699   -83249.799     4647.003 
   92250    285.67984   -1184.5948    280080.16   -75828.003    7264.6356   -83092.638    4658.1839 
   92300    293.05011   -1084.9121     279712.8   -75820.077    7452.0565   -83272.133     4658.462 
   92350    292.05943    -798.4587    279237.25   -75787.802    7426.8641   -83214.666    4656.6826 
   92400    298.34133   -962.94814    279157.26   -75820.226    7586.6084   -83406.834    4659.8033 
   92450    294.85481   -1475.8384    279466.95   -75830.454    7497.9487   -83328.403    4669.1919 
   92500    288.86949   -1260.7688    279491.82   -75872.302    7345.7462   -83218.048    4672.3315 
   92550    286.43046   -887.47433     279136.8   -75911.813    7283.7234   -83195.536    4668.6414 
   92600    292.39804   -823.42073     279119.6   -75891.067    7435.4748   -83326.542    4666.8799 
   92650    288.76845   -1191.8482    279457.64   -75847.639    7343.1768   -83190.815    4672.1611 
   92700    292.77459   -817.22273    279414.27   -75852.715    7445.0502   -83297.765     4675.366 
   92750     292.9866   -717.83632    279424.89    -75831.56    7450.4414   -83282.001    4677.6166 
   92800    293.11329   -1148.6967    279519.18   -75825.667     7453.663    -83279.33    4681.1241 
   92850    293.35413    -1124.022    279592.09   -75782.138    7459.7873   -83241.926    4685.3102 
   92900    296.77775   -1093.3055    279636.01   -75774.074    7546.8476   -83320.922    4686.1141 
   92950      293.571   -1144.0425    279571.35   -75750.234    7465.3022   -83215.537    4684.6574 
   93000    298.47565    -1141.744    279575.09   -75688.365     7590.024   -83278.389    4684.1334 
   93050    294.31949    -1234.759     279522.8   -75667.057    7484.3359   -83151.393     4683.212 
   93100    298.43414    -1170.472    279586.59   -75708.727    7588.9684   -83297.696    4687.7665 
   93150    289.81441   -1224.6354    279657.23    -75733.89    7369.7749   -83103.665    4692.2345 
   93200     297.1336   -884.34103    279531.82   -75790.579    7555.8966   -83346.475    4694.4646 
   93250    287.02723   -1096.8802    279536.49       -75782    7298.8987   -83080.899    4699.6501 
   93300    290.87582    -1136.937    279627.39   -75768.636    7396.7658   -83165.401    4705.5678 
   93350    294.31509   -964.52013    279696.37   -75784.139    7484.2239   -83268.363    4710.0951 
   93400    292.87395   -1010.9123     279654.5    -75741.79    7447.5767   -83189.366    4710.4637 
   93450    295.24832   -861.58496    279528.25   -75751.127    7507.9553   -83259.083    4712.3706 
   93500     293.5654   -1103.3019    279602.04   -75780.808    7465.1598   -83245.968    4717.1748 
   93550    293.96335   -1056.7211    279632.68    -75738.59    7475.2795    -83213.87    4719.2279 
   93600    295.96781   -1125.3156    279800.21   -75726.369    7526.2514   -83252.621    4722.5835 
   93650    290.06601   -1060.4016     279839.7   -75706.518    7376.1727   -83082.691    4727.1278 
   93700    296.29031   -903.86757    279333.63   -75677.808    7534.4525   -83212.261    4725.8102 
   93750     293.1863   -885.84522    278891.78   -75735.109    7455.5197   -83190.628    4726.0341 
   93800    293.62461   -879.68432    279030.45    -75762.33    7466.6655   -83228.996    4729.2808 
   93850    290.80052   -952.96182    279806.97   -75752.397     7394.851   -83147.248    4740.7793 
   93900    291.12256   -930.84176    280089.61   -75728.932    7403.0402   -83131.973    4747.8814 
   93950     298.8428   -978.53516    279861.91   -75732.735    7599.3605   -83332.096    4747.5847 
   94000    294.99941   -1197.9908    279569.27   -75789.709    7501.6257   -83291.335    4744.1306 
   94050    296.46242   -984.86192    279247.03   -75857.364    7538.8291   -83396.193    4742.2722 
   94100    296.46579   -1182.3326    279024.31   -75878.075    7538.9146    -83416.99    4741.3754 
   94150    287.95827   -1000.5993     279204.3   -75899.514    7322.5746   -83222.088    4748.2335 
   94200    290.39582   -878.90838     279479.6   -75870.488    7384.5596   -83255.047    4756.5541 
   94250    289.37419   -943.19972    279609.93   -75814.198    7358.5802   -83172.779    4761.8042 
   94300    292.87313   -811.49189    279602.32   -75812.463     7447.556   -83260.019    4760.6858 
   94350    292.91523   -1121.7861    279790.95   -75825.915    7448.6264   -83274.542    4762.2783 
   94400    293.18085   -1292.2989    279801.05   -75834.799    7455.3809    -83290.18    4767.7266 
   94450      295.507   -1281.8232    279471.76   -75836.079    7514.5335   -83350.613    4766.2049 
   94500    289.76972   -889.07944    279130.46   -75863.171    7368.6383   -83231.809      4759.07 
   94550    297.17351   -1050.8691    279076.09    -75851.79    7556.9116   -83408.702    4761.9392 
   94600    291.93107   -937.34779    279290.27   -75841.002    7423.5999   -83264.602    4764.9783 
   94650    291.37361   -1071.0814    279710.76   -75848.641    7409.4241   -83258.065    4772.5869 
   94700    293.37572   -1277.1522    280079.27   -75820.869    7460.3365   -83281.206    4778.3429 
   94750    292.23067   -1397.5099    279969.69   -75865.748    7431.2186   -83296.967    4781.1209 
   94800    296.12641   -805.67489    278999.73   -75931.438    7530.2845   -83461.722    4773.4218 
   94850    292.18576   -1022.0554    278325.82   -75975.429    7430.0766   -83405.506    4769.8832 
   94900     291.1067   -797.98764    278286.72   -75982.698    7402.6369   -83385.335     4769.581 
   94950    293.76591   -1010.8225    279263.07   -75934.738    7470.2586   -83404.997    4781.2106 
   95000    288.66253   -1264.9214    280413.26   -75976.313    7340.4834   -83316.796    4794.8117 
   95050     284.0384   -1404.3734    280414.43   -75980.772    7222.8951   -83203.667    4797.6303 
   95100    291.72267   -1228.4271    279437.87   -75963.619    7418.3006    -83381.92    4786.0138 
   95150    290.53544   -612.73986    278459.92   -75939.662    7388.1101   -83327.772     4777.964 
   95200    292.54636   -675.99547    278565.02   -75961.441    7439.2465   -83400.687    4781.3698 
   95250     289.7004   -1041.6617    279239.67   -75973.173    7366.8757   -83340.049    4791.2166 
   95300    290.16295   -1170.1353    279934.36   -75987.457     7378.638   -83366.095    4798.0064 
   95350    289.00938   -1425.2274    280124.54   -75977.444    7349.3034   -83326.747    4799.9008 
   95400    292.62583   -1110.3257    279398.12    -75932.15    7441.2672   -83373.417    4796.9493 
   95450    288.24397   -717.39082    278704.01   -75925.664    7329.8397   -83255.504    4790.3675 
   95500    291.66379    -755.7881     278947.2   -75904.444    7416.8033   -83321.247    4796.1777 
   95550    294.14845   -995.83037       279858   -75834.554    7479.9865    -83314.54    4809.2564 
   95600    292.22954   -1362.3282    280228.95   -75836.366    7431.1899   -83267.556    4817.8114 
   95650    295.21716   -976.46176    279647.72   -75815.621    7507.1629   -83322.784    4815.1241 
   95700     294.0034   -874.36866    279146.18   -75810.725    7476.2979   -83287.023    4813.6656 
   95750    289.36184   -834.18516    279060.16   -75805.584    7358.2663    -83163.85    4814.3944 
   95800    293.01628   -1088.8963    279429.11   -75784.745     7451.196   -83235.941    4822.4997 
   95850    290.99194   -911.04657    279846.07    -75767.93    7399.7185   -83167.648    4835.1332 
   95900    294.19233   -963.14239    279987.68   -75767.324    7481.1022   -83248.426    4838.4921 
   95950    294.56988   -1074.3025    279762.74   -75756.627    7490.7031    -83247.33    4837.0932 
   96000    293.07969   -767.88545    279273.18   -75762.718    7452.8085   -83215.526    4837.7686 
   96050    296.52932   -808.65793       279129   -75759.707    7540.5303   -83300.237    4839.0919 
   96100    289.96984   -783.50928    279416.73   -75824.096    7373.7273   -83197.824    4843.6443 
   96150    296.62616   -1038.6557     279675.9   -75841.429    7542.9928   -83384.422    4850.2606 
   96200    295.17647   -1154.0793    279716.36   -75824.135    7506.1282   -83330.263    4855.3155 
   96250    296.75348   -1089.4832    279483.41   -75849.283    7546.2305   -83395.514     4856.332 
   96300    291.88749   -821.02101    279188.35   -75824.746    7422.4917   -83247.237    4857.5333 
   96350    290.52271   -699.20275    278979.58   -75844.545    7387.7864   -83232.331    4858.9028 
   96400    286.56314    -791.8832    279282.12   -75858.402    7287.0974   -83145.499    4866.5273 
   96450    291.26872   -971.30464    279696.34    -75815.35    7406.7568   -83222.107    4872.7222 
   96500    297.30692   -949.78125    279654.94    -75803.34     7560.304   -83363.644    4874.3447 
   96550    288.75888   -1072.5281    279447.85   -75827.178    7342.9336   -83170.111    4875.5719 
   96600    292.48775   -821.56875    278965.59   -75897.669     7437.756   -83335.425    4874.0591 
   96650     291.0522   -492.95838    278736.73   -75927.886    7401.2509   -83329.137     4873.986 
   96700    293.12839   -1196.0328    279122.52   -75930.203     7454.047    -83384.25    4881.9926 
   96750    292.81389   -1171.2609    279336.07   -75960.624    7446.0496   -83406.673    4886.3939 
   96800    284.09059   -894.80074    279212.94    -75984.82    7224.2222   -83209.043    4885.9353 
   96850     287.7793   -702.73262    279010.06   -75974.592    7318.0235   -83292.615    4881.8181 
   96900    293.66684   -875.37642    279113.12   -75949.838    7467.7395   -83417.578    4884.7424 
   96950    291.46744   -890.53026     279411.5   -75933.792    7411.8101   -83345.602    4890.0512 
   97000    292.14852   -951.26135    279455.56   -75856.855    7429.1297   -83285.984    4895.7288 
   97050    293.20906   -484.90954    279116.87   -75861.659    7456.0984   -83317.758    4895.1167 
   97100    294.51167   -1000.6789    279303.17   -75864.286    7489.2227   -83353.509    4898.4992 
   97150    287.44753   -996.45781    279461.93   -75887.922    7309.5868   -83197.509    4901.7063 
   97200    292.74597   -1098.1298    279790.52   -75864.309    7444.3223   -83308.631    4907.3099 
   97250    296.12935   -955.98258    279755.47    -75868.44    7530.3592   -83398.799    4908.4577 
   97300    298.02119   -1031.1505    279582.65   -75824.282    7578.4674   -83402.749    4906.3258 
   97350    292.04418   -867.16299    279360.45    -75785.58    7426.4763   -83212.056    4909.2652 
   97400    294.03338   -853.96427    279223.58   -75766.886    7477.0603   -83243.947     4910.964 
   97450    297.12179   -935.54536    279377.17   -75766.561    7555.5962   -83322.157    4913.8863 
   97500    293.68328   -851.54674     279680.6   -75778.408    7468.1574   -83246.565    4918.6102 
   97550    294.26902   -1079.1028     279951.7   -75769.663    7483.0525   -83252.715    4927.9633 
   97600    300.91081   -914.91323    279728.16    -75764.41    7651.9485   -83416.358    4926.1719 
   97650    295.14416   -1022.5204    279174.08   -75750.508    7505.3066   -83255.815    4922.9108 
   97700    295.49495   -756.51806    278684.51   -75761.449     7514.227   -83275.676    4917.2836 
   97750    294.32304   -886.60018    279028.09   -75752.498    7484.4262   -83236.924    4924.1435 
   97800    291.88772    -1165.306    279727.38    -75763.84    7422.4977   -83186.338    4934.0949 
   97850    293.45674   -1021.9438    279874.69   -75783.304    7462.3968   -83245.701    4940.3677 
   97900    294.59298   -1053.5506    279812.82   -75775.309    7491.2904   -83266.599     4941.734 
   97950    295.22627   -821.42988    279413.13   -75775.071    7507.3947   -83282.465    4939.0826 
   98000     294.5963   -831.32764    279221.14   -75762.383     7491.375   -83253.757    4940.1658 
   98050    294.11727   -861.84487    279241.27   -75778.497    7479.1936   -83257.691    4945.1708 
   98100    294.27513   -777.74719    279579.64   -75774.357    7483.2077   -83257.565    4950.3682 
   98150     297.7703   -1335.8222    279807.05   -75799.436    7572.0874   -83371.523    4954.9142 
   98200    293.26654   -1171.8805    279643.44    -75766.57    7457.5601    -83224.13    4954.4445 
   98250    295.99341   -872.13707    279503.57   -75706.326    7526.9025   -83233.228    4954.7814 
   98300    291.76892   -1125.2702    279616.19   -75696.627    7419.4765   -83116.104    4961.0471 
   98350    297.96948    -1104.589    279535.95   -75644.531    7577.1524   -83221.683    4967.1013 
   98400    295.47039   -1082.9378    279626.28    -75682.35    7513.6025   -83195.952    4973.7965 
   98450    293.46498   -765.31077    279816.77   -75709.047    7462.6063   -83171.653    4980.8102 
   98500    293.23489   -858.18181    279778.67   -75754.606    7456.7552   -83211.361    4979.6252 
   98550    290.05765   -930.28855    279483.74   -75750.362    7375.9604   -83126.323    4977.7636 
   98600    293.00513   -995.04528    278953.19   -75749.553    7450.9125   -83200.466    4971.2265 
   98650    298.19021   -1074.9151    278788.41   -75703.069    7582.7655   -83285.834    4969.0763 
   98700    299.02788   -705.84074    279221.81   -75722.387    7604.0669   -83326.454    4974.2883 
   98750    293.01993   -907.26329    279972.92   -75676.934    7451.2889   -83128.223    4990.2614 
   98800    291.46289   -1230.2571    280256.69   -75686.499    7411.6946   -83098.194    4994.7803 
   98850    291.77183   -1232.1549    279891.17   -75709.646    7419.5506   -83129.197    4991.2649 
   98900    292.45311   -839.23138    279146.86   -75720.296    7436.8752   -83157.171    4985.8175 
   98950    297.40411   -761.54655    278781.24   -75711.026    7562.7756   -83273.801    4983.4187 
   99000     293.7507   -1066.3292    279095.16   -75712.942    7469.8719   -83182.814    4988.3268 
   99050    294.90005   -947.39231    279399.63   -75759.135    7499.0991   -83258.234    4995.5779 
   99100    295.65428   -793.95146    279693.35   -75712.451    7518.2785   -83230.729    5000.8113 
   99150    290.72273   -1155.2877    279735.91   -75769.747    7392.8729    -83162.62    5006.9555 
   99200    291.47866   -1031.4684    279383.26    -75833.72    7412.0956   -83245.816    5005.2519 
   99250    292.82102    -1187.079    279346.68   -75868.898    7446.2308   -83315.129    5006.7157 
   99300    290.76213   -1045.9327    279305.89   -75883.769    7393.8747   -83277.644    5009.2301 
   99350    287.38483   -954.82875    279436.16   -75916.893    7307.9923   -83224.885    5015.1332 
   99400      293.283   -1060.2763     279517.6   -75951.307    7457.9786   -83409.285    5018.6688 
   99450    290.67509   -1222.7965    279608.42    -75937.79    7391.6613   -83329.451     5023.908 
   99500    288.33561    -918.0074    279289.83   -75941.162    7332.1701   -83273.332    5022.8823 
   99550    292.98354   -998.84409    279119.15   -75974.038    7450.3635   -83424.401     5023.715 
   99600    291.56363   -744.59107    278934.26   -75996.974    7414.2563   -83411.231    5023.8455 
   99650    289.79701   -1010.9013    278991.84   -75936.827    7369.3324   -83306.159    5027.9834 
   99700    290.09003    -870.1458    279201.32   -75926.254    7376.7837   -83303.038    5034.5992 
   99750    292.81518   -886.36656    279294.56   -75898.902    7446.0822   -83344.984     5038.048 
   99800    289.06152   -1221.5479     279389.6   -75914.364    7350.6293   -83264.993    5042.3211 
   99850    290.52093   -806.28195    279191.62   -75960.156    7387.7411   -83347.897    5044.7426 
   99900    286.59166   -1010.3412    279232.82   -75929.011    7287.8225   -83216.833    5046.2413 
   99950    289.65034   -849.98499    279496.21   -75908.324    7365.6028   -83273.926    5053.5685 
  100000    287.31079   -1058.1791    279683.02   -75905.015    7306.1095   -83211.124    5059.1408 
Loop time of 246.924 on 6 procs for 100000 steps with 8532 atoms

Performance: 349.905 ns/day, 0.069 hours/ns, 404.983 timesteps/s
99.4% CPU use with 6 MPI tasks x no OpenMP threads

MPI task timing breakdown:
Section |  min time  |  avg time  |  max time  |%varavg| %total
---------------------------------------------------------------
Pair    | 72.329     | 127.21     | 192.38     | 438.8 | 51.52
Neigh   | 31.075     | 36.267     | 40         |  62.0 | 14.69
Comm    | 8.2039     | 77.049     | 137.12     | 603.1 | 31.20
Output  | 0.14686    | 0.15005    | 0.16283    |   1.5 |  0.06
Modify  | 5.1109     | 5.171      | 5.2274     |   1.7 |  2.09
Other   |            | 1.082      |            |       |  0.44

Nlocal:        1422.00 ave        1455 max        1387 min
Histogram: 1 1 0 1 0 0 0 2 0 1
Nghost:        1972.17 ave        2046 max        1925 min
Histogram: 2 0 1 1 0 0 1 0 0 1
Neighs:        0.00000 ave           0 max           0 min
Histogram: 6 0 0 0 0 0 0 0 0 0
FullNghs:      39349.7 ave       40227 max       39061 min
Histogram: 4 0 0 1 0 0 0 0 0 1

Total # of neighbors = 236098
Ave neighs/atom = 27.672058
Neighbor list builds = 20788
Dangerous builds = 0

# Create data file for import to other simulations
#
write_data data.${NAME}
write_data data.coexist_293K_-1000atm_ML
System init for write_data ...

Total wall time: 0:04:06
