
# Create simulation box of size 50 x 50 x 50 Angstrom
#
lattice	            sc 1
Lattice spacing in x,y,z = 1.0000000 1.0000000 1.0000000
region 	            all block 0 ${X} ${YZ_LO} ${YZ_HI} ${YZ_LO} ${YZ_HI} units box
region 	            all block 0 53.4 ${YZ_LO} ${YZ_HI} ${YZ_LO} ${YZ_HI} units box
region 	            all block 0 53.4 -0.1059713103866251.0 ${YZ_HI} ${YZ_LO} ${YZ_HI} units box
region 	            all block 0 53.4 -0.1059713103866251.0 51.01309131038394.0 ${YZ_LO} ${YZ_HI} units box
region 	            all block 0 53.4 -0.1059713103866251.0 51.01309131038394.0 -0.1059713103866251.0 ${YZ_HI} units box
region 	            all block 0 53.4 -0.1059713103866251.0 51.01309131038394.0 -0.1059713103866251.0 51.01309131038394.0 units box
create_box          1 all
Created orthogonal box = (0.0000000 -0.10597131 -0.10597131) to (53.400000 51.013091 51.013091)
  3 by 1 by 2 MPI processor grid

# fill box with 4175 randomly distributed atoms
#
create_atoms        1 random 4608 63782 all
Created 4608 atoms
  create_atoms CPU = 0.001 seconds
mass                1 18.015

# Define potential
#
pair_style          sw
pair_coeff          * * /data/emrosky-sim/Freezing_Simulations/Melting/MLmW_fancy/ML_mW.sw mW
Reading sw potential file /data/emrosky-sim/Freezing_Simulations/Melting/MLmW_fancy/ML_mW.sw with DATE: 2019-02-27

# Run minimization
#
minimize            1.0e-8 1.0e-8 10000 1000
WARNING: Using 'neigh_modify every 1 delay 0 check yes' setting during minimization (../min.cpp:187)
Neighbor list info ...
  update every 1 steps, delay 0 steps, check yes
  max neighbors/atom: 2000, page size: 100000
  master list distance cutoff = 6.0032907
  ghost atom cutoff = 6.0032907
  binsize = 3.0016454, bins = 18 18 18
  1 neighbor lists, perpetual/occasional/extra = 1 0 0
  (1) pair sw, perpetual
      attributes: full, newton on
      pair build: full/bin/atomonly
      stencil: full/bin/3d
      bin: standard
Per MPI rank memory allocation (min/avg/max) = 4.236 | 4.249 | 4.255 Mbytes
Step Temp E_pair E_mol TotEng Press 
       0            0    7186864.6            0    7186864.6    4895090.8 
     661            0   -49798.723            0   -49798.723   -375.51944 
Loop time of 1.22944 on 6 procs for 661 steps with 4608 atoms

98.9% CPU use with 6 MPI tasks x no OpenMP threads

Minimization stats:
  Stopping criterion = max force evaluations
  Energy initial, next-to-last, final = 
      7186864.55798326  -49798.6432870415  -49798.7227982862
  Force two-norm initial, final = 1.6499727e+08 2.2681182
  Force max component initial, final = 87868136.0 0.51177929
  Final line search alpha, max atom move = 0.10796748 0.055255519
  Iterations, force evaluations = 661 1001

MPI task timing breakdown:
Section |  min time  |  avg time  |  max time  |%varavg| %total
---------------------------------------------------------------
Pair    | 0.99885    | 1.055      | 1.1044     |   3.8 | 85.81
Neigh   | 0.025179   | 0.025647   | 0.026218   |   0.2 |  2.09
Comm    | 0.077848   | 0.12661    | 0.18228    |  10.9 | 10.30
Output  | 0          | 0          | 0          |   0.0 |  0.00
Modify  | 0          | 0          | 0          |   0.0 |  0.00
Other   |            | 0.02221    |            |       |  1.81

Nlocal:        768.000 ave         786 max         748 min
Histogram: 1 1 0 0 1 0 0 2 0 1
Nghost:        1577.17 ave        1602 max        1561 min
Histogram: 2 0 1 0 1 1 0 0 0 1
Neighs:        0.00000 ave           0 max           0 min
Histogram: 6 0 0 0 0 0 0 0 0 0
FullNghs:      21752.0 ave       22703 max       20941 min
Histogram: 1 1 0 1 0 0 2 0 0 1

Total # of neighbors = 130512
Ave neighs/atom = 28.322917
Neighbor list builds = 25
Dangerous builds = 0

# Add velocity/set timestep
#
velocity            all create ${TEMP} 120598 rot yes dist gaussian
velocity            all create 293 120598 rot yes dist gaussian
timestep            5.0

# Define output
#
compute	            1 all msd
thermo	            100
thermo_style        custom step temp press vol etotal ke pe c_1[4] density

# Neighbor lists
#
neigh_modify        delay 0 every 1 check yes

# Set fixes
#
fix                 1 all momentum 10 linear 1 1 1 rescale
fix                 2 all nve
fix                 3 all temp/csvr ${TEMP} ${TEMP} 500.0 928347
fix                 3 all temp/csvr 293 ${TEMP} 500.0 928347
fix                 3 all temp/csvr 293 293 500.0 928347
fix                 4 all press/berendsen iso ${PRES} ${PRES} 1000.0 modulus 20000
fix                 4 all press/berendsen iso -1000 ${PRES} 1000.0 modulus 20000
fix                 4 all press/berendsen iso -1000 -1000 1000.0 modulus 20000

# Run 0.5 ns equilibration
#
dump                1 all custom 1000 eq.${NAME}.dump id type x y z vx vy vz
dump                1 all custom 1000 eq.liq_293K_-1000atm_ML.dump id type x y z vx vy vz
run                 100000
Per MPI rank memory allocation (min/avg/max) = 3.486 | 3.501 | 3.505 Mbytes
Step Temp Press Volume TotEng KinEng PotEng c_1[4] Density 
     661          293    942.57329    139542.67   -45775.073    4023.6494   -49798.723 2.8701393e-33   0.98784493 
     700    156.47684   -903.75019    140834.82   -45006.748    2148.8325   -47155.581   0.23406837   0.97878148 
     800    214.40483    -789.5108    141962.02   -43647.304     2944.334   -46591.638   0.76518209    0.9710098 
     900    240.84119   -821.16557    142451.92   -42844.168    3307.3738   -46151.542     1.360032    0.9676705 
    1000     259.2157   -901.19653    142548.67   -42282.943    3559.7034   -45842.646    2.0956736   0.96701373 
    1100    272.55478   -643.49583    142826.85   -41867.682    3742.8835   -45610.565    2.9414076   0.96513027 
    1200    276.29891   -1051.6864    143141.65   -41557.173    3794.3002   -45351.473    3.8575154   0.96300777 
    1300    288.70212   -856.71544    142961.92   -41321.596    3964.6284   -45286.225      4.84908    0.9642184 
    1400    288.18317   -821.14106    142540.29    -41298.94    3957.5019   -45256.442    5.9133196   0.96707055 
    1500       285.51   -1126.4807    142946.56   -41161.831    3920.7923   -45082.623    6.9347998   0.96432204 
    1600     293.1693    -843.3775    142754.51   -41109.464    4025.9744   -45135.438    7.9144734   0.96561937 
    1700    286.60385   -1012.1615    143044.24   -41134.482    3935.8136   -45070.296    8.9982853   0.96366349 
    1800    293.17867   -1221.8373    142876.19   -41073.058     4026.103   -45099.161    10.065489   0.96479696 
    1900    291.00527   -982.93974     143100.8   -41054.583    3996.2566    -45050.84    11.006516   0.96328266 
    2000    296.29677   -1069.6799    143121.32   -40982.737    4068.9226   -45051.659    11.997586   0.96314451 
    2100    293.04644   -836.91125    142905.31   -41079.567    4024.2872   -45103.854    12.952877   0.96460041 
    2200    290.75838   -943.98541    142897.08   -41054.505    3992.8662   -45047.371    13.983906   0.96465592 
    2300    295.95096    -1051.822    142937.53   -40998.548    4064.1737   -45062.722    14.918066   0.96438295 
    2400    294.50572   -871.73319    143084.05   -41027.429    4044.3269   -45071.756    15.929213   0.96339538 
    2500    292.25641   -984.21828    142771.37   -41031.129     4013.438   -45044.567    17.061617   0.96550534 
    2600    298.36181   -969.86726     142752.1    -40906.03     4097.281   -45003.311    17.991934   0.96563566 
    2700    290.92395   -1195.4501    142955.01   -40974.005    3995.1399   -44969.145    19.100346   0.96426501 
    2800    294.72342    -1197.565    143007.12   -41010.308    4047.3164   -45057.625    20.077013   0.96391369 
    2900     294.0316   -1168.1142     143195.9   -40972.658    4037.8159   -45010.474    21.428593    0.9626429 
    3000    295.70325   -1093.8109    142984.74   -40934.541     4060.772   -44995.313    22.513286   0.96406452 
    3100    297.91676    -803.1152    142779.06   -40952.298    4091.1693   -45043.467    23.455155   0.96545333 
    3200    290.86111   -918.44809    143270.47    -40966.08    3994.2769   -44960.357    24.670165   0.96214189 
    3300    296.38416   -893.31379     143558.3    -40949.77    4070.1227   -45019.892    25.727924   0.96021281 
    3400    297.13288   -1276.3744    143472.93   -40935.126    4080.4046   -45015.531    26.588843   0.96078412 
    3500    297.31088   -1115.3923    143153.77   -40877.601     4082.849    -44960.45    27.383982   0.96292619 
    3600    292.53098   -979.05231    142920.05   -40928.593    4017.2086   -44945.801    28.366037   0.96450092 
    3700    293.88072   -1113.6699    142785.72   -40933.384    4035.7439   -44969.128    29.379507   0.96540826 
    3800    296.52157   -994.88443    142727.08   -40915.896    4072.0097   -44987.906    30.722315   0.96580494 
    3900    282.50076   -922.28858    142932.23   -41077.784    3879.4676   -44957.251    31.727981   0.96441868 
    4000    289.01672   -911.00591    142744.49   -41026.508    3968.9487   -44995.457    32.918894   0.96568714 
    4100     291.2022   -1005.3367    142644.01   -40932.779     3998.961    -44931.74    33.824416   0.96636735 
    4200     291.9985   -1052.3456    142808.46   -40930.166    4009.8963   -44940.062    35.087198   0.96525458 
    4300    292.76764   -869.11268    143006.33   -40908.594    4020.4585   -44929.052    35.991449   0.96391901 
    4400    296.94252   -1038.5209    143058.01   -40867.561    4077.7905   -44945.352    37.067126   0.96357076 
    4500    291.80586   -1021.8874    143325.23    -40885.59    4007.2508   -44892.841    38.118412   0.96177425 
    4600    298.22813   -1197.3765    143202.91   -40877.839    4095.4453   -44973.285    39.164516   0.96259575 
    4700    290.66731   -1104.8206    142928.41   -40881.345    3991.6156   -44872.961    40.259929   0.96444449 
    4800    291.24587   -1160.3275    142848.12   -40849.883    3999.5606   -44849.443    40.819832   0.96498656 
    4900    292.63774   -862.93215    142850.78   -40904.211    4018.6747   -44922.886    42.126831   0.96496863 
    5000    296.03457   -1060.3176    142942.11   -40893.414     4065.322   -44958.736    43.508694   0.96435204 
    5100     291.3657   -932.94361    142954.22   -40910.362    4001.2062   -44911.568    44.399789   0.96427034 
    5200     289.3139   -995.58759    143191.51   -40959.112    3973.0298   -44932.142    45.532732   0.96267238 
    5300     292.0457   -1303.6504    142775.36   -40961.705    4010.5444   -44972.249    46.474941   0.96547836 
    5400    292.67923   -997.55897    142752.21   -40832.843    4019.2444   -44852.088    47.595105   0.96563492 
    5500    291.30661   -965.79353    142705.98       -40814    4000.3948   -44814.395    49.044921   0.96594771 
    5600    295.72209   -783.93527    142595.31   -40742.994    4061.0307   -44804.024    50.571424   0.96669743 
    5700    294.69775   -1119.6538    142795.04   -40762.014     4046.964   -44808.978    51.982548    0.9653453 
    5800    298.12421   -875.10809    143185.26   -40696.122    4094.0182    -44790.14     53.11581   0.96271443 
    5900     293.0804   -1115.3858     143192.5   -40910.892    4024.7536   -44935.646    53.889501   0.96266577 
    6000    294.42355   -1020.8611    142839.63   -40984.046    4043.1984   -45027.245    54.688936   0.96504393 
    6100    301.67377   -1066.1085    142618.19   -40931.918    4142.7627   -45074.681    55.878904    0.9665423 
    6200    289.26334   -1157.2663    142450.45   -40997.097    3972.3354   -44969.432    57.056552   0.96768047 
    6300     292.4084   -998.03536    142540.28   -40968.055    4015.5252    -44983.58    57.949438    0.9670706 
    6400    293.80297   -840.58373    142201.79    -41002.05    4034.6762   -45036.727    58.844308   0.96937262 
    6500    290.34798   -688.81205    142656.51   -41001.369    3987.2303   -44988.599     59.90756   0.96628267 
    6600    292.78902   -673.79835     143289.7   -41052.474    4020.7522   -45073.226    61.003229   0.96201271 
    6700    290.10407   -965.01514     143273.9   -41062.895    3983.8808   -45046.776    61.997176   0.96211882 
    6800    289.28461   -949.96823    143128.53   -41151.592    3972.6275    -45124.22     62.95361   0.96309603 
    6900    290.89024   -1116.5376    143008.54   -41048.137     3994.677   -45042.814    63.946419   0.96390407 
    7000    292.82534   -737.22751    143154.07   -40933.243    4021.2509   -44954.494    65.005277   0.96292421 
    7100    290.39403    -1005.133    143370.09   -41016.971    3987.8627   -45004.834    66.104502   0.96147335 
    7200    291.14133   -990.30857    142959.08   -41050.379    3998.1251   -45048.505     67.16146   0.96423757 
    7300    290.09588   -778.37789    142825.78   -41056.759    3983.7683   -45040.527    68.570744   0.96513753 
    7400    287.82317   -1133.6674    142442.02   -41118.658    3952.5581   -45071.216    69.684429   0.96773775 
    7500    291.89449   -1112.2957    142504.54   -40995.597    4008.4679   -45004.065    70.755855   0.96731317 
    7600    296.39227    -923.0619    142708.16   -41029.108    4070.2341   -45099.342     71.74009   0.96593295 
    7700    293.88031   -1221.9464    142626.83   -41012.085    4035.7384   -45047.824    73.223771    0.9664838 
    7800    293.45649    -820.1191     142435.5   -41067.481    4029.9183     -45097.4    74.004271   0.96778204 
    7900    282.60729   -924.66372    142492.74   -41172.369    3880.9306     -45053.3    74.970042   0.96739323 
    8000    286.51332   -1270.4572    142412.92   -41130.651    3934.5705   -45065.222    75.833719   0.96793545 
    8100    284.84098    -778.2684    142493.86   -41021.356     3911.605   -44932.961    77.217818   0.96738567 
    8200    289.37129   -1107.1859    142468.73   -41031.611    3973.8178   -45005.429     78.43313   0.96755632 
    8300    296.70627   -1178.4428     142395.3   -40981.782    4074.5461   -45056.328    80.029352   0.96805525 
    8400     288.9932   -1107.6795     142337.7   -41072.999    3968.6257   -45041.625    81.372085   0.96844698 
    8500    287.83439   -1122.2709     142814.8   -41071.367    3952.7122   -45024.079    82.720696    0.9652117 
    8600    293.98001   -1078.7989    142672.96   -41032.525    4037.1075   -45069.632    83.409584    0.9661713 
    8700    291.67868   -992.41263    142873.76   -40977.575    4005.5043   -44983.079    83.775531   0.96481339 
    8800    296.49373   -1100.5524    143148.06   -40947.758    4071.6274   -45019.386    84.778604   0.96296459 
    8900    294.26421    -1050.941     143325.8   -40969.419    4041.0103   -45010.429     85.99378    0.9617704 
    9000    292.44028   -1174.8202    143054.34   -40874.381     4015.963   -44890.344    87.089419   0.96359551 
    9100    294.69339    -861.1023    142655.33   -40942.672     4046.904   -44989.576    88.056683   0.96629069 
    9200     290.7843   -1052.9593    142689.52   -40959.153    3993.2221   -44952.376    89.271923   0.96605916 
    9300    292.71241   -923.54001    142814.22   -40907.187    4019.7001   -44926.887     90.32606   0.96521562 
    9400    296.15604   -1052.2381     143135.1   -40948.701    4066.9901   -45015.691    91.240319   0.96305178 
    9500    287.61542   -1000.5258    143496.63   -40971.719    3949.7052   -44921.424    92.430961   0.96062547 
    9600    291.12586   -1010.9537    143877.19   -40985.918    3997.9126    -44983.83    93.912639   0.95808455 
    9700    288.29639    -1059.464    143531.02   -40939.179    3959.0566   -44898.235    94.900061   0.96039527 
    9800    297.75858   -1123.4577    143458.45   -40910.214    4088.9971   -44999.211    95.941493   0.96088111 
    9900    294.12061   -1091.2094    143066.73   -40918.553    4039.0383   -44957.591    96.945608   0.96351203 
   10000    292.02221   -740.82666    142944.64   -41066.039    4010.2218    -45076.26    97.516661   0.96433498 
   10100    291.23201   -1061.8933    142835.12   -41008.039    3999.3704    -45007.41    98.708482   0.96507441 
   10200    290.99157   -1100.0542    142526.41   -41030.156    3996.0685   -45026.225    99.834439   0.96716475 
   10300    288.96569   -922.67823    142289.33   -40925.486    3968.2479   -44893.734    101.19954    0.9687762 
   10400    294.73288   -1030.2624    142310.93   -40845.507    4047.4464   -44892.954    102.57015   0.96862915 
   10500    300.28424   -1351.0019    142441.85   -40842.699    4123.6809    -44966.38    103.90825   0.96773889 
   10600    296.97195   -1190.7424    142333.31   -40869.354    4078.1945   -44947.548    104.99605   0.96847689 
   10700    295.36978    -1089.358    142440.34   -40891.457    4056.1927    -44947.65    106.20708   0.96774913 
   10800    294.43718   -1102.6961    142443.72   -40847.119    4043.3857   -44890.504    107.63443   0.96772619 
   10900    293.60329   -829.51375    142643.76   -40794.975    4031.9342   -44826.909    109.17675   0.96636905 
   11000    298.84481    -1140.426    142716.88    -40821.53    4103.9139   -44925.444    110.67386   0.96587396 
   11100    295.90931   -949.32064    142792.66   -40844.494    4063.6018   -44908.096    111.68751   0.96536134 
   11200    290.54825   -1014.6121    142747.99   -40887.527    3989.9805   -44877.508    112.37701   0.96566343 
   11300    291.24771    -952.9884    142700.83   -40929.738    3999.5859   -44929.324    113.11604   0.96598257 
   11400    289.95417   -973.02405    142834.68    -40947.72    3981.8222   -44929.542    114.62944   0.96507734 
   11500    291.05868   -1112.8209     142649.2   -41077.399    3996.9901   -45074.389    115.36897   0.96633218 
   11600    283.80314   -1057.0337    142889.46   -41118.425    3897.3528   -45015.778    116.55791   0.96470739 
   11700    289.73382     -1159.14    142800.74   -40980.639    3978.7963   -44959.435    117.24948   0.96530674 
   11800    288.76289   -1228.8401    142818.26   -41002.865     3965.463   -44968.328    118.48338   0.96518833 
   11900    290.79386   -1214.9679    142808.46   -41079.222    3993.3534   -45072.575    119.69601   0.96525453 
   12000     287.9518   -968.78689     142861.6   -41034.784    3954.3246   -44989.109    121.34937   0.96489549 
   12100    291.52012   -804.07356    142837.69   -40987.357    4003.3269   -44990.684    122.74371   0.96505705 
   12200    297.49076   -1059.4566    142826.19   -40834.224    4085.3192   -44919.543    124.24472   0.96513471 
   12300    297.54898   -1169.2511    142876.26   -40814.565    4086.1188   -44900.683    125.90412   0.96479651 
   12400    296.50752   -921.49949    143098.38   -40714.461    4071.8168   -44786.278    127.42004   0.96329891 
   12500    299.01022    -846.9757    143238.91   -40784.289    4106.1853   -44890.475    129.10787   0.96235385 
   12600    296.26124   -1164.5986    142767.36    -40821.97    4068.4347   -44890.405    129.76402   0.96553241 
   12700     296.5806   -706.32272    142745.12     -40835.7    4072.8203    -44908.52     131.1132   0.96568288 
   12800     292.5567   -1201.2864    142901.57   -40857.285    4017.5618   -44874.847     132.3966   0.96462564 
   12900    296.83476   -1084.3943    142860.06   -40844.643    4076.3106   -44920.954    133.50748   0.96490595 
   13000    291.54508   -1146.1553    143370.98   -40900.513    4003.6697   -44904.183    135.01739   0.96146735 
   13100     296.3067    -1297.076    142938.26   -40886.481     4069.059    -44955.54    135.41694   0.96437805 
   13200    293.00766   -960.77232    142733.48   -40794.431    4023.7546   -44818.185    136.05687   0.96576165 
   13300    298.24349   -1103.6044    142589.62   -40884.183    4095.6561   -44979.839    136.45101   0.96673601 
   13400    293.70885   -1142.4482    142805.07    -40921.82    4033.3837   -44955.203    137.54845   0.96527745 
   13500    293.15993   -850.73019    142948.48   -40943.965    4025.8456    -44969.81    138.97487   0.96430911 
   13600    293.31007   -1040.3921    142675.58   -40913.125    4027.9075   -44941.032    139.62899   0.96615357 
   13700    292.20784   -1074.9803    142872.57   -40940.398     4012.771   -44953.169    140.97908   0.96482142 
   13800    290.73628   -1207.6409    142545.45   -41013.038    3992.5627   -45005.601    141.57275   0.96703555 
   13900    288.58558   -1078.7325    142340.54   -41005.674     3963.028   -44968.702    143.13682   0.96842764 
   14000    285.58371    -1016.507    142298.17   -41059.036    3921.8046   -44980.841    144.20868   0.96871601 
   14100    295.19708   -956.46192    142121.27   -41019.707    4053.8211   -45073.528    145.43952   0.96992176 
   14200    292.81209   -1158.8855    142604.84   -40966.098     4021.069   -44987.167    146.64669   0.96663284 
   14300    282.97551   -1028.9223    142270.56   -41029.326    3885.9872   -44915.313    147.04836   0.96890403 
   14400    294.14213    -1156.354    142218.09   -40953.235    4039.3339   -44992.569    147.88777   0.96926145 
   14500    293.17996   -1102.8956    142022.35   -41012.741    4026.1207   -45038.861    148.75879   0.97059732 
   14600    298.64936   -1170.6202     141988.2   -40903.739    4101.2298   -45004.969    149.66886   0.97083078 
   14700    291.00736   -1126.3189    141993.98    -40902.44    3996.2852   -44898.725    150.43825   0.97079129 
   14800     290.3937   -1095.2509     141928.5   -40957.967    3987.8582   -44945.825    151.27589   0.97123919 
   14900    301.86627   -843.94859     142196.3   -40918.521    4145.4062   -45063.928     152.8399   0.96940999 
   15000     290.7375   -957.38018    142559.47   -41015.371    3992.5795   -45007.951    154.18187   0.96694047 
   15100    291.22632   -1030.4822    142217.98   -41021.716    3999.2922   -45021.008    154.99788   0.96926221 
   15200    289.78527   -1085.2796    142224.04   -41087.342    3979.5028   -45066.845    156.02715   0.96922094 
   15300    294.78817   -1009.7403    142245.38    -40990.65    4048.2057   -45038.856     156.8233   0.96907556 
   15400    297.94785   -976.51853     142399.8   -40867.123    4091.5962   -44958.719    157.88568   0.96802465 
   15500    296.34202   -692.36087    142438.96   -40941.736    4069.5441    -45011.28     159.6912   0.96775849 
   15600    292.34706   -730.53469    142552.15   -40988.717    4014.6829     -45003.4    160.88649   0.96699006 
   15700    294.31516   -908.70162    142604.28   -40999.149      4041.71   -45040.859    162.28588   0.96663659 
   15800     289.1051   -913.36968    142366.96   -40990.197    3970.1623   -44960.359    163.22624   0.96824795 
   15900    294.06452   -842.19216    142448.04    -40962.73    4038.2681   -45000.998    163.92985   0.96769684 
   16000    291.47497    -882.7803    142574.57   -41006.123    4002.7068   -45008.829    165.11567   0.96683803 
   16100    291.09247   -895.43113    142679.92     -40975.4    3997.4541   -44972.854    165.88895   0.96612417 
   16200     299.5092   -889.99368    143192.98   -40819.064    4113.0376   -44932.101    167.59707   0.96266251 
   16300    300.47356   -1025.1673    143191.74   -40794.537    4126.2807   -44920.818    169.23416    0.9626709 
   16400    297.86162   -1032.1553    143077.06   -40761.921     4090.412   -44852.333      170.648   0.96344247 
   16500    299.19881   -1076.9825    142883.92   -40803.692    4108.7751   -44912.467    171.64071   0.96474479 
   16600    302.05206   -722.92702    143076.16   -40812.583    4147.9577   -44960.541     173.1073   0.96344852 
   16700    289.79119   -1269.9856    142978.31   -40951.725    3979.5842   -44931.309    174.52235   0.96410786 
   16800    296.07158   -1073.6471    142649.17   -40918.512    4065.8301   -44984.342    175.67075   0.96633243 
   16900    298.69144   -814.51139    142720.99   -40940.351    4101.8077   -45042.158    176.03087   0.96584613 
   17000    291.97615    -1022.975    142621.79   -40956.114    4009.5894   -44965.703    176.95748   0.96651793 
   17100    292.23174   -763.98994    142766.69   -40945.016    4013.0992   -44958.115    178.24313   0.96553694 
   17200    298.50943   -986.49581    142905.06   -40893.781    4099.3082   -44993.089    179.81836   0.96460204 
   17300    297.62585   -1091.7508    142933.35   -40932.015    4087.1744    -45019.19    180.33198   0.96441116 
   17400    297.15296   -1002.6769    142634.69   -40954.102    4080.6803   -45034.782     181.6056   0.96643049 
   17500    289.21293   -1019.5143    143068.19   -40948.366    3971.6432   -44920.009    183.39619   0.96350223 
   17600     294.5366   -878.12696    142753.82   -40996.985     4044.751   -45041.736    184.32005     0.965624 
   17700    288.71837   -800.52102    142881.92   -40911.436    3964.8515   -44876.288    186.43926   0.96475826 
   17800    286.86931   -1028.8515    142763.03   -40955.644    3939.4592   -44895.103    187.54424   0.96556175 
   17900    291.03727   -949.94244    143004.68   -40950.755     3996.696   -44947.451    189.00303   0.96393008 
   18000    285.37078   -1026.5198    142853.27   -40987.103    3918.8804   -44905.984    189.98892   0.96495176 
   18100     291.6153    -830.9446    142716.17   -40955.209    4004.6339   -44959.843    190.69534   0.96587874 
   18200    291.64835   -1248.2226    142735.45    -40912.24    4005.0877   -44917.328    191.56525   0.96574831 
   18300     293.7275   -1012.9486     142788.4   -40954.612    4033.6399   -44988.252    192.41421   0.96539013 
   18400    295.36698   -996.52011    142484.71    -41013.14    4056.1543   -45069.294    192.74505   0.96744779 
   18500    296.97162   -931.52989    142213.01   -40926.083      4078.19   -45004.273    193.09567   0.96929608 
   18600    290.91144   -1060.0552    142162.01   -40976.076    3994.9681   -44971.044    193.73098   0.96964384 
   18700    292.55072   -1161.3061    142261.92   -40845.525    4017.4797   -44863.005    194.55478   0.96896287 
   18800    291.13399   -1035.0459    142248.58   -40923.626    3998.0242    -44921.65    195.37474   0.96905372 
   18900    295.13219   -757.58243    142100.02   -40959.024    4052.9299   -45011.954    196.17533   0.97006684 
   19000    296.85503   -1071.3715    142337.63   -40953.738     4076.589   -45030.327    197.94757   0.96844746 
   19100    288.11994   -1142.4181    142421.13   -40958.487    3956.6336   -44915.121     199.4987   0.96787969 
   19200    296.95121   -864.42586    142511.33   -40916.945    4077.9098   -44994.854    200.65987   0.96726707 
   19300    295.16192   -963.97486    142518.56   -40914.202    4053.3382    -44967.54    201.97948     0.967218 
   19400     294.3839   -994.05387    142586.93   -40971.247     4042.654   -45013.901    203.30572    0.9667542 
   19500    297.55786   -972.13402    142861.08   -40950.621    4086.2407   -45036.862    205.21791   0.96489904 
   19600    294.80727   -1030.4797     142764.9   -40951.137     4048.468   -44999.605    206.57862   0.96554908 
   19700    288.25417   -769.62342    143050.42   -40983.424    3958.4768   -44941.901    208.19416   0.96362191 
   19800    291.49308   -979.37572    142783.92   -40975.171    4002.9555   -44978.127    209.10636   0.96542047 
   19900    295.68043   -1007.6749    142948.43    -40899.78    4060.4587   -44960.239    210.85874   0.96430942 
   20000    299.70598   -908.52456    143189.86     -40857.2      4115.74    -44972.94    212.23763   0.96268353 
   20100    295.28593   -991.98598    143096.82   -40867.286    4055.0412   -44922.327    213.73136    0.9633094 
   20200    291.61429   -1161.0207    142971.86   -40799.471      4004.62   -44804.091    214.90547   0.96415138 
   20300    291.08062   -911.04449    142803.38   -40787.556    3997.2914   -44784.847    215.65555   0.96528892 
   20400    296.00344   -1040.7292    143192.97    -40820.65    4064.8945   -44885.544    216.98326   0.96266261 
   20500    301.02556    -1016.294    143296.34   -40743.204    4133.8612   -44877.065    218.35995   0.96196819 
   20600    296.62743   -764.72099    143221.07   -40866.997    4073.4634    -44940.46    219.54675   0.96247375 
   20700    292.02726   -1169.9581    143095.58   -40957.629    4010.2912    -44967.92    221.08623   0.96331781 
   20800    288.62771   -1245.7465    142876.69   -40991.412    3963.6065   -44955.019    221.69196   0.96479361 
   20900    291.32938   -973.52302    142930.78    -40989.31    4000.7075   -44990.018    223.05313   0.96442852 
   21000    293.86684   -848.76599    143174.51   -40898.414    4035.5534   -44933.968    224.69016   0.96278673 
   21100    292.34361   -851.04723    143118.69   -40968.895    4014.6355    -44983.53    225.97041   0.96316223 
   21200     290.1137   -1113.5974    142740.88   -41031.958     3984.013   -45015.971    226.71374   0.96571156 
   21300    288.80881   -1164.9931    142564.03   -41060.407    3966.0935   -45026.501    227.29622   0.96690954 
   21400    289.30155   -1047.2918    142298.81   -40968.264    3972.8602   -44941.124    228.70491   0.96871167 
   21500    296.50994   -970.75319    142221.37   -40903.387      4071.85   -44975.237    229.96663   0.96923912 
   21600    289.38368   -965.38501    142569.14   -40941.251     3973.988   -44915.239    232.14279   0.96687486 
   21700     296.9453   -703.30394    142658.46   -40876.885    4077.8286   -44954.713    233.65551   0.96626949 
   21800    291.93688    -993.2192    142670.57   -40839.654      4009.05   -44848.704    234.93141   0.96618747 
   21900     293.3461   -1107.0335    142731.58    -40801.71    4028.4022   -44830.112     236.3693   0.96577448 
   22000    290.73606    -967.0438    142789.58   -40882.938    3992.5597   -44875.498    238.42349   0.96538218 
   22100    294.96939   -1005.2171    142608.81    -40835.53    4050.6943   -44886.225    239.91411   0.96660592 
   22200    295.54577   -1034.4213    142841.71   -40809.057    4058.6094   -44867.667    241.55633   0.96502988 
   22300    293.63632   -821.11128     142923.8   -40857.815    4032.3878   -44890.202    243.24758   0.96447559 
   22400     293.9683   -731.93927     143117.2   -40874.379    4036.9468   -44911.325    244.97892   0.96317226 
   22500    295.10051   -1198.1603       143411   -40911.594    4052.4948   -44964.089    246.70253   0.96119902 
   22600    289.64416   -868.75436    142963.19   -40948.091    3977.5651   -44925.656    247.51411   0.96420984 
   22700    296.24726   -1209.2996    143253.04   -40938.648    4068.2427   -45006.891    248.95584   0.96225892 
   22800    289.79091   -1247.3361    143065.51    -41041.77    3979.5803    -45021.35    249.75173   0.96352022 
   22900    289.69797   -1042.6002    142747.74   -41012.795     3978.304   -44991.099    250.75138   0.96566512 
   23000     294.8474   -1265.4262    142673.62   -40927.346     4049.019   -44976.365    252.11675   0.96616683 
   23100    295.29266   -803.67163    142973.32   -40923.782    4055.1336   -44978.916    253.47967   0.96414153 
   23200    292.55612   -978.27333    142694.35   -40917.694    4017.5537   -44935.248    254.46311   0.96602648 
   23300    289.88772   -909.32278    142486.89   -41028.925    3980.9098   -45009.835    255.25457     0.967433 
   23400    288.92184   -1080.4677    142722.49   -40980.641    3967.6457   -44948.287    257.01569   0.96583601 
   23500    289.69105   -789.33984    142670.46   -40962.804     3978.209   -44941.013    258.13406    0.9661882 
   23600    289.46073   -740.63393    142642.52   -41029.179     3975.046   -45004.225    259.06362   0.96637746 
   23700    291.42632   -955.30284    142547.52   -41044.253    4002.0387   -45046.292    259.57435   0.96702148 
   23800    288.07462   -915.36067    142758.82   -41008.358    3956.0111   -44964.369    260.20521    0.9655902 
   23900    294.16055   -1211.6149    142723.38   -40906.032    4039.5867   -44945.619     261.2699   0.96582998 
   24000    290.76069   -1072.1413    142493.68   -40889.052    3992.8979    -44881.95    261.71835   0.96738688 
   24100    296.90058   -1025.7295    142733.44   -40869.355    4077.2145   -44946.569    263.34852   0.96576189 
   24200    297.38937    -1051.699    142692.63   -40776.335    4083.9268   -44860.262    264.42133   0.96603809 
   24300    291.90325   -989.40664    142923.91   -40861.371    4008.5882   -44869.959    264.75628   0.96447488 
   24400    292.60761   -1026.1164    143353.59   -40797.239     4018.261     -44815.5    266.54891   0.96158399 
   24500    295.02151   -974.24105    143374.18   -40806.767    4051.4099   -44858.177    266.95382   0.96144591 
   24600    293.98774     -1133.61    143215.08   -40833.625    4037.2137   -44870.839    267.50064   0.96251396 
   24700    298.12436   -1091.4343     143388.9   -40791.522    4094.0202   -44885.542    268.68023   0.96134718 
   24800    290.75338   -1045.3095    143096.71   -40804.234    3992.7975   -44797.031    269.03398   0.96331017 
   24900    290.65825   -1017.3163    143005.49   -40848.025    3991.4911   -44839.516    269.53056   0.96392466 
   25000    292.98518    -1186.204    142622.12   -40867.688    4023.4459   -44891.134    270.19872   0.96651571 
   25100     291.0273   -1049.1095    142461.54   -40885.572    3996.5592   -44882.131    271.26379   0.96760513 
   25200    293.85571   -1008.2371    142339.11   -40947.078    4035.4005   -44982.478    272.25863   0.96843738 
   25300    294.78189   -905.32651    142417.22   -40988.149    4048.1194   -45036.268    274.09533   0.96790621 
   25400    291.68907   -1039.7607    142166.38   -40955.756    4005.6469   -44961.403    274.92136   0.96961404 
   25500    291.88876   -875.51215    142275.84   -41005.796    4008.3892   -45014.185    276.02334   0.96886806 
   25600    293.99045   -883.00335    142536.13   -41068.993    4037.2509   -45106.244    277.13329   0.96709879 
   25700    291.40342   -1168.4401    142677.02   -41061.307    4001.7243   -45063.032     278.8958    0.9661438 
   25800    287.13938   -913.44185    142743.76    -41147.24    3943.1679   -45090.408    280.02355   0.96569208 
   25900    289.14709   -1044.5971     142736.6   -41170.224    3970.7389   -45140.963    281.57083   0.96574052 
   26000    293.23764   -904.29888    142817.83    -41031.71    4026.9128   -45058.623    282.45616   0.96519123 
   26100    292.45255   -1201.3348    142660.63   -41050.947    4016.1315   -45067.078     283.3689   0.96625479 
   26200    294.91399   -993.90948    143106.72   -40933.885    4049.9335   -44983.819    285.42754   0.96324279 
   26300    294.73856   -1134.5478    142982.89    -40965.98    4047.5244   -45013.504    286.21476   0.96407698 
   26400    293.84049   -920.90861    143116.91   -40995.505    4035.1915   -45030.696    287.19192   0.96317418 
   26500    300.92318    -977.7114    143192.88   -40786.518    4132.4552   -44918.973    288.80883   0.96266323 
   26600    289.84283   -1052.5034    142730.19   -40891.622    3980.2933   -44871.915    288.46896   0.96578385 
   26700    295.69829   -1065.4995    142669.15   -40826.621     4060.704   -44887.325    289.39439    0.9661971 
   26800    293.65819   -991.36955     142560.2   -40831.274    4032.6881   -44863.962    290.58743   0.96693548 
   26900    290.09742   -970.67977    142400.56   -40949.845    3983.7895   -44933.634    291.11849   0.96801952 
   27000    292.60234   -983.73157    142426.74   -40935.189    4018.1885   -44953.377    292.16837   0.96784153 
   27100    293.56155   -1097.1699     142666.6   -40854.872     4031.361   -44886.233    293.29365   0.96621434 
   27200     294.7048    -878.2137    142805.18   -40830.834    4047.0608   -44877.894    294.80566   0.96527675 
   27300    296.43181   -1103.6452    142872.77   -40775.923    4070.7771     -44846.7    295.61338   0.96482009 
   27400    298.96036   -1315.9579    142566.26    -40798.39    4105.5006   -44903.891    296.95935    0.9668944 
   27500    292.18346    -1056.015    142621.36   -40879.045    4012.4363   -44891.481    298.08521   0.96652084 
   27600    297.03623    -894.9527    142353.12   -40827.886    4079.0774   -44906.964    298.92655   0.96834206 
   27700    302.00416   -1052.4783    142595.64   -40799.569    4147.2998   -44946.868    300.15171   0.96669517 
   27800    301.21679   -721.39932    143062.28   -40803.014    4136.4873   -44939.501    302.37087   0.96354202 
   27900    295.87319   -1198.1646    143370.72   -40847.639    4063.1058   -44910.745    303.79558   0.96146909 
   28000    296.50884   -1189.5213    143393.86   -40761.751    4071.8349   -44833.585    304.71131   0.96131393 
   28100    293.25594   -1062.9834    143449.21   -40835.829    4027.1642   -44862.993    305.92093   0.96094305 
   28200    287.36448   -1024.3891    143401.05   -40960.451    3946.2591    -44906.71    306.93551   0.96126576 
   28300    300.40109   -1082.7787    143201.71   -40997.067    4125.2855   -45122.352    307.45101   0.96260386 
   28400    295.55778   -1075.1456    143282.87   -40913.691    4058.7743   -44972.466    308.60933   0.96205858 
   28500     293.7642   -834.34283    143248.72   -40987.537    4034.1438   -45021.681    309.32307   0.96228795 
   28600    289.88754   -1258.2625    142943.68   -41012.932    3980.9073    -44993.84    309.62744   0.96434147 
   28700    289.34684     -1237.77    142886.64    -41117.36     3973.482   -45090.842    311.38199    0.9647264 
   28800    292.45941   -1099.5027    142561.56   -41069.674    4016.2257     -45085.9    311.93464   0.96692628 
   28900    292.12931   -994.00803    142847.79   -41053.982    4011.6927   -45065.674    314.36456    0.9649888 
   29000    293.80006   -1180.9385    142840.51   -41064.299    4034.6363   -45098.935    315.14213   0.96503799 
   29100    292.73739   -983.98462    142946.53    -41022.15    4020.0431   -45042.193    316.60884   0.96432226 
   29200    287.66222   -1181.7746     142983.2   -41042.238    3950.3479   -44992.586    317.80127   0.96407495 
   29300    294.16726   -987.21731    142737.44   -41016.617    4039.6789   -45056.296    317.15019    0.9657348 
   29400    287.61716   -924.83954    142779.26   -41057.401    3949.7291   -45007.131    317.58591   0.96545199 
   29500    290.69039   -946.03146    142433.13   -40996.989    3991.9325   -44988.921    318.57404   0.96779811 
   29600     293.8322   -1016.6307    142245.51   -40964.038    4035.0777   -44999.116    319.75874   0.96907467 
   29700    291.15586   -928.46068    142256.13   -40956.549    3998.3245   -44954.873    321.12688    0.9690023 
   29800    293.75732   -983.30008    142265.82   -40859.595    4034.0494   -44893.644    322.62494   0.96893632 
   29900    296.88632   -1320.1415    142395.72   -40896.737    4077.0186   -44973.756    324.76049   0.96805237 
   30000     301.8636    -898.7126    142477.58   -40878.351    4145.3696   -45023.721    326.75074    0.9674962 
   30100     291.7165   -1109.7787    142719.23   -40865.672    4006.0237   -44871.696    329.12449   0.96585803 
   30200    292.79625   -822.95566    142775.25   -40868.343    4020.8513   -44889.194    329.76056   0.96547908 
   30300    296.38698   -877.84157    142760.29     -40856.8    4070.1614   -44926.961    331.29419   0.96558023 
   30400    287.03866   -1017.0673    142697.06   -41053.785    3941.7847    -44995.57     332.4389   0.96600814 
   30500    290.40857   -986.78128    142991.98   -40995.953    3988.0624   -44984.016    333.88468   0.96401569 
   30600    291.47187   -1027.5591     143096.4   -41009.187    4002.6642   -45011.851    334.38407   0.96331229 
   30700     294.9821   -966.11755    142961.05    -40965.64    4050.8688   -45016.509    335.36822   0.96422426 
   30800    290.97525   -1015.0789    142938.19   -40918.349    3995.8444   -44914.193    336.30185   0.96437848 
   30900    295.34209   -1132.9001    142966.99   -40938.186    4055.8124   -44993.999    338.12458   0.96418422 
   31000    292.31748   -972.50096    142951.16   -40935.038    4014.2766   -44949.315    338.82473   0.96429103 
   31100    283.16233   -958.90562    142991.98   -41081.654    3888.5527   -44970.207    340.36386   0.96401575 
   31200    289.66265   -1220.4871    142916.61   -41050.701    3977.8189   -45028.519    340.91561    0.9645241 
   31300    289.76085   -844.04585    142960.46   -41004.779    3979.1675   -44983.946    341.07565   0.96422825 
   31400    287.76371    -1175.087    142916.62   -41009.503    3951.7417   -44961.244    341.87648   0.96452404 
   31500    299.34765   -985.06247    143041.68   -40894.846    4110.8191   -45005.665    341.86827    0.9636808 
   31600    292.70197    -855.7259     142909.8   -40888.852    4019.5567   -44908.408    342.34922    0.9645701 
   31700    289.14528   -969.95235    142656.28   -40928.261    3970.7141   -44898.975    342.33205   0.96628426 
   31800    289.72447   -1041.9576    142612.18   -40928.283    3978.6679    -44906.95    343.71666   0.96658308 
   31900    292.85548   -990.33277    142536.08   -40907.179    4021.6649   -44928.843      344.104   0.96709908 
   32000    294.26469   -1260.6287    142279.94    -40859.91    4041.0169   -44900.927    344.81541   0.96884017 
   32100    292.56495   -923.57183    142411.18   -40961.182    4017.6751   -44978.857    345.90597   0.96794731 
   32200    291.46489   -1298.6048    142453.76   -40934.784    4002.5683   -44937.352    347.66263     0.967658 
   32300    291.04609   -1037.8554    142497.07   -40892.029    3996.8172   -44888.846    348.77857   0.96736389 
   32400    291.05491   -1231.3137    142170.14   -40815.684    3996.9383   -44812.622    349.43193    0.9695884 
   32500    286.01187   -912.15921    142509.78   -40918.657    3927.6843   -44846.341     351.7753   0.96727759 
   32600    295.21048   -1132.4141    142597.31   -40916.216    4054.0051   -44970.221    352.53647   0.96668388 
   32700    292.33024    -786.7093    142636.65   -40905.519    4014.4519   -44919.971    353.89604   0.96641724 
   32800    294.81544   -1128.4358     142288.5   -40988.565    4048.5801   -45037.145     354.1178   0.96878185 
   32900    288.53808   -1161.7456    142013.95   -41113.536    3962.3758   -45075.912    354.68465   0.97065473 
   33000     287.5515   -959.86634    141910.84   -41092.682    3948.8274    -45041.51    356.34995   0.97136003 
   33100    294.44097   -889.20412    142188.67   -41061.799    4043.4377   -45105.237    357.42134   0.96946201 
   33200    287.07209   -1265.1831    141880.34   -41020.931    3942.2438   -44963.175    357.48764   0.97156882 
   33300    293.46478   -918.99863    142042.23   -40933.211     4030.032   -44963.243      359.407   0.97046151 
   33400    290.49032   -955.25843    142440.86    -40964.77     3989.185   -44953.955    360.38834   0.96774562 
   33500    294.81591   -1089.4772    142456.87   -40860.431    4048.5865   -44909.018    361.82836   0.96763683 
   33600    295.02944   -786.85829    142818.95   -40853.995    4051.5189   -44905.514    363.65279   0.96518366 
   33700     288.1527   -969.11339    142832.44   -40857.251    3957.0834   -44814.334    365.92467   0.96509251 
   33800    293.21698   -1369.6401    142562.08   -40828.304    4026.6292   -44854.933     366.0091   0.96692275 
   33900    293.09553   -673.64095    142741.71   -40841.915    4024.9613   -44866.876    367.03836   0.96570593 
   34000    295.12108    -1090.744    142497.23   -40880.669    4052.7774   -44933.446    367.50313   0.96736279 
   34100    294.97345   -1008.5636    142751.49   -40961.578      4050.75   -45012.328    368.78387   0.96563975 
   34200    289.93627   -701.04984    142717.41   -40940.934    3981.5765    -44922.51    370.30238   0.96587039 
   34300    295.85313   -936.17868     143064.2   -40905.965    4062.8304   -44968.795    372.07609   0.96352909 
   34400    296.36581   -956.89979    143018.05   -40825.491    4069.8707   -44895.362    372.87332   0.96383997 
   34500    302.76765   -1027.1964    143372.35   -40793.684    4157.7845   -44951.468      374.555   0.96145817 
   34600    297.27887   -1038.4233    143451.76   -40853.141    4082.4094    -44935.55    375.50793   0.96092591 
   34700     293.9115   -995.53145    143280.82   -40924.122    4036.1667   -44960.289    376.07296   0.96207233 
   34800    292.80328   -918.23124     143284.6   -40953.094     4020.948   -44974.042    376.92757     0.962047 
   34900    293.38355   -921.26097    143143.14   -40930.864    4028.9165    -44959.78    378.66325   0.96299771 
   35000    291.00382   -1023.7993    143242.97   -41015.346    3996.2367   -45011.583    380.47861   0.96232658 
   35100    290.54699   -1085.3564    142989.87   -40985.633    3989.9632   -44975.597    381.05091   0.96402997 
   35200     296.8827   -691.31472    142975.06   -40794.551     4076.969   -44871.519    382.14747   0.96412981 
   35300     291.2834   -1148.3328    143100.16   -40887.237     4000.076   -44887.313     383.3431   0.96328695 
   35400    296.27442   -1184.4243     142796.7   -40978.316    4068.6156   -45046.931     383.8863   0.96533408 
   35500    291.11726   -927.93386    142670.49   -40964.692    3997.7945   -44962.487    384.62628   0.96618804 
   35600    290.92531   -799.49076    142769.86   -40967.049    3995.1586   -44962.207    385.69686   0.96551556 
   35700    296.67222   -1039.7464    142992.08   -40905.824    4074.0785   -44979.902     386.9003   0.96401501 
   35800    289.66053   -957.42682    142794.09    -40922.09    3977.7898    -44899.88     387.8364   0.96535172 
   35900    299.42115   -901.39596    143059.02   -40852.143    4111.8285   -44963.971    389.07307   0.96356397 
   36000    294.27571   -986.00889     143266.1   -40884.245    4041.1683   -44925.414    390.42111    0.9621712 
   36100    295.75976   -1126.6243    143478.03   -40907.215    4061.5481   -44968.763    391.50169   0.96074997 
   36200    294.11851   -733.96356    143337.59   -40909.703    4039.0095   -44948.713     391.9441   0.96169134 
   36300    288.92086   -1209.6762    143471.95   -40914.746    3967.6322   -44882.378    393.06135   0.96079072 
   36400    295.70328   -802.79628    142728.46   -40842.126    4060.7724   -44902.899    393.24748   0.96579559 
   36500    299.50178   -1007.3708    142870.75   -40770.954    4112.9357    -44883.89    394.68647   0.96483372 
   36600    291.94651   -1281.8335    143033.88   -40862.864    4009.1822   -44872.047     396.2002   0.96373333 
   36700    295.45121   -1192.4347    142802.07    -40906.66    4057.3109   -44963.971     396.5735   0.96529774 
   36800    293.84275   -1025.9141    142691.52    -40949.38    4035.2226   -44984.603    398.17591   0.96604563 
   36900    290.10796   -1055.1068    142835.86   -41043.184    3983.9342   -45027.118    399.36398   0.96506938 
   37000    287.21536   -912.08868    142943.04   -40976.407    3944.2113   -44920.619    399.66661    0.9643458 
   37100    291.62445   -1246.7563    142881.68   -40992.571    4004.7595    -44997.33    400.97581    0.9647599 
   37200    292.30086   -1036.2094    142617.29   -40956.308    4014.0484   -44970.357    401.66432   0.96654839 
   37300    293.64234   -723.13809    142709.94   -40942.078    4032.4704   -44974.548    403.15577   0.96592091 
   37400     295.1528   -936.59452    142692.69   -41043.263     4053.213   -45096.476    404.10311   0.96603769 
   37500    291.92966   -1040.2455    142813.31   -41058.464    4008.9509   -45067.415    405.45412   0.96522179 
   37600    290.80245   -834.95422    142823.08   -41030.923    3993.4714   -45024.394    406.01692   0.96515573 
   37700    286.94574   -1112.1121    142583.92   -41057.656    3940.5087   -44998.165    406.22976    0.9667746 
   37800    294.42558   -931.44991    142718.76   -41059.695    4043.2263   -45102.921    406.90166   0.96586125 
   37900     291.6578   -921.08345    142803.13   -41082.681    4005.2176   -45087.898    408.63399   0.96529058 
   38000    296.08002   -928.99314    142950.88   -41056.035    4065.9461   -45121.981    410.43715   0.96429292 
   38100    289.11859   -1086.5035    142916.66   -41091.859    3970.3476   -45062.207    410.75403   0.96452377 
   38200    291.70062   -823.55248    142581.39   -41118.875    4005.8055    -45124.68    411.06446   0.96679179 
   38300     286.2731   -1048.3517    142571.67   -41199.498    3931.2716   -45130.769    411.91809    0.9668577 
   38400     285.7398   -1182.0714    143061.12   -41284.538     3923.948   -45208.486     413.3036   0.96354979 
   38500    279.67329   -973.15232    142861.39   -41220.127    3840.6391   -45060.766    413.94811   0.96489692 
   38600    292.29156   -1106.8466     142619.1   -41061.126    4013.9207   -45075.047    413.27995   0.96653613 
   38700    292.97015   -1116.0442    142763.02   -41046.096    4023.2395   -45069.335    415.35216    0.9655618 
   38800    294.28301   -1159.6303    142810.39   -40992.005    4041.2685   -45033.274    417.08364   0.96524153 
   38900     296.8485    -997.4537    142860.79   -40866.197    4076.4993   -44942.696    418.69542   0.96490098 
   39000    294.65211   -1038.3938    143062.05   -40909.003    4046.3371    -44955.34    420.19469   0.96354357 
   39100    286.18135   -882.92558    143310.03    -40951.14    3930.0116   -44881.152    421.63433   0.96187624 
   39200     289.7693    -1069.847    143355.35   -40894.266    3979.2836    -44873.55    422.26631   0.96157217 
   39300    297.98847   -817.32229    143411.13   -40846.341     4092.154   -44938.495    423.47513    0.9611982 
   39400    294.32475   -1140.3526    143044.61   -40902.243    4041.8417   -44944.085    424.22563   0.96366106 
   39500    294.80594   -1115.2549    143263.13   -40842.587    4048.4497   -44891.036    425.36096   0.96219117 
   39600    295.83426   -1188.0545    143144.09   -40845.251    4062.5712   -44907.822    426.37455   0.96299132 
   39700    293.81995    -937.1738    142899.31   -40978.375    4034.9095   -45013.284    426.55716   0.96464089 
   39800    293.22718   -1160.5412    142678.63    -40969.42    4026.7692   -44996.189    427.63602   0.96613287 
   39900     291.6313   -1078.4444    142550.89   -41160.721    4004.8536   -45165.575     428.5899   0.96699863 
   40000    295.76922   -912.79406    143037.69   -41002.706     4061.678   -45064.384    430.40685   0.96370767 
   40100    294.40782   -1066.7343    143573.59   -41002.144    4042.9824   -45045.126    432.17508   0.96011054 
   40200    299.61073    -906.2478    143628.94   -40888.765    4114.4319   -45003.197    433.07266   0.95974051 
   40300    291.87271   -1131.8154    143674.36   -40967.078    4008.1688   -44975.247     433.9548   0.95943717 
   40400     289.4733   -1056.8029    143499.24   -40983.744    3975.2187   -44958.962    435.06985   0.96060802 
   40500    293.10876   -1103.6773    143259.85    -40973.29     4025.143   -44998.433     435.0942   0.96221316 
   40600    291.38589   -1099.2979    143113.06    -40963.34    4001.4836   -44964.824    436.28983   0.96320012 
   40700    293.36376    -1076.442    142786.32   -40964.062    4028.6448   -44992.707    436.37539    0.9654042 
   40800    294.97398   -1055.4961    142750.12   -41003.455    4050.7573   -45054.213     437.7987   0.96564902 
   40900     291.3755   -888.90217    142893.48   -41038.206    4001.3409   -45039.547    439.16268   0.96468026 
   41000    292.75163   -696.71056    142964.73   -41032.509    4020.2387   -45052.748    440.81864   0.96419948 
   41100    290.32502   -955.81416    143293.66   -41010.671     3986.915   -44997.586    443.32154   0.96198616 
   41200    292.61015   -1040.6303    143177.69   -40908.487    4018.2957   -44926.782    444.75664   0.96276531 
   41300    290.80163   -970.14258    143191.11   -41041.321    3993.4602   -45034.781    446.08988   0.96267511 
   41400    293.71734   -1037.6638    142971.18   -41021.594    4033.5003   -45055.094    446.98167   0.96415597 
   41500    295.36171   -1243.0331     143488.8   -41018.747    4056.0818   -45074.829    448.23569    0.9606779 
   41600    293.82059   -1008.2265    143377.29   -40941.004    4034.9182   -44975.923    448.60023   0.96142503 
   41700    294.79243   -1018.8336    142960.93   -41083.367    4048.2641   -45131.631    448.32909   0.96422508 
   41800    293.11009   -869.33797    142775.69   -40986.292    4025.1613   -45011.453    448.33446   0.96547609 
   41900    295.30948   -744.59389    143032.73    -40976.77    4055.3646   -45032.135    450.18083   0.96374105 
   42000    288.30517   -988.26999    143138.06   -40979.721    3959.1772   -44938.898    451.21563   0.96303187 
   42100    294.99755   -1251.2854    142846.25   -40968.516     4051.081   -45019.597    451.60532   0.96499919 
   42200    294.09127   -1067.2433    142940.22   -40952.887    4038.6354   -44991.522    453.39304   0.96436478 
   42300    289.36473   -1231.9581    142723.13   -41042.344    3973.7278   -45016.072    454.27481   0.96583164 
   42400    291.40645   -819.45201    142165.94   -41016.814    4001.7659    -45018.58    453.42951   0.96961705 
   42500    290.84142   -843.62019    142672.11   -41027.348    3994.0065   -45021.354    454.90927   0.96617701 
   42600    288.24651   -864.84443    142964.84     -41034.2    3958.3717   -44992.572    456.42533   0.96419872 
   42700     289.7128   -916.83858    142758.16   -41094.835    3978.5077   -45073.343    457.05667   0.96559466 
   42800    285.70994   -673.72265    142718.62   -41109.142     3923.538    -45032.68     458.7304   0.96586217 
   42900    289.90069   -803.79368    143045.32    -41043.35    3981.0878   -45024.438    460.59867   0.96365624 
   43000    294.70178   -1065.0085    143196.14   -40990.748    4047.0193   -45037.768    462.31956   0.96264129 
   43100    286.68186   -1038.8223    142828.37   -41004.691    3936.8849   -44941.576    462.65967      0.96512 
   43200    292.31066   -1243.5028    143027.49   -40990.534     4014.183   -45004.717    463.78136   0.96377637 
   43300    287.83361   -1103.5035    143263.18   -41007.719    3952.7015   -44960.421    465.67272   0.96219079 
   43400    283.14176     -1143.34     142919.7    -41033.83    3888.2703     -44922.1    466.39709   0.96450326 
   43500      293.845   -926.73314    143030.99   -40932.798    4035.2535   -44968.052    468.07778   0.96375283 
   43600    289.40673   -1086.8789    142694.39   -40984.625    3974.3045    -44958.93    469.15214   0.96602616 
   43700    292.03863   -1148.7205    142676.88   -40949.362    4010.4473    -44959.81    469.73067   0.96614473 
   43800    294.99319   -694.67493    142819.28   -40881.495    4051.0211   -44932.516    470.97499   0.96518146 
   43900    292.39115    -1368.419    142949.51   -41007.984    4015.2883   -45023.273    472.34362   0.96430213 
   44000    292.59252   -1057.2067    142540.51   -40936.766    4018.0537    -44954.82    472.01087   0.96706906 
   44100    293.23596   -982.84216       142597   -40877.298    4026.8898   -44904.187     473.0149   0.96668597 
   44200    291.15986   -1421.8421    142588.71   -40915.561    3998.3796   -44913.941    473.87894   0.96674218 
   44300    289.87927   -835.48476       142352   -41102.147    3980.7937   -45082.941    474.38945    0.9683497 
   44400    286.42953   -967.01436    142646.83   -41071.722    3933.4198   -45005.142    476.47397   0.96634826 
   44500    289.89665   -795.86346    142888.55   -41081.861    3981.0324   -45062.894    479.09997   0.96471349 
   44600    284.96453   -919.29297    143143.31   -41074.934    3913.3016   -44988.235      480.782   0.96299657 
   44700    289.48804   -948.29531    143119.17   -41088.383    3975.4211   -45063.804    481.80697   0.96315899 
   44800    288.50709   -974.95844     143016.4   -41005.816    3961.9501   -44967.766    483.13169   0.96385109 
   44900    291.83363   -1062.6931    142893.81   -41057.675    4007.6322   -45065.307    484.88531   0.96467802 
   45000     288.5059   -975.03278    142799.27   -41024.499    3961.9338   -44986.432    486.65426   0.96531668 
   45100    292.39048   -981.59328       143016   -40941.353    4015.2791   -44956.632    488.35187   0.96385381 
   45200    288.80471   -1161.1843    142891.81   -40959.551    3966.0372   -44925.588    489.28502   0.96469148 
   45300    288.85681   -764.94714    142622.28   -41027.594    3966.7526   -44994.347    489.56992   0.96651461 
   45400    290.09315   -814.77754     142987.8   -41058.166    3983.7308   -45041.897    491.12697   0.96404393 
   45500    296.61232   -1069.6764    142870.36   -40985.898    4073.2559   -45059.154    492.42799   0.96483634 
   45600     291.9905    -1069.891    142767.24   -41056.736    4009.7863   -45066.522    492.81474   0.96553327 
   45700    294.86813    -810.4884    142726.66   -40949.641    4049.3037   -44998.945    493.64471   0.96580777 
   45800    294.94173   -918.59104     142764.5   -40945.289    4050.3144   -44995.604     494.0682   0.96555175 
   45900    292.46553   -1116.2838    142746.33   -40929.697    4016.3098   -44946.007    494.42493    0.9656747 
   46000    291.33801   -1361.0543    142532.83   -41034.843     4000.826   -45035.669    494.23911   0.96712117 
   46100    295.77293   -991.83571    142741.81   -40991.686     4061.729   -45053.414    495.36136   0.96570524 
   46200    290.22332   -1233.2257    142761.47   -40980.071    3985.5184    -44965.59    496.74941   0.96557229 
   46300    292.70529   -1200.9733     142864.5   -40960.125    4019.6022   -44979.727    497.83242   0.96487596 
   46400    291.53511   -1157.2822    142718.92   -40942.675    4003.5327   -44946.208    499.25192   0.96586014 
   46500    291.96572   -575.14602    142758.44   -40889.304    4009.4461    -44898.75    501.32429   0.96559273 
   46600    298.86944   -1152.4675    142807.41    -40813.98    4104.2521   -44918.232     503.1324   0.96526165 
   46700    295.86997   -1043.3714    142859.74   -40812.913    4063.0616   -44875.974    504.32113   0.96490806 
   46800    299.17554   -897.28512     142867.9   -40790.383    4108.4556   -44898.839    505.45226   0.96485297 
   46900    297.86047   -886.53841    143017.29   -40798.698    4090.3962   -44889.094    506.37407   0.96384511 
   47000     295.0892   -1091.3702    143130.78   -40832.511    4052.3396   -44884.851    508.04249   0.96308091 
   47100    292.78217    -703.6567    142979.26   -40845.536     4020.658   -44866.194     508.7349   0.96410151 
   47200    292.94239   -888.41372    142904.62   -40910.422    4022.8583   -44933.281    509.18622   0.96460507 
   47300     293.4212   -891.26055    142647.18   -40904.459    4029.4336   -44933.893    509.61475   0.96634589 
   47400    291.48599   -1195.6813     142582.7    -40828.85    4002.8581   -44831.708    510.17908   0.96678293 
   47500    294.94205   -1058.4973    142494.35   -40874.518    4050.3188   -44924.836    511.64231   0.96738233 
   47600    295.97372   -873.34792    142651.67    -40838.85    4064.4863   -44903.336    512.46713   0.96631549 
   47700    291.15441   -850.40458    142536.19   -40961.911    3998.3047   -44960.215     512.2108   0.96709834 
   47800    290.94456   -1045.3408    142613.34   -40984.482    3995.4229   -44979.905    513.11567   0.96657522 
   47900    290.90836   -757.62039    142671.99    -40948.05    3994.9258   -44942.976    514.65956   0.96617784 
   48000    295.20846   -1114.9868    142881.12   -40984.928    4053.9774   -45038.905    515.88497   0.96476367 
   48100    290.80681   -1179.9548    142774.11   -40973.578    3993.5313    -44967.11    517.10579   0.96548681 
   48200    292.10103   -1182.8581    142770.84   -40971.092    4011.3042   -44982.396    518.97424    0.9655089 
   48300    294.19424   -925.00757    142542.41    -40942.56    4040.0494    -44982.61    519.91011   0.96705617 
   48400    292.43843    -985.0402    142982.91   -40877.952    4015.9376    -44893.89    521.91766   0.96407688 
   48500    294.69332   -984.79176    142990.37   -40978.236     4046.903   -45025.139    522.94059    0.9640266 
   48600    293.74167   -1178.5907    142826.75   -40968.115    4033.8344   -45001.949    523.51393   0.96513093 
   48700    292.33457   -844.49361    142667.96   -41077.456    4014.5113   -45091.967    524.44059   0.96620516 
   48800    294.74313   -995.06146    142690.48   -41035.544    4047.5872   -45083.132    525.01806   0.96605264 
   48900    292.70399   -1064.1587    142838.38   -40973.499    4019.5845   -44993.084      525.996   0.96505236 
   49000     289.5063   -1029.9911    142642.13   -40959.865    3975.6718   -44935.537    526.04617   0.96638009 
   49100    292.81648   -1087.8616    142450.11   -41042.399    4021.1292   -45063.528    526.15914   0.96768279 
   49200    289.27852   -935.27881    142810.89   -41092.353    3972.5439   -45064.897     527.0825   0.96523816 
   49300    293.32656   -706.96826    142778.92   -41067.526    4028.1339    -45095.66    527.20383   0.96545424 
   49400    285.70426   -857.43315     142887.2   -41080.867      3923.46   -45004.327      529.079   0.96472262 
   49500    289.24009   -1166.7446    142939.57   -41075.002    3972.0161   -45047.018    529.97543   0.96436921 
   49600    290.79074   -1016.1529    142998.12   -41064.894    3993.3106   -45058.204    531.46056   0.96397435 
   49700    290.58353    -1046.882    143378.42   -41066.078    3990.4651   -45056.543    533.39713   0.96141746 
   49800    294.33536   -971.32876    143746.11    -41000.65    4041.9873   -45042.637    535.55127   0.95895826 
   49900    289.54631   -1070.2299    143667.74   -41044.963    3976.2213   -45021.185    536.09835   0.95948132 
   50000    293.12849   -1139.7294    143692.23   -41085.985    4025.4139   -45111.399    537.89615   0.95931783 
   50100    292.07001   -1043.9475       143157   -41102.053    4010.8782   -45112.932    537.42959    0.9629045 
   50200    289.78178   -961.37674    143159.94   -41083.084     3979.455   -45062.539    538.06789    0.9628847 
   50300    291.87315   -940.21938    143288.99   -41036.621    4008.1748   -45044.795    539.26796   0.96201753 
   50400    292.06771   -1355.0943    143248.91    -41070.45    4010.8466   -45081.297    540.08492   0.96228669 
   50500    284.85003   -977.08993     143196.5   -41080.702    3911.7291   -44992.431    541.04511   0.96263884 
   50600    290.13552   -1278.5397    143209.56    -41052.47    3984.3126   -45036.783    541.72052   0.96255105 
   50700    291.25456   -1130.4766    142935.39    -40912.11      3999.68    -44911.79    541.70245   0.96439741 
   50800     296.0333   -1076.4045    143047.28   -40903.329    4065.3046   -44968.634    542.06493   0.96364302 
   50900    297.73213   -802.41105    142885.35   -40925.282    4088.6339   -45013.916    542.36368   0.96473515 
   51000    288.35915   -1134.8013    142598.63    -40991.02    3959.9185   -44950.939    542.17787   0.96667488 
   51100    288.98415   -607.88649    142713.92   -40969.702    3968.5013   -44938.203    543.76254   0.96589401 
   51200    291.32851   -967.23389    142805.54   -40833.082    4000.6955   -44833.777    545.04095   0.96527432 
   51300    294.64034   -889.03362       142842   -40845.758    4046.1756   -44891.934      546.071   0.96502794 
   51400    284.91183   -751.14951    142983.07   -41032.904    3912.5779   -44945.482    546.65518   0.96407583 
   51500    289.08332   -1230.8185    142921.58   -41080.034    3969.8632   -45049.898    547.71313   0.96449056 
   51600     289.4192   -970.12789    142537.01   -41024.448    3974.4758   -44998.924    547.91378   0.96709279 
   51700    287.70042   -1038.6721    142314.97   -41011.823    3950.8724   -44962.695    548.37784   0.96860164 
   51800    289.34198   -805.84124    142117.82     -41071.8    3973.4153   -45045.215     549.4717   0.96994535 
   51900    286.59628   -982.18831    142278.84   -41142.669    3935.7097   -45078.379    551.45918    0.9688476 
   52000    294.92152   -1036.7181    142430.21   -41075.954    4050.0369   -45125.991    552.61497   0.96781796 
   52100    292.57725   -997.58906    142700.58   -41100.173     4017.844   -45118.017     554.9994   0.96598425 
   52200    289.52288   -1015.5203    142375.09   -41111.967    3975.8995   -45087.866     555.0711   0.96819265 
   52300    293.53501   -1022.6173     142685.2   -41069.456    4030.9965   -45100.453    556.69848   0.96608843 
   52400    293.78027   -1160.8684    142987.47   -40982.618    4034.3646   -45016.982     558.1574   0.96404613 
   52500    294.94397    -1157.866    143095.43    -40984.71    4050.3452   -45035.055    559.42329   0.96331876 
   52600    285.66588   -959.57323    142954.28   -41087.497    3922.9329    -45010.43    559.89078   0.96426997 
   52700    286.48611   -862.08576    142947.26   -41103.568    3934.1968   -45037.765     561.6384   0.96431728 
   52800    287.96637   -873.43057    143002.14   -41114.522    3954.5246   -45069.047     562.4114   0.96394721 
   52900    283.57432   -1206.0033    142773.72   -41162.016    3894.2104   -45056.227    563.25568   0.96548945 
   53000    287.24676   -946.52294    142789.54   -41178.659    3944.6425   -45123.302     563.7159   0.96538248 
   53100    286.82811   -1089.5946    142599.32   -41203.411    3938.8934   -45142.304     563.9656   0.96667022 
   53200    289.47643   -890.41964    142516.03   -41017.388    3975.2617   -44992.649    564.52542   0.96723515 
   53300    288.45529   -983.09423    142846.62   -41020.431    3961.2387    -44981.67     566.3503   0.96499668 
   53400     292.0374   -1028.4559    142602.36   -40918.142    4010.4304   -44928.572    566.73025    0.9666496 
   53500    295.06962   -1097.6817    142147.35   -40918.356    4052.0706   -44970.427    566.68671   0.96974385 
   53600    297.30627    -1093.705    142101.08   -40940.914    4082.7857   -45023.699    567.87362   0.97005962 
   53700     289.5775   -898.26479    142353.48   -40956.944    3976.6497   -44933.593    570.16393   0.96833964 
   53800    286.40264   -1239.2866    142347.14   -41006.893    3933.0505   -44939.943    570.95886   0.96838279 
   53900    297.86451   -692.10749    142271.63   -40972.251    4090.4518   -45062.702     571.8715   0.96889673 
   54000    292.65443   -968.47662    142456.11   -41033.855    4018.9039   -45052.759    573.42226   0.96764199 
   54100    294.77774   -931.21971    142502.27   -41022.284    4048.0625   -45070.346      574.603   0.96732857 
   54200    288.04484   -1019.3033    142723.35   -41013.347    3955.6022   -44968.949    576.89107   0.96583014 
   54300    297.85927   -1002.5834    142822.48   -40948.278    4090.3798   -45038.658    577.29688   0.96515982 
   54400    288.71654   -1217.4783    142785.72   -41053.922    3964.8264   -45018.748    577.62642    0.9654083 
   54500    294.66076   -1114.2315    142857.25   -41003.981    4046.4559   -45050.437    577.73721   0.96492489 
   54600    288.34719   -868.64208    143044.73   -41030.804    3959.7543   -44990.559    580.41637   0.96366021 
   54700    293.60906   -1114.1734    143140.11   -40994.581    4032.0133   -45026.594    582.44132   0.96301812 
   54800    294.38566   -1014.8152    142664.95    -41014.29    4042.6782   -45056.969    582.05678   0.96622555 
   54900    295.01707   -1009.0939    142859.43   -40944.947     4051.349   -44996.296    582.95276   0.96491017 
   55000    297.07471   -946.63574    142849.34   -40877.089    4079.6057   -44956.695    584.56319    0.9649783 
   55100    295.04896   -1178.0978    143177.49   -40864.274     4051.787   -44916.061    586.08557   0.96276668 
   55200    293.97556   -932.35473    142930.94   -40957.174    4037.0464   -44994.221    586.30798   0.96442744 
   55300    296.12849    -974.5872    142955.63   -40924.386    4066.6117   -44990.997    586.61338   0.96426081 
   55400    293.16461   -1032.2342    142700.91   -40868.573    4025.9099   -44894.483    586.69373   0.96598206 
   55500    294.71726    -1078.694    142557.11   -40912.434    4047.2318   -44959.666    587.06795   0.96695646 
   55600    291.21357   -715.27628    142592.11   -40873.314    3999.1172   -44872.431    588.26924   0.96671911 
   55700      296.229   -1017.3051    142687.07   -40904.316    4067.9919   -44972.308    589.84752   0.96607576 
   55800    290.56712    -1110.161    142634.06   -40999.021    3990.2397    -44989.26    590.56502   0.96643477 
   55900    284.90159   -979.10993    142318.97    -41106.06    3912.4372   -45018.497    589.90558   0.96857445 
   56000    288.72319   -912.75198    142300.59   -41144.043    3964.9177    -45108.96    590.98964   0.96869952 
   56100    294.82436   -900.08921    142492.81   -41077.727    4048.7026    -45126.43    593.10293   0.96739276 
   56200    292.25831   -888.62691     142504.1   -41023.513    4013.4641   -45036.977    593.87481   0.96731618 
   56300    289.20983   -1080.8094    142528.18   -40921.303    3971.6006   -44892.903    594.70214   0.96715269 
   56400    297.32476   -1044.5579    142153.15   -40849.005    4083.0396   -44932.044    595.14184   0.96970424 
   56500    296.22371   -1200.0028    141957.52   -40930.339    4067.9194   -44998.259    596.65874   0.97104059 
   56600    298.37934   -779.68305    142392.44   -40832.573    4097.5217   -44930.094    599.26399   0.96807467 
   56700      290.892   -1086.8506    142361.98   -40868.961    3994.7011   -44863.662    600.21362    0.9682818 
   56800    295.12924    -948.7431    142222.51    -40855.17    4052.8894   -44908.059    601.21189   0.96923133 
   56900    290.81291   -1070.9511    142085.75    -40923.83    3993.6149   -44917.445    602.30633   0.97016428 
   57000    295.29134   -821.51202    142403.61   -40979.362    4055.1155   -45034.477    604.05435   0.96799876 
   57100    285.68313   -992.19539     142540.9   -41091.265    3923.1698   -45014.435    604.54492   0.96706642 
   57200    289.64634   -860.39074    142691.02   -41134.668     3977.595   -45112.263    606.93511   0.96604898 
   57300    286.53429   -1262.6679    142464.07   -41086.911    3934.8584   -45021.769    607.71107   0.96758793 
   57400     289.2757   -924.88974    142522.85   -41094.595    3972.5051     -45067.1    607.69573   0.96718886 
   57500    289.68328   -1128.0123    142439.57     -41012.5    3978.1023   -44990.602    608.16171    0.9677544 
   57600    286.87411    -1109.406    142494.79     -41099.8     3939.525   -45039.326    609.01076   0.96737932 
   57700    295.79501   -1080.3331    142567.28   -41075.416    4062.0321   -45137.448    611.22919   0.96688749 
   57800    296.46068   -857.29446    142436.36   -41026.973    4071.1736   -45098.146    612.03531   0.96777617 
   57900    290.66532   -1137.6436    142804.87   -41083.631    3991.5882   -45075.219    613.30193   0.96527884 
   58000    286.42243   -1170.7799    142760.49   -41073.365    3933.3224   -45006.688    613.85324   0.96557891 
   58100    291.86919   -1306.8825    142626.82   -40965.461    4008.1205   -44973.582    614.26252   0.96648384 
   58200    292.86468   -998.38085    142726.27   -41015.193    4021.7911   -45036.984    615.61508   0.96581041 
   58300    294.87715   -1285.2832     142462.2    -41067.78    4049.4276   -45117.208     615.6534   0.96760065 
   58400    289.05878   -963.46833    142398.41   -41033.215    3969.5263   -45002.741    616.37016   0.96803412 
   58500    294.15519   -764.31219    142648.42   -40920.765    4039.5131   -44960.278    618.36166   0.96633749 
   58600    293.65342   -924.96274    142618.42   -41004.567    4032.6226   -45037.189    618.64723   0.96654075 
   58700    290.32899    -1254.368    142628.19   -40934.304    3986.9695   -44921.274    620.53634   0.96647452 
   58800    294.22662   -1272.3072    142426.17   -40907.178    4040.4941   -44947.672    621.38409   0.96784546 
   58900    289.68594   -1069.1823    142311.62   -40873.728    3978.1388   -44851.867    622.32185    0.9686245 
   59000    286.02767   -792.57147    142215.22   -40933.522    3927.9012   -44861.423    623.31874   0.96928101 
   59100    289.52205   -936.41921    142338.08   -40902.266    3975.8882   -44878.155    625.18183   0.96844442 
   59200    289.83027   -1068.6119    142606.47   -40926.869    3980.1208    -44906.99    626.38967   0.96662179 
   59300    292.53723   -1089.5065     142389.3   -40950.487    4017.2944   -44967.781    626.86535   0.96809602 
   59400    286.45397   -883.61854    142342.44   -40916.983    3933.7555   -44850.739    628.50842   0.96841476 
   59500    294.43941    -1129.751    142395.34   -40954.547    4043.4162   -44997.963    630.63754     0.968055 
   59600    296.25995   -943.49726    142220.98   -40840.855    4068.4169   -44909.272    631.12845    0.9692418 
   59700    293.94321   -949.93827    142174.94   -40873.882    4036.6022   -44910.485    632.58539   0.96955562 
   59800    294.71737   -995.83788    142313.15   -40912.605    4047.2333   -44959.839    633.71904   0.96861406 
   59900    290.85774   -923.28449    142408.94   -40922.373    3994.2306   -44916.603    634.96614   0.96796253 
   60000    293.41515   -867.78246    142469.23   -40924.084    4029.3505   -44953.434    636.31182   0.96755287 
   60100    291.40096   -1121.6082    142789.21   -40955.128    4001.6905   -44956.819    638.33243   0.96538469 
   60200    289.14681   -1032.5285    142542.84   -41029.409    3970.7352   -45000.144     639.1369   0.96705323 
   60300    288.68254   -1018.0211    142297.77   -40989.976    3964.3595   -44954.335     639.8626   0.96871877 
   60400    294.70637   -1009.1245    142804.27   -40975.737    4047.0823   -45022.819    642.61655   0.96528287 
   60500    289.29125   -1010.0575    142539.06   -41023.256    3972.7187   -44995.975    642.62024   0.96707892 
   60600    292.46695   -1010.1555    142533.82   -40944.815    4016.3293   -44961.144    643.01866   0.96711445 
   60700    291.62982   -1008.3802    142458.38   -40997.388    4004.8333   -45002.221    644.56894   0.96762656 
   60800    287.96041    -1077.421    142361.94   -41003.819    3954.4428   -44958.262     644.3591   0.96828211 
   60900    291.35973   -935.07314    142307.63   -40921.441    4001.1243   -44922.565    646.01671   0.96865159 
   61000    292.27733    -1094.231    142489.46   -40884.459    4013.7253   -44898.185    647.53278    0.9674155 
   61100    294.00562   -974.67293    142302.73   -40822.499    4037.4592   -44859.958    647.13034   0.96868498 
   61200     298.0562   -1013.5801    142287.43   -40930.814    4093.0842   -45023.898     648.6542   0.96878915 
   61300    293.39017   -723.81697    142694.05   -40853.011    4029.0075   -44882.018     651.2984   0.96602848 
   61400    295.60214   -1047.3852    143050.53   -40734.662    4059.3836   -44794.046    653.90542   0.96362116 
   61500    298.59656   -1140.6891    143231.98   -40718.543    4100.5047   -44819.048    655.39873   0.96240041 
   61600    291.36295   -965.07254     142946.1   -40838.376    4001.1685   -44839.545    656.19025   0.96432516 
   61700    292.66644   -951.97554     143213.1   -40816.649    4019.0688   -44835.718    658.71295   0.96252728 
   61800    293.21583   -1100.4766    142940.19   -40887.467    4026.6133    -44914.08     659.4546   0.96436499 
   61900    291.28892   -920.19787    142822.35   -40839.502    4000.1518   -44839.654    660.27118   0.96516069 
   62000    294.42856    -1104.923    142611.72   -40936.874    4043.2672   -44980.141    661.30676   0.96658619 
   62100    292.21676   -944.75424    142727.72   -40928.268    4012.8936   -44941.162    661.59342   0.96580057 
   62200      292.008   -1008.1827    142453.93   -40964.169    4010.0267   -44974.196    662.08323   0.96765685 
   62300    294.09999   -904.02967    142493.05   -41009.227    4038.7551   -45047.982    662.44079   0.96739119 
   62400      293.528   -1014.0556    142426.42   -41053.761    4030.9003   -45084.662    663.28082   0.96784373 
   62500    293.04831   -1115.3562    142576.73   -41013.454    4024.3128   -45037.767    665.26235    0.9668234 
   62600     294.8179    -900.8993    142385.54   -40962.016    4048.6139    -45010.63    666.19926    0.9681216 
   62700    286.46182   -818.93088    142625.41   -40972.515    3933.8632   -44906.378    668.29793   0.96649341 
   62800    293.97206   -972.63244    142767.85   -40979.012    4036.9983    -45016.01    670.32323   0.96552909 
   62900    292.94455   -826.02503    142874.88   -40969.475    4022.8879   -44992.363    672.96368   0.96480585 
   63000    291.92056   -1135.8673    142900.97   -40957.238    4008.8259   -44966.063    673.38044   0.96462965 
   63100    295.80526   -965.79397     142653.3   -40979.601    4062.1729   -45041.774    673.68215   0.96630444 
   63200    291.56083   -963.58923    142645.63   -41030.013    4003.8858   -45033.898    675.15954   0.96635642 
   63300     295.3977   -859.07731    142537.05   -41123.178     4056.576   -45179.754    676.41826   0.96709252 
   63400    286.55032   -826.59574    142661.45   -41198.581    3935.0785    -45133.66    678.32806   0.96624926 
   63500    293.39537   -874.89417    142839.41   -41055.016    4029.0789   -45084.095    680.51444   0.96504543 
   63600    287.89619   -1175.7051    142567.85   -41066.018    3953.5608   -45019.579    680.02286    0.9668836 
   63700    290.40397   -902.19227    142740.49   -41119.589    3987.9992   -45107.588     682.5267   0.96571418 
   63800    295.24742   -1132.8004    142397.61   -41100.515    4054.5123   -45155.027    682.62601   0.96803951 
   63900    293.01645   -1129.0184    142276.46    -41046.56    4023.8754   -45070.435    683.35511   0.96886381 
   64000    287.06158   -1112.5519    142459.43   -41115.745    3942.0995   -45057.844    684.59434   0.96761943 
   64100    290.09069    -873.7362    141973.18   -41089.253     3983.697    -45072.95    683.93232   0.97093353 
   64200     288.5366   -675.34501    141981.96   -41097.506    3962.3553   -45059.861    685.10371   0.97087346 
   64300    291.15987   -1062.9568    141994.47   -41096.449    3998.3797   -45094.829    686.15607   0.97078795 
   64400    294.89466   -986.81868    142330.27    -41095.79     4049.668   -45145.458    688.35533   0.96849752 
   64500    286.05641   -747.94076    142473.09   -41149.758     3928.296   -45078.054    689.88411   0.96752667 
   64600    288.62801   -1029.8798    142572.84   -41077.699    3963.6107    -45041.31    689.67533   0.96684979 
   64700    294.82901    -1250.435    142394.23    -40990.58    4048.7665   -45039.346    689.49174   0.96806251 
   64800    294.51848   -834.18731    142490.68   -40878.711    4044.5021   -44923.213    691.12575   0.96740725 
   64900    292.44932   -977.53919     142572.7   -40900.306    4016.0872   -44916.394    692.30469   0.96685071 
   65000    294.37236   -1035.2849    142605.29   -40933.589    4042.4955   -44976.085    693.25556   0.96662976 
   65100    287.79963   -1083.8141    142573.73   -41041.509    3952.2349   -44993.744    694.09391   0.96684372 
   65200    293.30348   -1046.5666    142737.25   -40979.053    4027.8169    -45006.87    695.06018   0.96573609 
   65300    291.18106   -1115.6474    142673.48   -41047.534    3998.6707   -45046.205    695.19158   0.96616776 
   65400    287.52164   -1118.0839    142785.05   -41110.419    3948.4173   -45058.836    695.50713   0.96541282 
   65500    296.10515   -1324.7551    142201.52   -40999.624    4066.2912   -45065.915    693.95253   0.96937442 
   65600    297.69767   -1130.6618    142179.62   -40930.605    4088.1606   -45018.766    694.84306   0.96952372 
   65700    296.86197   -1259.9058    142428.59   -40895.613    4076.6843   -44972.298    697.35666   0.96782899 
   65800    291.55567   -996.01909    142104.91   -40944.991     4003.815   -44948.806    697.55797   0.97003342 
   65900    296.05787    -1006.213    142317.58   -40938.481    4065.6419   -45004.123    699.47316   0.96858388 
   66000    294.95855   -1130.8416     142512.7   -40952.231    4050.5454   -45002.777    701.91171   0.96725776 
   66100    295.04763   -802.77434    142376.99    -40935.75    4051.7687   -44987.519    702.69844   0.96817971 
   66200     298.9395   -934.21851    142612.29   -40869.972    4105.2141   -44975.186    704.21868   0.96658231 
[...]
   84600     289.3524    -1156.468     142669.9   -41048.756    3973.5584   -45022.315    906.25178   0.96619202 
   84700    292.10922   -822.25015    142299.77   -41086.622    4011.4167   -45098.038    905.78069   0.96870515 
   84800    289.15674   -1115.7758     142314.9   -41047.634    3970.8715   -45018.505    906.59564   0.96860211 
   84900    297.28427   -1008.3437    142391.34   -41010.983    4082.4835   -45093.467    907.54495   0.96808214 
   85000    295.30537   -1022.6435    142514.05   -41037.966    4055.3081   -45093.274    909.09919   0.96724863 
   85100    293.23184   -1264.1362    142468.28   -41034.167    4026.8332   -45061.001    909.03997   0.96755939 
   85200    292.54869   -832.48286    142370.58   -40999.658    4017.4518    -45017.11    910.19076   0.96822333 
   85300    296.12173   -790.29087     142815.7   -40985.205    4066.5188   -45051.724    913.24243   0.96520564 
   85400    292.16989   -842.68789    143152.63    -40980.42    4012.2499   -44992.669    916.04212   0.96293389 
   85500    289.61383   -1038.5038    142890.94   -40942.076    3977.1485   -44919.224    915.60584   0.96469736 
   85600    289.91605   -988.14142    142974.64   -40937.561    3981.2988    -44918.86    917.97356   0.96413264 
   85700    291.36795   -1162.2254    143136.63   -40904.771    4001.2371   -44906.008    919.64624    0.9630415 
   85800    291.08617    -1035.765    143070.14    -40879.07    3997.3675   -44876.438     919.4649   0.96348904 
   85900     296.1892    -917.6658     143443.3   -40911.681    4067.4454   -44979.127    921.45548   0.96098262 
   86000    293.54118   -1301.0977    143418.32    -40964.95    4031.0812   -44996.031    922.70907   0.96114998 
   86100    294.62622    -1096.438    143054.29   -40930.345    4045.9817   -44976.327    922.61635   0.96359581 
   86200    294.87969   -1028.6699    143105.99   -40985.325    4049.4624   -45034.787     923.7055   0.96324768 
   86300    286.89489   -1017.3065    143091.21   -41016.983    3939.8104   -44956.794     924.5816   0.96334717 
   86400    288.25303   -841.65248    143497.59   -40985.319    3958.4612   -44943.781    928.70232   0.96061903 
   86500    296.85862   -862.64266    143496.71   -40886.721    4076.6383    -44963.36    930.05547   0.96062489 
   86600    289.21048   -1102.1702    143690.42   -40942.336    3971.6095   -44913.946    932.51506    0.9593299 
   86700    289.97913   -1101.2982    143262.06   -40953.712    3982.1651   -44935.877    931.93264   0.96219832 
   86800     291.9363   -1002.0385    143294.34   -40887.657    4009.0421   -44896.699    932.56177   0.96198162 
   86900    295.27502   -988.84665    143375.09   -40905.325    4054.8914   -44960.216    933.66861   0.96143978 
   87000    294.98116   -1020.9236    143478.35   -40921.019    4050.8559   -44971.875    935.09534   0.96074788 
   87100    295.78243   -1349.8116    143193.61   -40949.161    4061.8593    -45011.02    934.58967   0.96265827 
   87200     294.4063    -904.4847    143185.32   -40924.919    4042.9615   -44967.881    934.98022     0.962714 
   87300    298.56195   -1165.1255    143437.41   -40851.071    4100.0295     -44951.1    937.09019   0.96102208 
   87400    289.63684   -971.19965    143188.86   -40911.475    3977.4645   -44888.939    936.52457   0.96269021 
   87500    293.16024   -860.48518    143225.31   -40972.579      4025.85   -44998.429    937.66491    0.9624452 
   87600    289.40061   -871.20853     143446.3   -40968.512    3974.2205   -44942.733    938.81538   0.96096251 
   87700    294.36427   -1246.7856    143337.03   -40930.238    4042.3843   -44972.622    939.21168   0.96169508 
   87800    297.69374   -895.86848    143043.06   -40862.168    4088.1067   -44950.275    939.52207   0.96367148 
   87900    298.19439   -1089.4363     143028.6   -40891.141    4094.9819   -44986.123    940.87017    0.9637689 
   88000    289.61985   -1222.0473    142654.83   -40923.783    3977.2312   -44901.014    940.93897   0.96629406 
   88100    293.62591   -864.94988    142357.03   -40945.388    4032.2448   -44977.633    941.58277   0.96831548 
   88200    296.09605   -1114.4257    142599.14   -40868.703    4066.1662   -44934.869    943.52442   0.96667142 
   88300    293.56074   -899.06647    142711.54   -40900.204    4031.3498   -44931.554    944.67653    0.9659101 
   88400      296.616   -929.86693    142869.68   -40959.472    4073.3065   -45032.779    946.82892   0.96484097 
   88500    299.15029   -988.48538    143079.67   -41007.737    4108.1089   -45115.846    949.12216   0.96342489 
   88600    292.78526   -978.36614     142713.4   -40993.549    4020.7005   -45014.249    948.57154   0.96589753 
   88700    293.11289   -870.86503    142713.77   -41000.663    4025.1997   -45025.862    949.10923     0.965895 
   88800     291.8215   -964.09652    142658.55   -40949.952    4007.4656   -44957.418    949.90705   0.96626886 
   88900    291.69379   -913.34745    142563.61   -40989.939    4005.7117   -44995.651    949.57833   0.96691233 
   89000    294.08616   -969.20505     142787.1    -40897.73    4038.5652   -44936.295    950.77228   0.96539896 
   89100    297.95306   -990.04614    142987.98   -40887.312    4091.6677    -44978.98    952.92709   0.96404266 
   89200    287.88299   -952.43912    142815.05   -41045.141    3953.3797   -44998.521    953.43488   0.96521002 
   89300    289.26653   -685.40585    142749.57   -41011.928    3972.3792   -44984.307    955.08892   0.96565276 
   89400    293.58387   -1149.5323    142778.62   -40994.787    4031.6675   -45026.455    957.24981   0.96545627 
   89500    288.35269   -1145.3298    142772.05   -41048.821    3959.8299   -45008.651    959.37373   0.96550075 
   89600    292.49674   -1531.5758    142684.63   -40979.807    4016.7383   -44996.545    959.71738   0.96609225 
   89700    290.72791   -699.52125    142735.08   -40951.891    3992.4477   -44944.338    962.87822   0.96575082 
   89800    290.39328   -763.80802     142767.1   -40920.777    3987.8524   -44908.629    965.24917    0.9655342 
   89900    291.06223   -1036.3704    142757.86   -40956.998    3997.0388   -44954.037    967.18618   0.96559672 
   90000    292.53994   -702.27267    142766.48   -40946.183    4017.3316   -44963.515    967.27664    0.9655384 
   90100    293.46799   -1189.7165    142651.75   -40938.481    4030.0761   -44968.557    968.24707   0.96631491 
   90200    289.18226   -1019.9741    142559.44   -41097.166    3971.2219   -45068.387    969.13702   0.96694065 
   90300     289.9826   -998.22706     142506.8   -41080.797    3982.2127    -45063.01    970.32113   0.96729784 
   90400    288.91456   -1164.3446    142512.05   -41009.107    3967.5457   -44976.653    970.73501   0.96726219 
   90500    289.91417   -907.73445    142276.02   -40944.704     3981.273   -44925.977      971.295   0.96886684 
   90600     292.0922   -1161.5302    142333.71   -40942.289     4011.183   -44953.472    971.84001   0.96847414 
   90700    288.49177   -1024.0986    142425.18   -40940.144    3961.7397   -44901.883    972.69713   0.96785214 
   90800    292.44093   -968.85845    142422.78   -40918.599    4015.9719   -44934.571    974.33638   0.96786844 
   90900    285.42845   -997.80631    142637.65   -41002.732    3919.6725   -44922.404    976.69583   0.96641046 
   91000    291.60752   -854.90682    142356.05   -40972.347    4004.5271   -44976.874    976.78314   0.96832216 
   91100    296.97931   -1213.8246    142599.64   -40928.303    4078.2957   -45006.599    978.45267   0.96666804 
   91200    291.86629   -1149.6657     142411.5   -40971.392    4008.0807   -44979.473     978.9094   0.96794512 
   91300    293.39227   -820.47396    142259.25   -41009.826    4029.0363   -45038.862    979.76944   0.96898101 
   91400    292.59965   -1213.9543    142129.92   -41020.896    4018.1516   -45039.047    981.55074   0.96986273 
   91500    286.92955   -946.82589    141985.39   -41025.241    3940.2864   -44965.527    982.97293   0.97085001 
   91600    289.79102   -886.40385    142296.81   -40977.539    3979.5819   -44957.121     984.8114   0.96872529 
   91700     285.1903   -1261.9837    142359.03   -41088.269     3916.402   -45004.671    986.11236   0.96830189 
   91800    287.95152   -891.75276     142475.5   -41116.858    3954.3207   -45071.179    987.99822   0.96751035 
   91900    295.49795   -1053.7393    142638.26   -41084.938    4057.9527   -45142.891    989.94265   0.96640633 
   92000    292.18254   -909.35201    142706.73   -40989.114    4012.4235   -45001.537    991.03888   0.96594268 
   92100    290.41848   -923.05292    142708.15   -40903.191    3988.1985   -44891.389    992.35647   0.96593304 
   92200    291.59558   -1223.2438    142778.24   -40858.587    4004.3631    -44862.95    993.80215   0.96545884 
   92300    294.05656   -1026.7703    143004.73   -40897.473    4038.1587   -44935.632    996.23549   0.96392978 
   92400    293.47913   -727.73029    143278.55   -40873.224    4030.2292   -44903.453    998.78046   0.96208762 
   92500    296.49634   -1079.7984    142853.69   -40873.558    4071.6632   -44945.221    998.31223   0.96494895 
   92600    297.20397   -850.17052    143095.04   -40891.299    4081.3809    -44972.68    1001.1018   0.96332143 
   92700    291.22102   -1007.3772    143383.03   -40966.196    3999.2195   -44965.416    1004.2374   0.96138654 
   92800    284.46613   -801.01857    143521.38   -41000.457    3906.4573   -44906.915    1005.8786   0.96045979 
   92900    293.85739   -835.37064    143601.33   -40918.338    4035.4236   -44953.762    1007.4499   0.95992507 
   93000    292.09856   -1045.2013     143911.6   -40881.698    4011.2704   -44892.969    1010.2968    0.9578555 
   93100    296.33553   -851.35252    143803.87    -40904.53    4069.4548   -44973.985    1010.6463   0.95857305 
   93200    296.75859   -1150.5095    143692.93   -40833.531    4075.2647   -44908.796    1010.8523   0.95931317 
   93300    294.25616   -1022.5792    143579.17   -40826.171    4040.8997    -44867.07    1011.9384   0.96007324 
   93400    290.63586   -1101.9176    143168.27   -40984.394    3991.1836   -44975.578    1011.8246   0.96282866 
   93500    296.92777   -712.08028    143456.14   -40979.469    4077.5878   -45057.057    1014.1367   0.96089657 
   93600    292.24601   -1149.0176    143467.88   -41049.556    4013.2952   -45062.851    1014.7351   0.96081796 
   93700    291.20447   -876.29514    143443.42   -41040.175    3998.9921   -45039.168    1016.3385   0.96098179 
   93800    293.89592   -1001.8616    143148.07   -40943.203    4035.9527   -44979.156     1017.224   0.96296453 
   93900    293.02161   -867.43605    142914.75   -41013.628    4023.9462   -45037.574    1017.3839   0.96453666 
   94000    285.93484   -1042.9053    143053.65   -41092.299    3926.6265   -45018.926    1019.4796   0.96360011 
   94100    289.49839   -898.20376    143374.08   -41078.164    3975.5633   -45053.727    1022.3345   0.96144655 
   94200    287.33161   -1006.5778    143446.33   -41084.698    3945.8077   -45030.506    1023.1623   0.96096233 
   94300    286.18293   -1170.9465    143192.48    -41028.35    3930.0334   -44958.383    1022.3956   0.96266587 
   94400     288.2167   -1063.3408    142974.18   -41036.488    3957.9623   -44994.451     1022.754   0.96413571 
   94500    290.32398   -1097.3334    142673.61   -41085.926    3986.9007   -45072.827    1021.8143    0.9661669 
   94600    285.27252   -893.17083    142893.72   -41147.206    3917.5311   -45064.737    1023.2125   0.96467863 
   94700    295.45047   -1077.1774    142773.29   -41024.514    4057.3007   -45081.814    1023.2444   0.96549236 
   94800    292.89514   -868.85813    142983.28   -41007.358    4022.2095   -45029.568    1026.8278   0.96407439 
   94900    292.07095   -1198.7865    143048.22   -41037.115    4010.8912   -45048.006    1026.6568    0.9636367 
   95000    294.96476    -1001.089    143080.23   -40992.492    4050.6307   -45043.123    1027.3429   0.96342114 
   95100    296.28069   -993.88523    142930.43   -40904.122    4068.7018   -44972.824    1026.5245   0.96443084 
   95200    285.26231   -1159.7451    142839.73   -40969.895    3917.3908   -44887.285    1027.1356   0.96504323 
   95300    291.28805   -859.14713     142639.5   -40948.494      4000.14   -44948.634    1027.2884   0.96639794 
   95400    289.20798   -843.64987    142626.58   -40974.369    3971.5752   -44945.944    1028.4213   0.96648544 
   95500    288.95474   -1041.3078    142679.68    -40968.73    3968.0975   -44936.827    1030.3751   0.96612581 
   95600    285.17483   -1092.2721    142528.21   -41050.907    3916.1895   -44967.096    1030.8077   0.96715252 
   95700    291.34507   -1112.9544    142562.62   -40987.993     4000.923   -44988.916    1032.3677   0.96691911 
   95800    288.42056   -1015.4039    142603.21   -40941.299    3960.7619   -44902.061    1031.9384   0.96664386 
   95900    294.87845   -1170.1206    143029.88   -40920.834    4049.4454   -44970.279    1034.7102   0.96376028 
   96000    291.44254   -719.77246    143028.23    -40870.71    4002.2614   -44872.972    1035.9856    0.9637714 
   96100    297.03622   -1262.6475    143096.81   -40843.827    4079.0772   -44922.904    1036.1926   0.96330953 
   96200     296.4866   -1195.2386    142870.79   -40871.846    4071.5295   -44943.376    1034.1819   0.96483346 
   96300     287.3014   -1298.1133     142717.5   -40902.549    3945.3928   -44847.942    1034.1483   0.96586973 
   96400    296.90967   -973.73022    142734.76   -40930.693    4077.3393   -45008.032    1035.1205   0.96575296 
   96500    294.19884   -1007.3355    142756.53   -40938.541    4040.1126   -44978.654    1035.7383   0.96560571 
   96600     297.3272   -879.41348    143178.17   -40839.443    4083.0731   -44922.516    1039.2604   0.96276208 
   96700    293.65677   -713.59084    143350.06   -40806.514    4032.6686   -44839.183    1041.8995   0.96160765 
   96800    296.36413   -806.23693    143654.85   -40768.455    4069.8476   -44838.303    1045.6892   0.95956742 
   96900    297.84117   -1109.0096    143674.42   -40834.458    4090.1312   -44924.589    1046.7089   0.95943675 
   97000    290.61744   -1005.5847    143571.68   -40853.425    3990.9306   -44844.355    1048.2239   0.96012329 
   97100    290.32476   -1058.0211    143228.59   -40889.459    3986.9115    -44876.37    1046.5635    0.9624232 
   97200    294.10866   -977.47662    143111.49   -40894.245    4038.8742   -44933.119    1047.8057   0.96321067 
   97300    287.84608   -1065.8553    142866.87   -40961.707    3952.8728    -44914.58    1047.6322   0.96485994 
   97400    295.49077   -768.00478    143080.91   -40938.566    4057.8541    -44996.42       1050.2   0.96341657 
   97500    292.36721    -1096.168    143136.78   -41002.659    4014.9595   -45017.619    1051.6164   0.96304052 
   97600    291.28348   -1070.0559    143133.03   -41025.247    4000.0771   -45025.324    1053.7989   0.96306576 
   97700    292.33368   -765.06261    143238.02   -40996.254    4014.4991   -45010.753    1055.8793   0.96235983 
   97800    295.84455   -1308.1564    143360.05   -40937.174    4062.7124   -44999.886    1057.7546   0.96154066 
   97900    294.45488   -1026.1551     143148.3   -40887.183    4043.6287   -44930.811    1058.2922   0.96296298 
   98000    293.13459   -763.95701    142985.68   -40882.817    4025.4977   -44908.315    1059.0379   0.96405819 
   98100    295.65735   -807.76233     143079.1   -40895.373    4060.1417   -44955.514    1059.5002   0.96342873 
   98200    293.50792   -1039.5121    142844.46   -40866.068    4030.6245   -44896.692    1060.2887   0.96501127 
   98300    296.99011   -1026.4292    142867.84   -40790.007    4078.4439   -44868.451    1062.0649   0.96485334 
   98400    295.40462   -960.60219    142728.04   -40855.345    4056.6711   -44912.016    1062.4285   0.96579846 
   98500    292.82121   -848.71791    142995.44   -40835.391    4021.1942   -44856.586    1066.1199   0.96399237 
   98600    290.85325   -931.82313    143243.16   -40904.017     3994.169   -44898.186    1068.1668   0.96232528 
   98700    290.27463   -984.50539    143754.97   -40844.909     3986.223   -44831.132     1070.509   0.95889914 
   98800    295.32015   -866.44494    143497.01   -40869.679     4055.511    -44925.19    1069.6044   0.96062289 
   98900    297.03002   -829.57428    143458.29   -40866.028     4078.992    -44945.02    1070.4306   0.96088221 
   99000    300.15233   -887.69633    143473.51   -40824.959    4121.8695   -44946.828    1071.1848   0.96078029 
   99100    293.67086   -1064.7177    143355.92   -40847.256    4032.8621   -44880.118    1071.2602   0.96156835 
   99200    297.67528   -1031.8156    143150.55   -40889.759    4087.8531   -44977.612    1071.5387   0.96294785 
   99300     292.4549   -973.76577     143148.8   -40884.257    4016.1638   -44900.421    1073.0853   0.96295962 
   99400    298.05908   -1018.3693    142937.59   -40830.869    4093.1237   -44923.992    1072.7213   0.96438257 
   99500    292.13173   -1133.7362    142850.03   -40879.068    4011.7259   -44890.794     1073.079   0.96497365 
   99600    289.07177   -801.49866    142792.42    -40980.23    3969.7047   -44949.935    1073.5963   0.96536299 
   99700    293.12765   -1086.2114    143034.76    -40920.24    4025.4024   -44945.642    1076.3815   0.96372737 
   99800    289.19138   -1187.3087    142737.51   -40928.783    3971.3472   -44900.131    1076.7329   0.96573433 
   99900    295.98355   -915.13484    142851.99   -40859.654    4064.6213   -44924.275    1078.1654    0.9649604 
  100000    293.84262    -1226.534    142759.42     -40911.9    4035.2208   -44947.121    1078.3541    0.9655861 
  100100    292.79533   -1082.9194    142504.12   -40937.073    4020.8387   -44957.912    1078.9688   0.96731604 
  100200    294.18468   -918.17945     142492.6   -40906.369    4039.9182   -44946.287    1079.5745   0.96739423 
  100300    294.05379   -790.84908     142427.7   -40937.775    4038.1208   -44975.895    1078.9165   0.96783504 
  100400    291.92425   -1009.8387    142471.24   -40913.294    4008.8765    -44922.17    1081.0677   0.96753924 
  100500    287.48586   -1102.1697    142722.93   -40964.138     3947.926   -44912.064    1083.5322   0.96583303 
  100600    293.28512   -936.68861     142651.3   -40975.366    4027.5649   -45002.931    1083.9337   0.96631795 
  100661    296.72657   -987.94415    142845.78   -40925.782    4074.8249   -45000.607    1086.0587   0.96500238 
Loop time of 112.605 on 6 procs for 100000 steps with 4608 atoms

Performance: 383.641 ns/day, 0.063 hours/ns, 888.058 timesteps/s
98.9% CPU use with 6 MPI tasks x no OpenMP threads

MPI task timing breakdown:
Section |  min time  |  avg time  |  max time  |%varavg| %total
---------------------------------------------------------------
Pair    | 93.007     | 93.984     | 94.664     |   5.2 | 83.46
Neigh   | 7.0371     | 7.1065     | 7.1935     |   1.9 |  6.31
Comm    | 7.986      | 8.6721     | 9.5584     |  16.8 |  7.70
Output  | 0.18283    | 0.18419    | 0.19023    |   0.6 |  0.16
Modify  | 1.8908     | 1.9773     | 2.0542     |   3.4 |  1.76
Other   |            | 0.6811     |            |       |  0.60

Nlocal:        768.000 ave         772 max         760 min
Histogram: 1 0 0 0 0 1 1 1 0 2
Nghost:        1556.83 ave        1571 max        1545 min
Histogram: 1 1 1 0 1 0 0 0 0 2
Neighs:        0.00000 ave           0 max           0 min
Histogram: 6 0 0 0 0 0 0 0 0 0
FullNghs:      21527.7 ave       21840 max       21160 min
Histogram: 1 0 0 1 0 2 0 0 0 2

Total # of neighbors = 129166
Ave neighs/atom = 28.030816
Neighbor list builds = 7067
Dangerous builds = 0

undump              1
unfix               2
unfix               3
unfix               4


################################################
#######         Run Simulation         #########
################################################

reset_timestep      0
log                 log.run_${NAME}
log                 log.run_liq_293K_-1000atm_ML
