LAMMPS data file via write_data, version 29 Oct 2020, timestep = 50000

1539 atoms
1 atom types

-0.008358521744373348 50.28180718533563 xlo xhi
-0.005303282143243493 31.90260411124755 ylo yhi
-0.005303282143243493 31.90260411124755 zlo zhi

Masses

1 18.015

Atoms # atomic

124 1 3.5495117541469363 30.45476559690983 15.732247417315874 0 -1 0
405 1 6.2361338450417 1.9588828641021432 2.9997628883930854 0 0 0
567 1 4.421630622115493 3.455386616577375 1.470815111825478 0 0 1
569 1 11.286118848722635 3.3338376613996266 1.6702293798139165 0 0 1
204 1 12.826584405690712 1.6789551708759012 3.2648265215703023 0 0 0
573 1 17.3832261237913 3.4003707074241163 1.8963132363869817 0 0 1
194 1 19.159698132250476 2.046988204079644 3.513096335087903 0 0 0
575 1 23.96296639052939 3.1663532760835253 1.692877713623642 0 0 1
574 1 22.212681877376678 1.6323219610995865 0.4740088693899504 0 0 1
134 1 23.764973876463728 29.269219539253008 14.237488962884036 0 -1 0
577 1 1.363768633510819 6.65061173636683 1.356723660304161 0 0 1
582 1 2.929443795958182 4.869544937446435 3.1324677600661848 0 0 0
560 1 8.21433753165386 6.33617866214152 1.5693585206340508 0 0 1
209 1 9.79132053679493 4.863897702214459 3.460231900720089 0 0 0
570 1 14.324180433949936 6.193356685832599 1.6647438192373143 0 0 1
545 1 20.83506797493523 6.2362494351248445 1.858126817372649 0 0 1
572 1 19.179686174141846 4.554913770759496 0.5132770783577598 0 0 1
197 1 22.273681736825846 4.5188608305865055 3.486246005180606 0 0 0
205 1 6.177265547290067 7.542020051560409 3.353656725657866 0 0 0
576 1 4.742888654947374 9.436052936870375 1.897957350857317 0 0 1
552 1 11.294821372588697 9.70755494017388 1.8103271310886433 0 0 1
4 1 12.873416058232873 7.676743404497484 3.293507285902246 0 0 0
549 1 17.42538884361894 9.666856217160092 1.8226670115509358 0 0 1
189 1 19.085129877046285 8.089910917694523 3.44095924178229 0 0 0
507 1 23.910415208443368 9.44640394906395 1.2816907807307425 0 0 1
742 1 1.7788147198230744 12.559499443891555 1.776696276958126 0 0 1
82 1 3.1831149558902774 10.892194611410103 3.4371501778932947 0 0 0
744 1 7.99761525829804 12.646754920398209 1.3750598342207085 0 0 1
283 1 9.503489867427104 11.365702890037044 3.202329174891187 0 0 0
745 1 14.506054870785315 13.014247008538923 1.2302800602804376 0 0 1
397 1 15.782344218805976 11.470047046433734 3.3678535510072205 0 0 0
746 1 20.808841509252552 12.723685153742345 1.5373474066662896 0 0 1
445 1 22.342056354399073 10.973235527938204 3.031239428359103 0 0 0
357 1 0.24352940345410368 14.120029996419925 3.400239440129624 0 0 0
750 1 4.884825892809256 15.814458672557699 1.5339520713777102 0 0 1
770 1 6.363355237779289 14.073018541060417 3.108311824820889 0 0 0
752 1 11.09972771362548 15.600444227374094 1.4407518787844822 0 0 1
768 1 13.14475813037404 14.384416097267199 2.8875609267330336 0 0 0
756 1 17.4753791866013 15.80736574525346 1.4962114562646402 0 0 1
399 1 18.929654184206356 14.261208000579025 3.3163083072160884 0 0 0
757 1 23.858265227962082 15.860751849519751 1.8281007486225938 0 0 1
759 1 1.6832290693311545 18.897402514779834 1.5578150203960441 0 0 1
293 1 3.4667569300842196 17.55050011421939 3.2799354433233616 0 0 0
760 1 8.4618973517746 19.17141618035405 1.3206070008425133 0 0 1
764 1 9.670578733705053 17.49867978212403 3.0772416456281078 0 0 0
734 1 14.180465966645905 19.37101164647119 1.5433084376078154 0 0 1
763 1 15.96593628104922 17.525280569103188 2.9653034711770054 0 0 0
749 1 20.78187795368531 19.134826516893035 1.4034818555337043 0 0 1
776 1 22.062869844331406 17.428286711640666 3.029707818599257 0 0 0
743 1 4.778140336924175 22.43126045642034 1.93722334597754 0 0 1
777 1 6.691134575780512 20.9568863549757 3.1297316475433656 0 0 0
396 1 12.599519707211417 20.9983892299961 3.179350119092246 0 0 0
710 1 17.537395129998124 22.574821045935458 1.4323564607086368 0 0 1
1 1 18.994479267362966 20.54520629813767 3.171490271428633 0 0 0
761 1 23.707173320955473 22.209314785848065 1.4863603836782262 0 0 1
733 1 1.4154533633064772 25.534036525249803 1.978781954638475 0 0 1
372 1 3.2729982580557517 24.054901475665197 3.4306408225326743 0 0 0
773 1 9.469759528402024 23.887501260523486 3.0735890704139623 0 0 0
739 1 11.193597695671789 22.635573673797268 1.426898720726667 0 0 1
694 1 13.794363531065862 25.622264748472794 1.9449556809205357 0 0 1
368 1 15.669734851393388 24.016929267595103 3.280565766660069 0 0 0
622 1 20.751478815016586 25.68694585742928 1.4744224097655514 0 0 1
400 1 22.22246726748546 24.10425156138392 2.988102546083862 0 0 0
198 1 5.9750967585104116 27.205578779787004 3.4368053142972683 0 -1 0
700 1 7.544745846265694 25.900472559484378 1.5868667184976797 0 0 1
554 1 10.762782342037513 28.95103774625926 1.3049831842661672 0 -1 1
196 1 12.297340427105777 27.443605860427418 3.2719525638407427 0 -1 0
583 1 18.965472025119283 27.261286679479838 3.1103894338294378 0 -1 0
557 1 23.639778709629567 28.897107862823205 1.9389134393099827 0 -1 1
558 1 1.7843143346415324 0.24961667204134613 1.378801249002969 0 0 1
475 1 3.169516327201131 30.487273944030868 3.1299254063815747 0 -1 0
551 1 4.696549664239824 29.00299271636444 1.525143614267849 0 -1 1
561 1 7.789516726407891 0.023408904040638664 1.4914740829053252 0 0 1
8 1 9.07221159992966 30.325608971215587 3.16221573010877 0 -1 0
562 1 14.230620223497104 31.883828769426188 1.7414894650427353 0 -1 1
556 1 17.410306448269836 29.095637567794178 1.826668015211441 0 -1 1
187 1 15.794768363243822 30.503691162803754 3.5355192698547824 0 -1 0
564 1 20.61265490623185 31.857271242214757 1.9025964711290326 0 -1 1
191 1 22.131325666567005 30.367339093415424 3.363190388135464 0 -1 0
19 1 1.4777860942001502 3.2406530807850684 5.036819975460159 0 0 0
55 1 3.146513961704854 1.8487324719962945 6.581260586665112 0 0 0
11 1 4.470161363797861 0.28297489887504984 4.669921396449886 0 0 0
20 1 7.829660097009304 3.4668756413861965 4.822302080971968 0 0 0
12 1 9.644061260978535 1.7850820243662016 6.34938489863558 0 0 0
23 1 14.249908808797914 3.296272178347661 4.832723295084952 0 0 0
16 1 15.860349112194564 1.487105466047749 6.491993503851053 0 0 0
15 1 17.58800873029542 0.33829209288058315 4.975087139068531 0 0 0
24 1 20.69661198546232 3.3398829317479106 5.197004441421174 0 0 0
59 1 22.447644934394205 1.5026411359027014 6.5746773229511835 0 0 0
77 1 19.21312279745808 27.28402323920627 15.543758529949464 0 -1 0
28 1 4.618966468130314 6.093086292044084 4.798880036006031 0 0 0
21 1 6.285725916444018 5.084366057720177 6.552174381651244 0 0 0
30 1 11.314596999383564 6.214682366910139 5.022437073614402 0 0 0
201 1 15.990100952905873 5.0365740938699695 3.6051009140333443 0 0 0
32 1 17.613191643883894 6.605500976265588 5.007348331974918 0 0 0
25 1 19.153328749171205 4.993457943006255 6.638166036203035 0 0 0
35 1 23.863723619117085 6.493623129960848 4.862106736876277 0 0 0
36 1 1.3964314985206625 9.363622523077817 5.068666123436502 0 0 0
26 1 3.261096309530284 8.112258378795579 6.245030352667742 0 0 0
38 1 7.869179455397369 9.466296709007365 5.059642327954059 0 0 0
67 1 9.556248332450446 8.01454397354827 6.47348789907785 0 0 0
40 1 14.2754260110554 9.697233667005353 4.785038723607259 0 0 0
33 1 15.921085362694676 8.026836547411259 6.522557228884013 0 0 0
41 1 20.859059413711265 9.62619834580491 4.872862940778884 0 0 0
42 1 22.202037727629772 8.273383900345532 6.621556307668419 0 0 0
210 1 4.848761067527975 12.433263269908569 4.697012603430398 0 0 0
44 1 6.358493087760115 11.108793415413455 6.549199124995008 0 0 0
211 1 11.491188904004272 12.86709460319193 4.4462269241927075 0 0 0
239 1 12.668677272429257 11.438069811643983 6.31720473909142 0 0 0
214 1 17.70143517160868 12.613191459835425 4.8205501645487985 0 0 0
14 1 19.241185810298447 11.007969135219335 6.334916927171221 0 0 0
217 1 23.683911668893632 12.681661592068783 4.884572215826964 0 0 0
218 1 1.667970841403711 15.988951732097114 5.07183307320858 0 0 0
255 1 3.4947038333363807 14.443055869087663 6.50685935441893 0 0 0
219 1 7.955660739793652 15.72757182106466 4.664015161364522 0 0 0
212 1 9.828750438229415 14.489783531893725 6.304759847651847 0 0 0
220 1 14.481701413641224 16.076728949668272 4.59143098673781 0 0 0
213 1 15.740217012114272 14.272963673720316 6.4927759742162845 0 0 0
222 1 20.418285617913327 16.0015676543688 4.722057304626271 0 0 0
253 1 22.361991428409297 14.56697462448324 6.2284628666212365 0 0 0
225 1 5.108784408220025 19.242023656215864 4.776652070348229 0 0 0
259 1 6.710065371580439 17.67827708276132 6.413398698193832 0 0 0
227 1 11.404226966183298 19.30802107907165 4.88483781113067 0 0 0
226 1 13.131510967102216 17.519214915744335 6.481589132885352 0 0 0
230 1 17.395582281246224 19.061056029219962 4.704141431391551 0 0 0
229 1 19.090679428272423 17.527119231327298 6.245137618981112 0 0 0
231 1 23.93860519698582 18.796271947616553 4.687568178415848 0 0 0
232 1 1.6303294765555358 22.069534090215292 4.353192179252476 0 0 0
223 1 3.2638178504670394 20.84683898841849 6.239708111250851 0 0 0
234 1 9.550546390551222 20.805182131297364 6.540722190315846 0 0 0
235 1 14.545766755788804 22.55672043932305 5.032147856882692 0 0 0
228 1 16.035533675627196 20.81573640395942 6.334720929130827 0 0 0
236 1 20.595272152520227 22.34449107962979 4.474590648503829 0 0 0
278 1 22.50218388485247 20.686797025274068 5.9523061754529785 0 0 0
272 1 0.14698098936764412 23.855526580235455 5.906375238730872 0 0 0
238 1 4.541789001206249 25.79265434225728 5.067368631207078 0 0 0
282 1 6.069020577039765 24.090753400165646 6.611158404114006 0 0 0
233 1 7.95957229295617 22.865517673890317 5.010403116022467 0 0 0
240 1 10.989258884746132 25.514725898643356 4.755647199613319 0 0 0
241 1 12.80364264771057 24.109284387999544 6.249050069323998 0 0 0
244 1 18.70609223561523 23.813193886805898 6.139304913196177 0 0 0
246 1 24.014954865223505 25.727160111733866 4.813817295891823 0 0 0
135 1 1.731289563140959 0.19414590058849238 14.301215234894212 0 0 0
184 1 2.8221117355428507 27.504868025624354 6.295555493740697 0 -1 0
138 1 14.288024961232379 31.876550250833517 14.503352255493677 0 -1 0
6 1 7.508391310299287 28.77596561729068 4.8910650068505745 0 -1 0
39 1 9.564536040256753 27.23505908314479 6.157794246626439 0 -1 0
7 1 14.239508472073513 28.73315173838604 5.052204372042166 0 -1 0
242 1 16.92157412509519 25.852307571796608 4.805782757857817 0 0 0
9 1 20.613480220974377 28.527530044623845 4.776158687638396 0 -1 0
216 1 22.072092714913946 27.055363351690296 6.381719100743724 0 -1 0
3 1 1.3384671932287235 29.149996977360225 4.599643179132039 0 -1 0
45 1 5.995150744621952 30.642389090653417 6.379973791905141 0 -1 0
13 1 10.917646537792994 31.856391950840177 4.6767568223968805 0 -1 0
49 1 12.580782479660977 30.392931931162863 6.399304909084659 0 -1 0
10 1 18.89341427604365 30.39383922210228 6.458168336658189 0 -1 0
43 1 25.11470466065056 30.545014438814952 6.552686137170526 -1 -1 0
18 1 23.727801496115905 0.1617036385246008 4.659371278825637 0 0 0
725 1 6.12131633871581 24.14847790566194 0.17717279612690492 0 0 1
97 1 5.95995708368756 1.8701978593011874 9.609767357290739 0 0 0
56 1 7.639129424733627 0.5958922530506313 7.744999164167958 0 0 0
62 1 10.975420520958322 3.297946163125586 8.25626781445079 0 0 0
57 1 12.548278953664147 1.6342471793988724 9.711556661533047 0 0 0
63 1 17.246443259241687 3.229789022584175 8.191273071420323 0 0 0
102 1 19.236745944803882 2.0138502483762784 9.62745475841013 0 0 0
64 1 23.94724973803952 3.3960518302536875 8.111385899933982 0 0 0
221 1 21.95659744700787 11.593746049372829 15.934177562079674 0 0 0
65 1 1.9209445406318393 6.6050539903396315 8.00341751476735 0 0 0
61 1 4.8220328557756655 3.6853450790261917 8.285281143016364 0 0 0
106 1 3.4946429369237086 5.143178983387398 9.944933895196245 0 0 0
110 1 9.663586185696563 5.223786246767573 9.682773071374854 0 0 0
22 1 12.788423728555257 4.622707564713311 6.793379987155517 0 0 0
70 1 14.34480133043604 6.490345260608297 8.10229848329962 0 0 0
71 1 15.50964845841971 5.000502669618324 9.587861391520438 0 0 0
72 1 20.58005710943882 6.574097131706073 8.009047632972907 0 0 0
104 1 22.52836982872857 5.1153450223120265 9.557568352270554 0 0 0
169 1 22.30719916363981 30.599906460645016 15.920726192433383 0 -1 0
74 1 0.2496407628527353 8.41724130380806 9.499145795389294 0 0 0
66 1 6.268486771740471 8.073109970010984 9.773483217045058 0 0 0
68 1 7.676134378292096 6.787094485482713 8.095210616948927 0 0 0
76 1 11.13253790743095 9.789934352153479 8.005436501777758 0 0 0
69 1 12.840469529461483 8.040995534801866 9.39365674197981 0 0 0
78 1 17.292213638477786 9.717322572543564 8.128360031797138 0 0 0
80 1 18.830454311378272 7.777370538812476 9.539162698989522 0 0 0
81 1 23.789441600378353 9.567253982837338 8.275707149254377 0 0 0
247 1 1.8456260345619895 12.790285680487912 8.34580285510073 0 0 0
75 1 4.763082067748174 9.859017476432218 8.026212514315914 0 0 0
392 1 3.332903201264685 11.297963827703775 9.746654662093372 0 0 0
249 1 8.184866249418125 12.58572188439551 7.765158032683086 0 0 0
364 1 9.23957497014783 11.390376137905935 9.684526695113096 0 0 0
251 1 14.32047998864508 12.992829202532217 8.056160904342367 0 0 0
123 1 15.55746567758153 11.156142133868887 9.542383545576415 0 0 0
252 1 20.532558956050536 12.84656103553602 7.981735952906832 0 0 0
37 1 21.961214320941426 10.987657577394657 9.644026002656073 0 0 0
256 1 0.12909414149696993 14.428125452115921 9.685160426014436 0 0 0
257 1 6.532944659815004 14.473948452150458 9.289630547884874 0 0 0
260 1 11.315321959732518 16.016907490876207 8.045285045717392 0 0 0
250 1 12.550201213966352 14.345790310457998 9.612320793144514 0 0 0
263 1 17.249834332320425 16.014708378411598 8.049612884989063 0 0 0
262 1 18.73582542914327 14.49899119542798 9.388166911425552 0 0 0
127 1 9.324850166966126 29.934159280919793 15.534978848746178 0 -1 0
266 1 1.8600608197171549 19.296101946538677 7.890521503148764 0 0 0
265 1 3.0659485723277995 17.55311323921117 9.4994040727248 0 0 0
258 1 4.9927021379237235 16.244091982253856 8.050327376506246 0 0 0
267 1 8.180464953551086 19.250869597515276 7.844899113764284 0 0 0
269 1 9.42745562010487 17.772567485433214 9.614848594369562 0 0 0
270 1 14.419671428869309 19.274336741845552 7.801852019422867 0 0 0
261 1 15.78618166708918 17.587735857272342 9.816021511027692 0 0 0
271 1 20.83462762566771 19.10359566474184 7.742313748249419 0 0 0
264 1 23.772290668052758 16.248287193545337 7.990935028052039 0 0 0
309 1 22.40061517584409 17.7796635723385 9.409416338082382 0 0 0
714 1 6.6068404136821 17.338555767594002 0.12093816370230318 0 0 1
273 1 4.636099303591231 22.217286737074886 7.963556775857405 0 0 0
268 1 6.526301221072003 20.678595005812724 9.478493586380319 0 0 0
275 1 11.165727461153129 22.516952860157836 8.050324180646044 0 0 0
276 1 12.669831284497581 20.79750188142102 9.539088817603853 0 0 0
277 1 17.141062522994574 22.532522111379734 8.09178474516276 0 0 0
315 1 19.034786451298867 20.652875338811235 9.244683120108025 0 0 0
279 1 24.143945834970854 22.442256933054978 7.795476102485819 0 0 0
281 1 1.4149337827695627 25.746088941344645 7.710468720833397 0 0 0
274 1 3.0239217040519613 24.0955443276695 8.946521891211944 0 0 0
284 1 7.887115735673812 25.79893279629281 7.969251939275776 0 0 0
320 1 9.339995024676766 24.130205965578902 9.584915231952435 0 0 0
285 1 13.825770684867086 25.732063444298973 8.127550012623445 0 0 0
286 1 20.166365581404584 25.606348775686264 7.863033050015514 0 0 0
323 1 22.075393897195354 23.922981943482448 9.279749214382322 0 0 0
46 1 4.704121586635736 28.86208204027281 7.8843001667673445 0 -1 0
185 1 6.240038633219557 27.421251417125013 9.579091862666363 0 -1 0
48 1 10.872687700984951 28.870041951463726 8.016245302500836 0 -1 0
5 1 12.049341433871 27.25965493550133 9.785466262080215 0 -1 0
181 1 15.677491279894568 27.21460867389804 6.8090452980306475 0 -1 0
190 1 19.127714537345998 27.47933065926346 9.443282582379512 0 -1 0
52 1 23.58363823835966 28.744031226732126 7.91759914674388 0 -1 0
53 1 1.3216816653132708 0.16247080654046844 7.989965385638492 0 0 0
90 1 3.149553800335902 30.512073621689687 9.532399597858882 0 -1 0
131 1 17.62832264875193 29.42572852181435 14.207735188785511 0 -1 0
47 1 9.305816279476526 30.72599618704662 9.25711943474763 0 -1 0
58 1 13.919111355571376 31.753464018303227 8.143951560704968 0 -1 0
50 1 17.05594548318732 29.084104594734868 8.093997643319016 0 -1 0
60 1 20.737923722815125 0.014515960414984232 8.006295059168679 0 0 0
88 1 22.270838707646337 30.395998875995332 9.499246494660062 0 -1 0
98 1 3.190199365046594 1.822381488906346 12.944519161489676 0 0 0
99 1 8.143018521569946 3.111015726229327 10.911448059110722 0 0 0
100 1 9.484894304435057 1.5389860793075263 12.764954175811102 0 0 0
101 1 13.89284628728078 3.1784063151730346 11.052367765277358 0 0 0
93 1 15.707354420100796 1.7318051745975434 12.793012975432667 0 0 0
94 1 17.582124332802728 0.34592238736393593 11.155499307728427 0 0 0
141 1 22.17755693241571 1.843159019984606 12.706852284088614 0 0 0
96 1 1.6498699233237795 3.486221021367108 11.349077146413967 0 0 0
107 1 6.713530783232245 4.953280796102736 12.48988974284943 0 0 0
111 1 11.469708109837564 6.649726579764556 11.294179745366767 0 0 0
154 1 12.838448655581548 4.859514833545436 13.14163086197455 0 0 0
112 1 17.488648466053284 6.035019864338146 11.037238363111122 0 0 0
105 1 20.957460635425456 3.617157605266389 11.093719738201097 0 0 0
103 1 19.188019603163465 4.8647680585063435 12.889690943310823 0 0 0
115 1 2.9861807881814926 8.200229101320604 12.760430623017992 0 0 0
108 1 4.912887827385775 6.802546494210199 11.755516318860233 0 0 0
118 1 7.712399812293036 9.805601000796882 11.329913863076374 0 0 0
109 1 9.821841701229237 8.590426606355717 12.72047095752841 0 0 0
119 1 14.429515194366676 9.163054144022539 11.058643171505414 0 0 0
120 1 16.465245532755542 8.17238852076629 12.683361010220716 0 0 0
121 1 20.44952085194824 9.365011389343183 11.202961466952386 0 0 0
113 1 24.288751347368528 6.676776328214471 11.059010136037845 0 0 0
122 1 22.441590503185758 7.926610831863067 12.588966215830453 0 0 0
140 1 20.909377059391687 0.22039645855353085 14.425015730895415 0 0 0
114 1 1.598570738879746 9.852337240441088 11.385149834132903 0 0 0
289 1 4.721367531991 12.861440038532029 11.190080555876207 0 0 0
389 1 6.145419018607068 11.417252786753473 12.905065670436421 0 0 0
290 1 10.925431571198434 12.76674603466102 11.439788657831588 0 0 0
34 1 12.786211540055977 11.064931122203971 12.892769302751468 0 0 0
292 1 17.382864691086034 12.66376357150242 11.075317844379693 0 0 0
183 1 19.288589165222437 11.19429326023685 12.55847870031133 0 0 0
294 1 23.667770176416024 12.640384604789643 11.133818952525973 0 0 0
296 1 2.9873233780638517 14.507932137406911 12.783791736014983 0 0 0
297 1 7.837993138033804 16.00897937757007 11.160537554015797 0 0 0
334 1 9.323550268680302 14.548279857648648 12.721080344170923 0 0 0
299 1 14.107380450195715 16.20265659676059 11.182805969469195 0 0 0
298 1 15.938192922518146 14.466721077629266 12.49972268424244 0 0 0
301 1 20.77037816782319 16.067613275321243 11.036814551492474 0 0 0
302 1 22.448386564915502 14.782457795782383 12.567034458625987 0 0 0
295 1 1.6705292057101948 16.258170788115585 11.308879113420478 0 0 0
304 1 4.804247871145536 19.29983150380589 10.785121995920674 0 0 0
305 1 6.473089417149582 17.932070604906606 12.470695762488035 0 0 0
306 1 10.932499091123233 19.339699578230167 11.120530663750397 0 0 0
307 1 12.27406287473198 17.978329568199307 12.692013493415525 0 0 0
308 1 17.38379033511237 19.389588386130548 10.81930776661767 0 0 0
300 1 19.18231684619168 17.756341689339443 12.497797313601504 0 0 0
310 1 23.893281998749096 19.294180897887784 11.188765209458808 0 0 0
303 1 2.7780453253883226 20.851365993710694 12.545010938082154 0 0 0
312 1 7.808289007897729 22.415935803103316 11.004519485644348 0 0 0
348 1 9.637262831851668 21.082895622711945 12.861181077217147 0 0 0
314 1 14.364309873746919 22.447590664910138 11.459384500518185 0 0 0
344 1 16.286663448837295 20.774235938377537 12.883123235649876 0 0 0
316 1 20.5221186913832 22.489621502305177 10.932302435195824 0 0 0
317 1 22.20881826581689 20.940281304335457 12.510422560871243 0 0 0
311 1 1.415540762996897 23.02391325281623 10.854906239698888 0 0 0
319 1 4.709639948782916 25.662058592293732 10.801106719245913 0 0 0
347 1 6.267711010470832 24.376235071918963 12.709946992499876 0 0 0
321 1 11.153744927833097 25.3419595040789 11.452202801463109 0 0 0
360 1 12.679006072141778 23.935933812936597 13.067154005142408 0 0 0
313 1 15.857895951281636 24.443811835225183 10.045282098306274 0 0 0
352 1 18.87123662829273 24.085197099328767 12.551834431881684 0 0 0
324 1 23.838368087730398 25.658664491721254 10.51741966967708 0 0 0
29 1 3.1814359122070983 27.301749026651258 12.436315048353949 0 -1 0
387 1 9.716537558642468 27.09959482065593 12.602317216587164 0 -1 0
86 1 13.990997956004154 28.738336278449395 11.2878834138764 0 -1 0
322 1 17.592932461614403 26.07200811563466 11.270904653058242 0 0 0
182 1 15.796831140698435 27.503979390560957 13.138431756491936 0 -1 0
89 1 20.660064847720637 28.96305000569354 11.251819535731281 0 -1 0
27 1 22.10496558841077 27.52723406579512 12.659626849913964 0 -1 0
83 1 1.3998615186535897 29.031938941137895 11.198069537068971 0 -1 0
91 1 4.564856896933255 0.13295413887737098 11.057687091601128 0 0 0
84 1 8.1247211660033 29.10902924143025 11.235034614941025 0 -1 0
126 1 6.495190068850232 30.513510378733514 12.684505151966073 0 -1 0
92 1 10.84826520251157 31.78591215922424 11.139284165821302 0 -1 0
51 1 15.532475739191609 30.486229706800152 10.064749204982546 0 -1 0
128 1 12.67344432635519 30.28728768518541 12.86496939464565 0 -1 0
139 1 19.18037858108628 30.897385837252692 12.562120754925933 0 -1 0
95 1 23.796580132972412 0.2732677779035488 10.741904009177205 0 0 0
143 1 5.131211623784827 3.222568704701655 14.126011099331869 0 0 0
137 1 6.738178773330189 1.598027537834332 15.610096527495081 0 0 0
144 1 11.218746069815277 3.0297016249221937 14.311345767147984 0 0 0
146 1 17.596523878277214 3.012944347308501 14.27577743398007 0 0 0
149 1 22.46680754580982 5.039783225098905 15.86641978964184 0 0 0
148 1 23.744389996395128 3.1958209123995234 14.343780905468916 0 0 0
150 1 1.6433392357287315 6.354426059667598 14.29123694785696 0 0 0
73 1 0.088080375575314 5.007648564839315 6.596988574948328 0 0 0
153 1 9.597801048983731 4.8856361735187095 15.774450323327446 0 0 0
520 1 12.723847875132561 30.220812073879323 0.057885417820271345 0 -1 1
155 1 14.576592891618565 6.461750851054935 14.06694958471189 0 0 0
156 1 20.75106630360418 6.5650329714075015 14.386680718236994 0 0 0
54 1 0.09002254806401243 2.065039323474605 9.461746866329984 0 0 0
136 1 8.14921712502395 31.728829517675038 14.261480031458373 0 -1 0
158 1 4.558739368109111 9.734621311149896 14.209648698261368 0 0 0
151 1 6.299643475040286 8.092386363149377 15.659854929816028 0 0 0
152 1 8.255700716607063 6.674644170941163 14.065305602363996 0 0 0
755 1 19.204492647971847 17.40764365768011 0.020216594885926056 0 0 1
161 1 18.116252066187116 9.76007530202873 14.308549986689348 0 0 0
703 1 3.317219168179096 14.121652028385059 0.15062971956680615 0 0 1
163 1 23.942727633763422 9.650220362275228 14.57875247028054 0 0 0
522 1 16.07657955976321 1.6943000593971236 0.14481100485298604 0 0 1
327 1 7.7562121658988215 12.912592723247993 14.436768625748034 0 0 0
472 1 9.773050755628223 8.13252922460093 -0.0012473891248498386 0 0 1
160 1 11.379164616130737 9.909627464736271 14.726136321815625 0 0 0
328 1 14.257789243613148 12.751950287237307 14.106979632681272 0 0 0
287 1 16.017004228974695 11.445823797376953 15.759784623110844 0 0 0
359 1 19.05586191622438 20.572179026637038 15.917789827511106 0 0 0
331 1 20.542991312205675 12.976119957280018 14.07712541295659 0 0 0
326 1 1.6453551945444707 13.148601864827247 14.71556646752122 0 0 0
332 1 4.753882084841073 16.165125890084916 14.180559760413272 0 0 0
374 1 6.441436364792091 14.82933403931246 15.824442465156546 0 0 0
367 1 12.507980482185204 14.036424446226084 15.447278979830456 0 0 0
335 1 10.775286561971205 15.98788843666591 14.277313501394383 0 0 0
337 1 17.67081332527163 15.935794244204525 14.139236178571453 0 0 0
378 1 19.153173429840955 14.506350639250122 15.702927303564154 0 0 0
339 1 23.785855577251258 16.22047846910486 14.428273774765904 0 0 0
341 1 1.4949447159702198 19.31716552748975 14.76941310442343 0 0 0
208 1 0.07057087305588818 1.7367449090159646 3.3010762391833337 0 0 0
571 1 12.97162274326769 4.506075751108112 0.22454245873015982 0 0 1
343 1 14.17652956824791 19.22345547298 14.125722906478087 0 0 0
338 1 15.72946134989943 17.515793668773817 15.50913743702 0 0 0
345 1 20.506693430074193 19.375444797343533 13.959717263598423 0 0 0
384 1 21.920018638087452 17.799681878324158 15.642566262453265 0 0 0
605 1 18.906910301070244 11.510640207136936 0.13393854505626288 0 0 1
346 1 4.632737878074198 22.316828513109222 14.038642132968148 0 0 0
342 1 8.044335429287464 19.638627152945993 14.506729687893486 0 0 0
350 1 11.104535540568191 22.46731787279444 14.470026209646928 0 0 0
349 1 12.709943892020382 20.79517261126145 15.877053212606102 0 0 0
353 1 17.41828841112268 22.498914307989402 14.587545105875202 0 0 0
280 1 0.11358080269252138 20.73215707699495 9.528315135643114 0 0 0
142 1 3.3916679158398857 4.9872337171697145 15.889025181078477 0 0 0
354 1 23.72621569436177 22.518918434033445 13.963765797416311 0 0 0
358 1 2.9083707095601117 23.749165878718266 15.861266917256144 0 0 0
355 1 1.7553077810766964 25.49577010452076 14.000815067379518 0 0 0
356 1 8.239733477127968 25.50073990236043 14.245187629967552 0 0 0
542 1 21.913800229756575 8.028248356330336 0.035298992876841954 0 0 1
361 1 14.374510200117097 25.454315907786693 14.315329514928472 0 0 0
1161 1 0.3917631041768215 26.12030883804313 10.8496698289529 0 1 0
363 1 20.610877509767914 25.658468202663975 13.980427274152945 0 0 0
248 1 22.073177720567728 23.780027012053786 15.544670099462873 0 0 0
125 1 4.992852852462006 28.520367807107156 13.886610471321468 0 -1 0
388 1 6.561342442047712 26.771922202878955 15.788667035774827 0 -1 0
129 1 11.245281662500476 28.38839354694975 14.449826730521002 0 -1 0
753 1 12.965898920463916 17.20589880306435 0.2912209960586991 0 0 1
568 1 9.823408722210656 1.508107573798762 0.3209350852648661 0 0 1
419 1 6.326200033160274 10.7929358691144 0.2003703456616856 0 0 1
440 1 3.0252794497644926 27.457993927014044 0.3610021675265244 0 -1 1
741 1 15.713240212768493 26.918933056632312 0.1588174957473313 0 -1 1
758 1 3.2825588776565535 20.67426947364777 0.1585916005710267 0 0 1
955 1 0.03452677890295537 11.744647230637627 13.148231189858228 0 -1 1
1435 1 0.2863249506920148 11.206627334703903 6.780143891012927 1 -2 -1
748 1 12.820542236521456 11.304340947670816 -0.0011141314815802548 0 0 1
1451 1 0.12255265905891813 31.594829692937886 11.97458643674412 0 0 2
563 1 19.189408867452673 30.48415948619737 -0.0007742449462070696 0 -1 1
390 1 0.016345356262585084 27.160612996024383 15.588325133372713 0 -1 0
1052 1 24.87011210998097 13.865035973375852 8.947384092910779 0 4 1
340 1 0.013426068967362832 17.71380996614475 12.957995352430512 0 0 0
1183 1 0.1196782428681189 4.480213503009199 0.2661983485731408 0 1 2
178 1 1.7164813116690671 3.2213145147246713 17.574040319115674 0 0 0
159 1 3.2081357123222896 1.5141126594266574 18.878310292417737 0 0 0
179 1 8.132485543044266 3.1400842419752886 17.34324147878209 0 0 0
581 1 9.451800477248913 1.6027291554753438 19.222163049868897 0 0 0
175 1 12.394917418267104 1.397930108277041 16.41930409399911 0 0 0
172 1 14.401398616639655 2.7784678419509223 17.675999777142493 0 0 0
553 1 16.171059338986822 1.422457717542147 19.327733940180373 0 0 0
186 1 22.108933622127786 1.6552740539941302 18.913814224751967 0 0 0
559 1 6.067820756030302 30.430558049546953 31.784918568423457 0 -1 0
177 1 4.884778706636346 6.550507881601634 17.45636362700646 0 0 0
200 1 6.3440562417832975 4.753443677823834 18.973006953411733 0 0 0
167 1 11.104531918002984 6.472163894978721 17.387653456012394 0 0 0
202 1 12.85724383030967 4.886662665819357 19.004478079175968 0 0 0
180 1 17.5548612355573 6.172978042867926 17.184066116861032 0 0 0
130 1 20.790524898246776 3.5415080912102 17.241302826707113 0 0 0
401 1 19.31801458708198 4.830956150014723 19.129264277216294 0 0 0
117 1 23.80110800435922 6.553881878244429 17.795319617494222 0 0 0
116 1 1.4090577951167267 9.627074119233802 17.52395239142391 0 0 0
207 1 3.410496765745441 8.495627587308213 18.75700484612937 0 0 0
87 1 7.803886208179429 9.476730206714965 17.809203889275807 0 0 0
193 1 9.39933888790011 7.844643201875257 19.05668468606659 0 0 0
85 1 14.579263877371703 9.611149218341673 17.27728138244523 0 0 0
133 1 16.151001246467217 7.85534983804038 18.78923444584727 0 0 0
79 1 20.82417613449102 9.662848164214529 17.51826654061113 0 0 0
579 1 22.3334249839666 8.228872877204148 19.326737670742958 0 0 0
365 1 4.906343422000635 12.944783753935262 17.44190761972048 0 0 0
2 1 6.470054667895941 11.350496032847445 18.92512814342909 0 0 0
366 1 11.15846031520197 12.915300697634963 17.46851642924232 0 0 0
195 1 12.53915985515455 11.005991509910345 18.89332592011548 0 0 0
393 1 19.103345760996493 11.387754464841354 19.076084570796425 0 0 0
371 1 23.660742354155232 13.013082986199201 17.677049581756798 0 0 0
517 1 4.8853286045644095 0.18639474730439162 30.222863696147414 0 0 0
373 1 1.9602769490674794 15.904901727849294 17.921285209631883 0 0 0
738 1 3.3782030961468137 14.02488640197446 19.462203419470896 0 0 0
398 1 9.716584977292841 14.588212135990196 18.960661950139702 0 0 0
376 1 14.336164099871477 15.744296050236542 17.107149443341562 0 0 0
370 1 15.721203423075503 14.163492358794398 18.952161334007798 0 0 0
369 1 17.41663263289212 13.049919767799407 17.195381933134726 0 0 0
379 1 20.682438610538643 16.061397385487673 17.360265813671774 0 0 0
775 1 22.300676930121828 14.870896516992772 19.255508393255134 0 0 0
380 1 4.6923072350100385 19.39024786909036 17.48950749676507 0 0 0
772 1 6.29349352158183 17.756185413407046 19.1559579883368 0 0 0