LAMMPS data file via write_data, version 29 Oct 2020, timestep = 100000

8520 atoms
1 atom types

-0.19221294982025228 104.7040583465511 xlo xhi
-0.26436684988934545 51.327518887688086 ylo yhi
-0.26436684988934545 51.327518887688086 zlo zhi

Masses

1 18.015

Atoms # atomic

289 1 1.4424472951279546 2.332445556587523 0.0242137007729058 0 1 0
284 1 6.148497156779418 0.5392020630506802 1.7299406407675022 0 1 0
291 1 7.612558739954192 2.271935265396119 -0.09482708970409415 0 1 0
1672 1 11.17535793533652 44.48145059052801 25.52623157303724 0 0 0
286 1 12.686486404276042 0.5963177860018537 1.633695745460955 0 1 0
382 1 17.471729373055325 2.381846053552366 2.722776139679464 0 1 0
863 1 19.10398944752506 0.7154525969622922 1.5901672788572987 0 1 0
1098 1 25.093927049921064 1.0342919244907471 1.5511115915730114 0 1 0
3497 1 34.770534278675676 30.246617326764138 14.287736449399095 0 0 0
248 1 -0.17482443616439414 7.523924757915336 14.550844185679239 0 0 0
1016 1 31.90782292983996 0.5984325401660111 1.1893781220076804 0 1 0
198 1 2.845791163738367 3.899073610710806 1.7808160962655957 0 0 0
292 1 9.222948158304149 4.5215807382342925 1.2119120706261912 0 0 0
199 1 11.235016194837236 5.998210295076217 -0.15303690750970272 0 0 0
200 1 17.653187467997313 5.966025665218613 -0.1292470536535799 0 0 0
298 1 15.841220153189777 4.5537001922896625 1.314986032174203 0 0 0
1018 1 22.20215877987292 3.8775227412662616 1.3186002231253362 0 0 0
1021 1 28.24430557008899 3.8210403284594117 1.479727878398912 0 0 0
202 1 1.6390673965091642 8.955979770317251 -0.20814194251740403 0 0 0
1612 1 1.508359429267497 15.477565410368316 25.421987912361192 0 0 0
197 1 4.451013434930161 6.092464187702317 0.03533171492637516 0 0 0
203 1 6.1468506163139445 7.511181815376982 2.064822795699107 0 0 0
204 1 7.391804235245258 8.915808185423057 0.27033771682078667 0 0 0
205 1 12.629550705421963 7.690427766872475 1.584261349348678 0 0 0
854 1 19.094167027750114 8.178300156260473 1.364515216851485 0 0 0
1024 1 20.50915402582592 6.419523166417894 2.6184624181499894 0 0 0
2385 1 20.578867126515124 2.4521222376996374 25.50197183624466 0 1 0
948 1 24.969405704731322 7.841011845594892 1.1469432673560807 0 0 0
1031 1 31.517899863743658 7.25739608382008 1.1790801903211388 0 0 0
1030 1 29.989113605727383 8.989532946198565 2.7896823374300705 0 0 0
207 1 2.9359584650692887 10.812242556568764 1.213403028664319 0 0 0
306 1 9.438633610632884 10.29462935228924 1.4698284723035668 0 0 0
206 1 14.06909955569565 9.148025010768679 -0.08307353111805593 0 0 0
211 1 15.705394112068195 10.980832505139608 1.149006562762941 0 0 0
1033 1 22.227906447138853 10.94878311385946 1.2673158266338276 0 0 0
952 1 28.504797519046793 10.583062067747736 1.1471483439868977 0 0 0
950 1 32.94159472350918 9.192645295915836 -0.2446053174208842 0 0 0
208 1 4.739287820876744 12.668920874585352 -0.184097238273067 0 0 0
215 1 6.379685899562707 14.129232926904992 1.4249673477096814 0 0 0
210 1 10.64533571727897 12.34725603101216 -0.15075089037732928 0 0 0
217 1 12.407108382529055 13.88560764748021 1.3088658739766124 0 0 0
307 1 14.289281142277249 12.477968289858685 2.6162511275588014 0 0 0
1662 1 17.393499506905687 37.78446126354018 25.4253273936145 0 0 0
736 1 18.818102056414308 13.832482123877515 1.4187482703904144 0 0 0
955 1 25.378851596562477 13.658333689623142 1.2418067990209294 0 0 0
953 1 30.420932332703504 12.559673707729925 0.3403402675756185 0 0 0
959 1 31.97331085118534 14.452524921091396 1.499603217441318 0 0 0
214 1 1.5566871551980819 15.71740757054853 -0.1026186275252117 0 0 0
221 1 2.98718331475513 17.32035056124103 1.4004424679129464 0 0 0
309 1 5.0316849313324 15.792420889483875 2.7757958923553754 0 0 0
216 1 8.076468235338405 15.734364978067184 -0.2450168798315674 0 0 0
224 1 9.64617710957585 17.226501857716478 1.5324294206829856 0 0 0
318 1 15.220602315795668 17.169069553466468 1.4029279751109498 0 0 0
1674 1 1.6059129017635663 47.47768478985476 25.49712493892764 0 0 0
960 1 22.109556384124232 17.104518254265646 1.4035129071855192 0 0 0
964 1 28.249567157265552 17.11905711775201 1.2374980762608143 0 0 0
1620 1 10.609972692337434 18.54561662556548 25.40031095478086 0 0 0
222 1 4.798893793240327 18.96805041082275 -0.1034234869632496 0 0 0
231 1 6.288920875638585 20.52584421730147 1.6736776600601762 0 0 0
1626 1 14.104978245670585 22.06609363982263 25.389218854006778 0 0 0
234 1 12.404597395276687 20.50203926823787 1.33938442943167 0 0 0
2375 1 29.953509804602447 44.16714845904866 25.464993729823696 0 0 0
1187 1 19.06168465059714 20.302812966590047 1.3198580592556657 0 0 0
1047 1 25.392943012431523 20.28806540341516 1.1487884955132108 0 0 0
963 1 30.246666653062412 18.294897883766847 -0.11877695813318961 0 0 0
1049 1 31.742370181711994 20.485129139156047 1.317543739700161 0 0 0
228 1 1.461218913088294 21.916332627355068 0.028251772201265124 0 0 0
235 1 3.1000156455963346 23.480586839515027 1.6442358146167166 0 0 0
230 1 7.5452908945683115 21.874617738128332 -0.0462561064748796 0 0 0
328 1 9.338798645546635 23.347159714994866 1.5818148268744898 0 0 0
233 1 14.391209357189206 21.811933993608832 0.14014024364882954 0 0 0
330 1 16.302008696216113 23.489348905417174 1.2458134684484596 0 0 0
1051 1 22.16528289612141 23.509093414461468 1.4472769554695626 0 0 0
1624 1 7.641707085438187 21.730429486398233 25.45102411153289 0 0 0
1053 1 28.70512661710339 23.631181452973518 1.4092566445315222 0 0 0
5682 1 0.75335107406033 51.316182042949336 0.5551331256879684 0 -2 0
201 1 -0.11743031414301179 26.63277514056346 1.601891188978525 0 0 0
236 1 4.832929673261461 25.237917424284838 0.06487459957443942 0 0 0
332 1 6.189334746634558 26.918485736217384 1.698878327088844 0 0 0
240 1 10.747248532706553 25.00543741237531 0.030231612244315698 0 0 0
333 1 12.765406393406112 26.509590973523373 1.7103153059218021 0 0 0
238 1 17.380449988552506 25.611260414601237 -0.049006624577095814 0 0 0
1385 1 18.978333553324205 26.919536491867483 1.8344097864677114 0 0 0
1653 1 7.568035969536814 34.70537144925902 25.522716085063212 0 0 0
1058 1 25.63645724301149 26.522030581743216 1.5006498838432527 0 0 0
1060 1 31.789677843095884 26.383622327660238 1.4096216746671602 0 0 0
243 1 1.2654181319456699 28.283543150717577 0.10920502108807612 0 0 0
336 1 2.832122828797924 30.239859598845293 1.558288494875533 0 0 0
246 1 7.763948376967074 28.54586277060266 -0.04745556672207524 0 0 0
339 1 9.513127860584857 30.250776950516798 1.409537922112808 0 0 0
242 1 14.02977631378988 28.544960691098012 -0.053362630484832446 0 0 0
341 1 15.484389415481742 30.142618430617077 1.5605428920024442 0 0 0
980 1 20.534234954480905 28.635990287402585 0.3210602709708281 0 0 0
1062 1 22.239884950769863 30.113798881076022 1.6379156040881147 0 0 0
976 1 27.206974272133372 28.186224589854998 -0.19692227126333683 0 0 0
1063 1 28.360827835926376 29.74788975283168 1.5018405486970023 0 0 0
978 1 33.071964106145195 28.359883366903464 -0.2532368323491942 0 0 0
245 1 4.3077345598383525 31.65290311849293 -0.09312385334737908 0 0 0
251 1 10.919799119278498 31.891908054775225 -0.12247555297970913 0 0 0
343 1 12.196225089196437 32.88305160398211 1.9460079220889517 0 0 0
252 1 17.03486083010243 31.91242125762749 0.20011799341371883 0 0 0
981 1 23.849355070103197 31.790923920805394 -0.009208253744037609 0 0 0
984 1 29.80783704986883 31.75561312258184 0.22757483901612008 0 0 0
987 1 31.705135957098296 33.099914489774164 1.5540436891211764 0 0 0
253 1 1.21306443939025 35.173240420456935 -0.03617032875435128 0 0 0
250 1 6.1869403494582285 33.46349601977296 1.6278394554009998 0 0 0
256 1 7.6749198673131485 35.05141840983896 -0.037065213406508146 0 0 0
347 1 9.23158867272448 36.281638155439694 1.6480170411758552 0 0 0
258 1 13.938655710990659 34.702769594148066 0.3294278459895057 0 0 0
752 1 18.90456443707959 33.69316263365933 1.5251449316932097 0 0 0
985 1 20.62788371829626 35.12388018282587 0.07176103066395023 0 0 0
1069 1 25.46977527938147 33.45488984969204 1.4515059323955648 0 0 0
991 1 27.036405408699498 35.025855372430556 -0.0088304963123354 0 0 0
988 1 33.40456502832016 34.661165011530144 -0.17647329997610756 0 0 0
345 1 2.754374747143397 36.5113246822732 1.5240819579338232 0 0 0
259 1 4.374863584644432 38.07960811978343 0.3229077648424308 0 0 0
261 1 11.217150531556785 37.6540350239425 0.0782646271496551 0 0 0
350 1 15.615518321962782 36.52631153483871 1.6616355382067267 0 0 0
263 1 17.40470140248159 38.200368803074895 0.1280476785154197 0 0 0
1072 1 22.513039440066432 36.55766494988157 1.4260594167596734 0 0 0
994 1 23.686581942686967 38.083436924286985 -0.10146888910811935 0 0 0
1074 1 28.544245188323334 36.50492624999174 1.7374011361910684 0 0 0
996 1 30.153804092908448 38.06983971844093 -0.06454688177657061 0 0 0
265 1 1.2816455802690352 40.93173323800417 0.003679368419328477 0 0 0
260 1 6.145695134427333 39.73337298729072 1.6602192275879881 0 0 0
268 1 7.927413611535767 41.28829137295483 -0.21296496509977664 0 0 0
353 1 12.62681669479387 39.640176947725124 1.7215557230539293 0 0 0
270 1 14.276150015948144 41.022320554742365 0.22919704077297748 0 0 0
754 1 18.808175249594324 39.60242043328701 1.934146409545475 0 0 0
997 1 20.40366663585976 41.383534267299126 0.23984130052005614 0 0 0
1078 1 25.190993789040732 39.74496518031643 1.628145479828079 0 0 0
6108 1 -0.08994765938382443 8.56754485331608 21.887205906992552 2 3 0
1080 1 31.936469520915395 39.47571002107237 1.5273098492453046 0 0 0
1001 1 33.09704463343693 41.25620777194557 0.05364387660164449 0 0 0
266 1 3.148370373492385 42.56623170472163 1.1804769692786325 0 0 0
357 1 9.443102918919736 42.491296515166965 1.6358083753317734 0 0 0
275 1 11.033717904091251 44.37009106649906 0.04848430181288804 0 0 0
359 1 15.543080554474075 42.903481106121134 1.791339802692773 0 0 0
277 1 17.046331810061602 44.37554395964085 0.3357804341683237 0 0 0
1003 1 23.79148294992582 44.3921715137534 -0.09093266341396647 0 0 0
1083 1 22.195238768502815 42.90169290234708 1.681827391774347 0 0 0
1000 1 28.310889639771595 42.81345169022565 1.4682727329679868 0 0 0
1006 1 29.73430504060733 44.37159238596955 -0.16084987455994976 0 0 0
73 1 -0.13572707481240298 45.79742344220412 1.556816060692114 0 0 0
279 1 1.3319178702207575 47.74667561119014 -0.020382901643865248 0 0 0
363 1 6.364989707948086 45.578766351589465 1.4071875447054527 0 0 0
280 1 7.9480339087957415 47.254873210742915 0.013065573276527798 0 0 0
365 1 12.515293940061975 46.105995979502 1.9212574851607305 0 0 0
281 1 14.153916152565396 47.669034245122205 0.4533882214936684 0 0 0
758 1 18.777802458415167 46.30497558305049 1.2153680866042047 0 0 0
1583 1 12.113209262558449 49.18182881128767 23.848980481932895 0 0 0
1094 1 23.700304433218733 47.47649812615602 2.7635078495072345 0 0 0
1004 1 25.46607499947655 45.872790166701364 1.369777667874519 0 0 0
1011 1 26.877640079127875 47.39995607642105 -0.06607785196217322 0 0 0
1095 1 30.33912133310638 47.37728848513203 2.7897634428830833 0 0 0
1091 1 31.76418423433649 45.70009699349271 1.2895313366431516 0 0 0
2321 1 23.6864849635201 12.289071919721296 25.45057728764901 0 0 0
1489 1 -0.18983202068897675 39.61703770208547 20.515602343017765 0 0 0
283 1 4.710058659968202 50.69716636344798 0.21747749953142353 0 0 0
369 1 3.1378967960608057 49.07853465862402 1.4511927157932898 0 0 0
285 1 10.748471354582616 50.87856505816572 0.0912326034831959 0 0 0
372 1 9.51970121642031 48.96602368370043 1.8175380463443602 0 0 0
282 1 15.482073733718234 49.75489723699846 1.894344344915997 0 0 0
288 1 17.651008856159645 50.73168246339374 0.11438770809406618 0 0 0
1093 1 22.063021999948518 49.16562693887522 1.0949387030757556 0 0 0
1014 1 23.823077434102693 50.90388286183766 -0.16639304947829286 0 0 0
1012 1 28.2789049841176 49.00539103108605 1.48040317281934 0 0 0
2381 1 23.982548275798486 51.04749717143115 25.52152558075132 0 0 0
380 1 4.735001177880234 2.340333902143565 3.1987385804932598 0 1 0
481 1 3.116619270342792 0.8371334715530634 4.735951294413905 0 1 0
381 1 11.150736055508013 2.378362757369863 2.979106719530264 0 1 0
377 1 9.635918925033621 1.0120325670394088 4.862291370332729 0 1 0
379 1 16.034555515297733 0.9006255447749618 4.563765366861879 0 1 0
1102 1 23.557783805719048 2.3787616403787966 3.133135346765567 0 1 0
1184 1 22.150962217460098 0.6007727159829609 4.532275770637203 0 1 0
1104 1 29.951869777839892 2.1144208722987514 3.1300313106748616 0 1 0
1100 1 28.536954872253673 0.8957209122653507 4.818905280786258 0 1 0
295 1 5.992364105506132 4.8813948451408065 4.69084246338448 0 0 0
296 1 8.105707116295006 6.005613756215595 3.499003847813673 0 0 0
386 1 12.837235180545447 3.9184088713511125 4.9809640957063746 0 0 0
878 1 19.303975404625945 3.9448403987694043 4.2496391942585765 0 0 0
1103 1 25.303933995841625 4.480260085184406 4.518390044820295 0 0 0
1105 1 31.54039269614681 4.638649654710493 4.374478377868527 0 0 0
294 1 0.9748042704182018 6.078701505257776 3.0687764509823445 0 0 0
299 1 2.827848679613639 7.667292917917652 4.821774927144151 0 0 0
301 1 9.619180912974725 8.08518585698481 5.091118289419039 0 0 0
297 1 14.218900343443426 6.191483350755903 3.1956108596773825 0 0 0
389 1 17.556074529442817 6.264855501150251 5.882840536782785 0 0 0
388 1 15.778660716044689 7.845797003172251 4.522915385956834 0 0 0
1028 1 21.896727874567922 7.8139578303866095 4.596546144921178 0 0 0
1025 1 26.56209433692459 6.186063163657223 3.041572750082796 0 0 0
1026 1 28.362443742425572 7.467387490806176 4.5422391994505205 0 0 0
1027 1 33.32833442737007 6.146019410380333 2.9831893202801503 0 0 0
1604 1 7.739195600251535 9.420143796231189 25.4170927846975 0 0 0
300 1 4.593601603052287 9.69573416430738 2.9091219433410433 0 0 0
398 1 5.772820350821354 11.102429179191734 4.6977930293745915 0 0 0
305 1 7.779696506346409 11.88582087057363 2.9624897194496014 0 0 0
302 1 11.367092781856146 9.680224013719492 3.2634341757934022 0 0 0
400 1 12.79481573931074 11.388784622776468 4.7537644459099155 0 0 0
303 1 17.213096001214833 9.556751203944224 2.964566786838704 0 0 0
802 1 19.051433398970993 10.88135326015058 4.848675033504858 0 0 0
1029 1 23.542795018501423 9.32585665945731 3.071698800275737 0 0 0
1115 1 25.28497675815356 10.720545016215075 4.729234265332835 0 0 0
1032 1 31.62953468956622 10.362687426171371 4.538336306632851 0 0 0
304 1 1.5063504075873344 12.316755456087495 3.134189411376287 0 0 0
405 1 2.9866909334711726 14.549342639318079 4.1199589608733245 0 0 0
310 1 8.878187605968252 13.7344209186482 4.67017490269843 0 0 0
312 1 15.58488986367039 14.042868432143514 4.6124077276510365 0 0 0
1034 1 20.498112346562884 12.423672729174685 3.066679861071384 0 0 0
1119 1 22.229867605753235 13.958356482828776 4.792450123610436 0 0 0
1035 1 27.00446595289027 12.14025767685478 2.8123495003158103 0 0 0
1124 1 28.681407876450567 13.694984780329497 4.507938709957864 0 0 0
1036 1 33.2403377275558 12.35896202776576 3.0745609744192346 0 0 0
412 1 6.206797069449673 17.405408721320462 4.464575633699624 0 0 0
311 1 10.734119607683775 15.372599949948379 2.9730854933023467 0 0 0
415 1 12.380980766512032 17.494464336351648 4.621570158392404 0 0 0
313 1 17.011968932558233 15.673016457546387 2.8526297305693613 0 0 0
739 1 18.584872613767722 17.202692675736007 4.641474707996926 0 0 0
1037 1 23.685042825583633 15.493923218600042 2.8783887763348415 0 0 0
1042 1 25.341371346241516 16.947124301040333 4.463991940319452 0 0 0
1038 1 30.041524562329066 15.746833325453157 2.836726773615271 0 0 0
1130 1 31.63459213994512 17.471396813073884 4.461531755568687 0 0 0
1126 1 33.25971223144094 15.738581339190041 6.000776758139053 0 0 0
314 1 1.1441241142873948 18.752478801583223 3.3999347149012107 0 0 0
2303 1 31.904297288901056 49.16237214805905 23.67647590762911 0 0 0
418 1 3.010006536036374 20.11396412770359 4.80136475573919 0 0 0
316 1 7.998132286085287 18.971643093398544 3.14552381116892 0 0 0
321 1 9.081271400720324 20.38048419326878 4.982690833286986 0 0 0
317 1 14.006387768156705 18.979429132114383 2.908264128468062 0 0 0
324 1 15.732040836522724 20.100205781407976 4.438524926367278 0 0 0
1040 1 20.545050984727766 18.397709137791175 3.1115520693833725 0 0 0
1131 1 22.02076056758495 20.205096620448256 4.366501895683311 0 0 0
1041 1 26.858079051735576 18.935465654755525 3.0691470884363934 0 0 0
1134 1 28.44440218655752 20.460410618449476 4.5835474564042205 0 0 0
1043 1 33.487908405093705 18.72896450064198 3.110917738488888 0 0 0
3 1 0.05717124467887247 23.35213974640699 4.550049345358152 0 0 0
320 1 4.682410064078786 21.956252130731322 3.343445674248106 0 0 0
326 1 6.189954615733921 23.68544996965096 4.776531166091936 0 0 0
322 1 10.922164152036583 21.8057636063779 3.3016740891956844 0 0 0
424 1 12.697619687185913 23.749504940005362 4.528025871353442 0 0 0
323 1 17.454480620091154 21.754131114651692 3.05858350105677 0 0 0
821 1 19.08222376656786 23.39186827973014 4.783380577044785 0 0 0
1046 1 23.92055987633625 21.83418840887871 2.9574765397527 0 0 0
1140 1 25.379189621634126 23.541885097250344 4.504044983621979 0 0 0
1048 1 30.254421866068974 21.91390098468063 2.9522724900959454 0 0 0
1054 1 31.704471272682746 23.758267997421594 4.2525032189160585 0 0 0
325 1 1.312139086842382 25.170606850718396 3.021158076730463 0 0 0
426 1 2.9939704299073817 26.835589665585022 4.8354389883456275 0 0 0
327 1 7.809683659123015 25.206139609920474 3.2512097532287076 0 0 0
430 1 9.451028003293958 26.6796140651752 4.676421305555706 0 0 0
329 1 14.616941616337007 25.03217538627913 2.882284976530403 0 0 0
334 1 15.783870242410412 26.85971594316351 4.83835246368197 0 0 0
1050 1 20.52875036642848 25.07868554446099 3.1647673229369984 0 0 0
1142 1 22.16481618388695 26.78840243764891 4.733001465850026 0 0 0
1052 1 27.082121811614435 24.86959328344207 2.9844316061506144 0 0 0
1059 1 28.650740800670118 26.587187658990114 4.578202914414017 0 0 0
1141 1 30.085189329480652 24.912880684997912 5.978654678303525 0 0 0
1055 1 33.599692520748256 24.97939752184585 2.794710713733453 0 0 0
331 1 4.450022413788781 28.330465930846383 3.2341075412494376 0 0 0
338 1 6.167768032157848 29.891449738911618 4.940837424211728 0 0 0
340 1 11.22766947285833 28.2690244551645 3.3788010934299617 0 0 0
434 1 12.445389512385077 29.962750088583032 5.334208653738271 0 0 0
335 1 16.983149102164788 28.6340477031911 3.0889327199904764 0 0 0
898 1 18.968088971256844 30.125895468742616 4.669268388892174 0 0 0
1057 1 23.831803301424483 28.19232481179513 2.9787126495371896 0 0 0
1148 1 25.361423344341652 29.88047632078883 4.60573110417334 0 0 0
1061 1 30.03695172212111 28.232288566936475 2.9098357782758066 0 0 0
1150 1 31.652029077364368 29.756522535942928 4.455502307240915 0 0 0
1145 1 33.241060023721595 28.150758690904002 6.010334251788726 0 0 0
337 1 1.205989651530101 32.13919286138251 3.2676466892118596 0 0 0
1658 1 4.255905809921065 38.14875523787646 25.366989148967885 0 0 0
342 1 7.74122664343753 31.553833057889275 2.9662453455224935 0 0 0
439 1 9.244440872791648 33.02997761771803 5.145196024037845 0 0 0
344 1 14.092805724789072 31.41646119330099 3.678566901273689 0 0 0
1067 1 20.543487534824326 32.028757574986514 3.3263573038454517 0 0 0
1068 1 26.835996020093067 31.567382932467712 3.029934850279608 0 0 0
1153 1 28.673289974547593 32.85687200904036 4.428850219420685 0 0 0
1064 1 33.37898157463579 31.184045313865703 3.061827508733725 0 0 0
5945 1 0.1157073573805864 4.8073492868177485 12.047900597818668 1 -1 1
438 1 3.313294785480642 33.52585017953588 4.9213845831097665 0 0 0
346 1 4.575349464690707 35.0884325308804 3.2905411338562605 0 0 0
348 1 10.65380044867966 34.76081510198024 3.4977198230499713 0 0 0
442 1 15.784515319310628 33.49469689473942 4.716765419243173 0 0 0
349 1 17.42293851608581 35.166085778087236 3.033907157549404 0 0 0
1382 1 18.975660334980798 36.23624555084015 4.749946967504762 0 0 0
1071 1 24.006963024162143 34.95221559218872 3.041262539857707 0 0 0
1151 1 22.24615106097591 33.896909079123674 4.640981109155258 0 0 0
1073 1 25.583199644225324 36.23550194034884 4.80306826147683 0 0 0
1075 1 30.053038293767454 34.84362773226498 2.90558267077111 0 0 0
1076 1 31.677757961571995 36.37205657160568 4.641825141617352 0 0 0
351 1 1.0922371056849227 38.07356415481715 3.378086661140872 0 0 0
2304 1 20.493291851615854 50.62911163216036 22.555227783153974 0 0 0
447 1 6.344919977116494 36.5658508057716 4.975955654754916 0 0 0
352 1 7.664758720479611 38.07679335184248 3.213606616898947 0 0 0
448 1 12.449866933259877 36.499508018229236 4.997741516874959 0 0 0
454 1 9.341414099344131 39.34164061038196 4.889373534662772 0 0 0
354 1 14.08865975575806 38.070996482868736 3.278555751345884 0 0 0
1077 1 20.70319449267543 37.96267766875182 3.544404318068096 0 0 0
1162 1 22.687130866739388 39.34329182044834 4.845887481968726 0 0 0
1079 1 26.981613202253907 38.05147739909523 3.3210013918322363 0 0 0
1081 1 33.44338551022771 37.77540841952458 3.121441136816587 0 0 0
452 1 2.873915371923019 39.55831230495899 5.269685519309176 0 0 0
356 1 4.3345197548698 41.37937156043863 3.532195591268774 0 0 0
358 1 10.954588293922672 41.162462186456764 3.4693098882161086 0 0 0
355 1 15.894465042538307 39.63367229122986 4.832870605964285 0 0 0
360 1 17.393745038741397 41.639162636134245 3.5630545065980237 0 0 0
1084 1 24.076278993469398 41.44546427533932 3.059180482370261 0 0 0
1165 1 28.62865396900523 39.53644681068512 4.795652568656539 0 0 0
1086 1 29.967594089016917 41.09422685861405 2.8617416810121195 0 0 0
486 1 0.1566651958722436 42.57585008769006 4.663707623709765 0 0 0
361 1 1.6423662493243163 44.20333644083095 3.0674852670763277 0 0 0
459 1 6.171737781619186 42.95120880608651 4.935281091256278 0 0 0
364 1 7.90642945861434 44.04259180678129 3.143183784753436 0 0 0
461 1 12.635676783073025 42.53903286353591 4.947905144830442 0 0 0
366 1 14.098189357547923 44.30869425250195 3.2980538153104044 0 0 0
1087 1 20.641465005390682 44.376342903208624 3.2524176524899135 0 0 0
829 1 19.199320093090392 43.27445326640466 5.151454793451514 0 0 0
1085 1 25.481731793211363 42.64148471072541 5.013950751373712 0 0 0
1089 1 26.75153995166991 44.281777520304814 3.2905661904729206 0 0 0
1175 1 30.431433533115797 44.51829920222866 5.997331282756358 0 0 0
1171 1 31.93215179478517 42.75026720996456 4.255095945747284 0 0 0
1092 1 33.595082566643725 44.41530271371339 2.947123402511884 0 0 0
370 1 4.842403078801694 47.48687624965568 3.0111353035680315 0 0 0
362 1 3.17692316675018 46.02765087492088 4.685890061508833 0 0 0
467 1 9.249124378716614 45.71441199793334 5.376847637073159 0 0 0
373 1 10.973150931829236 47.83670219541585 3.909910220775183 0 0 0
367 1 15.51393039570797 46.095875550778445 4.992799788739926 0 0 0
374 1 16.887482999538165 47.54486449204988 3.061566786365878 0 0 0
1088 1 22.33871608013077 46.00805658351051 4.795435861112179 0 0 0
1090 1 28.74424903334412 45.73326103646097 4.436718132369438 0 0 0
375 1 1.4331969661174768 50.687013726378765 3.0943516015655432 0 0 0
2247 1 19.053390166041982 48.84536584960297 24.17416643697068 0 0 0
371 1 6.107786558416138 49.083448787002894 4.643000594726722 0 0 0
376 1 8.169356293939394 50.847168041709736 3.128712391154163 0 0 0
378 1 13.936920706453341 51.146835345777845 3.540236516203205 0 0 0
474 1 12.78004318654854 49.24474394408669 5.018390407625627 0 0 0
479 1 17.672044922700252 50.674927476194114 5.999803385840507 0 0 0
899 1 18.979459466657776 48.78163270386668 4.315403318071408 0 0 0
1097 1 20.668037772606862 50.444054706929705 3.043262886006518 0 0 0
1179 1 25.46717369452916 48.944256544921885 4.2470871141836515 0 0 0
1099 1 26.875093906432255 51.04102122707364 3.009147127027987 0 0 0
1186 1 30.35654643686569 50.68218932452645 5.908059676750556 0 0 0
1101 1 33.44487950121607 50.95824544552438 2.8512705217873853 0 0 0
1182 1 31.908704223404506 49.286794990966 4.294884918328819 0 0 0
480 1 1.4498014262629133 2.7330604672309966 6.289083993945725 0 1 0
1680 1 4.463313767371483 50.81954865440996 25.38065039383936 0 0 0
482 1 7.727019900557295 2.7222972276736437 6.185873190224969 0 1 0
483 1 6.39848216401408 0.7541909912945295 7.886419837909031 0 1 0
484 1 14.437706082258178 2.210353189826292 6.2916397221958675 0 1 0
574 1 12.85911744878924 0.4800188666727494 8.12177582165491 0 1 0
1188 1 20.56131426090033 2.307944502535243 6.164546184147054 0 1 0
755 1 18.90656411599638 0.8191133996334363 7.859550913059893 0 1 0
1261 1 25.092801959521 0.6150568962884861 7.870499473787126 0 1 0
1189 1 26.6736447903446 2.274371882721262 6.3174898291268695 0 1 0
1191 1 33.20759226483219 2.469412499896995 6.084174159220543 0 1 0
1258 1 31.75422636935651 0.8749176158040983 7.887217495382226 0 1 0
384 1 2.8843110611864438 4.492093311520187 8.21774671265685 0 0 0
2310 1 33.44077684979862 51.037419305956675 22.269525858515728 0 0 0
385 1 9.4670733082522 4.580272790762717 8.085239737449472 0 0 0
485 1 15.99875394171293 3.8212181409752723 7.761492772604203 0 0 0
1106 1 22.131682172526144 4.714733034486587 7.637539461638196 0 0 0
1190 1 28.414380479388456 3.913102405938746 7.60479378443583 0 0 0
1108 1 30.03793152944798 5.935909831908347 6.07779517496532 0 0 0
383 1 4.435908418684851 6.264195959780136 6.693335034748438 0 0 0
392 1 6.075016908800099 7.864383288501353 8.014794841972806 0 0 0
387 1 11.203685948944981 6.2691508447086965 6.422457129510329 0 0 0
492 1 12.661176092690873 7.6134076522532546 8.132355420123421 0 0 0
1226 1 18.992901734992486 7.544524622895718 7.798469697221956 0 0 0
1107 1 23.88795188558767 6.233629172464492 6.1029396131583855 0 0 0
1196 1 25.293088319107266 7.801055180000963 7.656127908544617 0 0 0
1113 1 31.622864530338898 7.736365359407431 7.617561987783146 0 0 0
390 1 1.2099723854312008 9.277174045768687 6.268435514647547 0 0 0
396 1 2.341136936074808 11.392888801301861 7.969823809811244 0 0 0
393 1 7.716874342862112 9.754337274356558 6.442627536855691 0 0 0
399 1 9.55662050325393 10.961935845444883 8.120440638725126 0 0 0
394 1 14.276119964837354 9.539618735863884 6.364065163853451 0 0 0
402 1 15.975121652291474 10.901339374725069 7.843894867573397 0 0 0
1110 1 20.672756311155783 9.389614204603618 6.3872411628349335 0 0 0
1111 1 21.95775488092747 10.818763240300804 8.25422734088333 0 0 0
1112 1 27.177538012042845 9.355440866748943 6.198292694849421 0 0 0
1203 1 26.83363863783447 12.05460644097374 9.20658044064048 0 0 0
1117 1 28.886303118791883 10.867216963509513 7.793808240030028 0 0 0
1114 1 33.40587510745157 9.416558595440494 6.179777648671861 0 0 0
397 1 4.008723431280913 13.120987051757202 6.278899149057096 0 0 0
407 1 5.899328722040489 14.099560072066845 7.808609332594553 0 0 0
401 1 11.011950493264465 12.815475071150734 6.329803140745666 0 0 0
409 1 12.614857508268155 14.320296599759624 7.838706529342167 0 0 0
403 1 17.365038350699617 12.591850701275844 6.340739123847166 0 0 0
1247 1 19.090580187801013 14.169563620460599 8.030732967079931 0 0 0
1116 1 23.62089679143604 12.159201403336013 6.428480159399909 0 0 0
1123 1 25.486760202514404 13.864252041885683 7.679538764211242 0 0 0
1118 1 30.40351968238672 12.177493058448068 6.0486418856603805 0 0 0
1125 1 31.53999612293355 13.887875911437684 7.707114989587333 0 0 0
404 1 1.2655357727937324 15.737096854299498 6.179973253119233 0 0 0
411 1 2.91454017924629 16.862621878174043 8.003554298106105 0 0 0
406 1 7.585742481074645 15.81610660785977 6.145788685641142 0 0 0
413 1 9.131005319581217 17.222180766794132 7.9291196983056 0 0 0
408 1 13.929881493621215 15.930695088128566 6.120844592797306 0 0 0
511 1 15.486349896534312 17.3707199649796 8.09541874339703 0 0 0
1121 1 20.367210732607244 15.732491564265601 6.289368034707447 0 0 0
1128 1 21.93580152407289 16.88320115826368 8.084018980773104 0 0 0
1122 1 27.263524834441224 15.514467651698169 6.1032804708958714 0 0 0
1212 1 28.631460917219258 16.7190297929315 7.770383215150799 0 0 0
213 1 0.039962061284489675 20.162930902579554 7.782341662857855 0 0 0
410 1 4.647576369442208 18.485597255768617 6.659570918860869 0 0 0
514 1 6.1657980655161415 20.417717926822686 7.953070624989616 0 0 0
414 1 10.988773835548848 18.872591532578568 6.457265758949834 0 0 0
516 1 12.464342302232373 20.50143933024231 7.886767173584497 0 0 0
416 1 17.098519411457996 18.75464153945059 6.1850724620407345 0 0 0
757 1 18.531619790607284 20.440788931582087 7.487256012486939 0 0 0
1127 1 23.448186902581313 18.40351803303136 6.202114210817144 0 0 0
1217 1 25.170218844946156 19.953488592672432 7.737207493035459 0 0 0
1129 1 29.973874566773876 18.95076713327244 6.2802240634106745 0 0 0
1135 1 31.50373967305667 20.414504819348014 7.906877118671957 0 0 0
417 1 1.747022774204672 21.92265694878204 6.399576583410202 0 0 0
520 1 3.279268226245119 23.630931562246587 7.703019401078017 0 0 0
419 1 7.873304352354966 22.176563357516677 6.426629377707429 0 0 0
423 1 9.543347595213724 23.547432185421588 7.809326598134982 0 0 0
420 1 14.246526100428726 22.09277953043995 6.068568920499056 0 0 0
523 1 15.770277874691851 23.72939405925427 7.522342064160261 0 0 0
518 1 16.992700169904495 22.041518259985015 9.175301047343098 0 0 0
1132 1 20.71213095528059 21.581419059193003 6.114193112947943 0 0 0
1138 1 22.012151253247122 23.396192215528675 7.658303702763483 0 0 0
1216 1 23.888765121398357 21.980317101608268 9.121965148157418 0 0 0
1133 1 26.768232577769112 21.828955963907987 6.292697790191908 0 0 0
1221 1 28.261823468295482 23.657403711719972 7.914343008278776 0 0 0
1136 1 33.015162645852705 22.090405223565828 6.207823179395371 0 0 0
738 1 0.1755911588677586 27.241479199247554 7.779417893720401 0 0 0
519 1 1.544466004718253 25.341432416095 9.062819959991128 0 0 0
428 1 4.840446267931115 25.279391842294842 6.258050785628462 0 0 0
429 1 6.08500298976767 26.789854339956104 7.941589943384754 0 0 0
422 1 11.278740893220588 25.20535737184691 6.220674763822302 0 0 0
431 1 12.842085130512826 27.032281907054227 8.106438301102159 0 0 0
425 1 17.54430655991586 25.13718141679964 6.243474278922327 0 0 0
759 1 18.91654131297757 27.00163058942246 7.860574655444687 0 0 0
1219 1 20.334390565350464 24.98229903390619 9.014050814887286 0 0 0
1139 1 23.595862431515812 25.077786561904883 6.1924075165704915 0 0 0