LAMMPS data file via write_data, version 29 Oct 2020, timestep = 200000

4608 atoms
1 atom types

-0.08776802126056538 57.35827802126013 xlo xhi
-0.07801601889837073 50.98513601889793 ylo yhi
-0.07801601889837073 50.98513601889793 zlo zhi

Masses

1 18.015

Atoms # atomic

29 1 4.764664477915631 1.40811011071112 2.077074648403633 0 0 0
282 1 6.59898939836124 3.1243314766721717 3.452839483393793 0 0 0
111 1 0.23742221945112946 18.851632591718737 12.540148863179713 0 0 0
285 1 11.0309293497174 1.416818290576426 1.2750338069320586 0 0 0
537 1 15.897378973833993 50.82267419907029 3.5029611261868197 0 -1 0
541 1 17.226698658399506 1.242545496239755 1.5213922926144783 0 0 0
30 1 1.598801371497045 4.65054517456192 1.427455378833871 0 0 0
671 1 12.536495230300318 25.711919362564522 -0.018993710106827544 0 0 0
286 1 7.829855596633686 4.807183481527368 1.6436409214722623 0 0 0
538 1 12.762119961221046 2.6751244167687678 3.1489255974725276 0 0 0
542 1 14.383741652696527 4.36607808070323 1.362087394590273 0 0 0
57 1 3.5423052438193174 6.087411911884551 3.3875785122043225 0 0 0
61 1 4.6401404727368485 7.983803694651819 1.7383620961698032 0 0 0
313 1 9.503806009391221 6.392855368241781 3.322652812021706 0 0 0
317 1 11.092900610836493 7.697817048842098 1.2828267862153948 0 0 0
569 1 15.828297990599497 6.08010381611389 2.8685329219829394 0 0 0
573 1 17.398745190807325 7.999625894506146 1.6191964245017572 0 0 0
62 1 1.6751684079086513 11.018425717445073 1.2126066371217248 0 0 0
415 1 6.040454007827946 25.707456047521447 0.26950368035163813 0 0 0
314 1 6.3188048603094025 9.725700011461175 2.9718645050372765 0 0 0
318 1 7.8525204696348805 11.069464517206985 1.40335124713779 0 0 0
1248 1 9.285127655109939 41.393945319283134 25.096717669485376 0 0 0
574 1 14.30628607136982 11.083544243465996 1.0056630510498301 0 0 0
570 1 12.63424916300608 9.504937152323414 2.747652329935316 0 0 0
992 1 3.2427081960478126 41.020882745883014 25.290637676463362 0 0 0
215 1 -0.008826803929905577 37.88727560462449 6.225357049782619 0 0 0
384 1 9.081676830756773 22.553496731086227 0.060049839414839656 0 0 0
93 1 4.934590880997507 14.621565274505457 1.8229641743396636 0 0 0
218 1 0.21676278738685478 41.519262808876604 3.2263157938774762 0 0 0
349 1 10.872433456041286 14.513469187611696 1.1406807890288737 0 0 0
640 1 15.885673840584909 22.586842275494362 -0.00036784340417461703 0 0 0
605 1 17.392025204470738 14.862053015829348 1.1387833742267075 0 0 0
601 1 15.966895029787885 12.846242051055395 2.541547085277229 0 0 0
740 1 17.218231587226192 49.02663112289886 24.03890186086919 0 0 0
94 1 1.6925752357242994 17.208788319073825 1.6086856745033733 0 0 0
346 1 6.274162592364716 16.20577548208768 3.253750228915288 0 0 0
2335 1 19.017136895614414 50.86605897915764 25.28478441513324 0 -1 0
606 1 14.331437017600845 17.8230611413792 1.6382860177779535 0 0 0
602 1 12.667488313137525 15.958883231909653 3.1608584863241833 0 0 0
416 1 9.580475994629213 28.982327370989783 0.08773192044894917 0 0 0
125 1 4.731911173828465 20.973331064142542 1.3308201002936675 0 0 0
350 1 7.645340261035931 17.66314625498113 1.736654446213978 0 0 0
381 1 10.606298740456534 20.871233388514863 1.5527468128968853 0 0 0
224 1 2.9327051453699786 41.22527352642264 -0.04742670826073034 0 0 0
637 1 17.51128388573784 21.181885736798233 2.0011122604017695 0 0 0
1407 1 12.823885692768487 19.12909350697617 25.279114591637676 0 0 0
288 1 9.306913466710308 3.223581920998155 -0.05899515187924778 0 0 0
226 1 0.052146105571047485 47.85193899243255 22.284379868679633 0 0 0
480 1 9.518756343099785 40.89406932536653 0.16211404947739502 0 0 0
126 1 1.1754946953269763 24.035100725803595 1.5522188191628448 0 0 0
153 1 2.7697176479905785 25.66822811542152 3.135207342674111 0 0 0
157 1 4.643441673568697 27.313538859724034 1.7843778690010599 0 0 0
1024 1 2.8488210037253836 47.906329324992086 25.178199814343213 0 0 0
382 1 7.596685524644262 23.976053363866264 1.9112472957839668 0 0 0
512 1 9.580873914814507 47.86832009634824 -0.07465985783777696 0 0 0
638 1 14.081880037962417 24.08520909577451 1.5537688705345931 0 0 0
669 1 17.321224928283005 27.208433952638124 1.725677052398036 0 0 0
410 1 6.188436946809515 28.87364569633582 3.4327154145838485 0 0 0
413 1 11.318273247216982 27.271626855021676 1.710429191364035 0 0 0
103 1 0.06642317218471677 19.461315196211675 18.70619121457321 0 0 0
158 1 1.561614556573098 30.412401489997688 1.750363613106362 0 0 0
414 1 8.203344601768581 30.573349825507176 1.7302089062378103 0 0 0
1119 1 6.7483826497786605 12.601469947019604 25.128712827490258 0 0 0
670 1 14.323103473873728 30.255677413632224 1.5487996904139822 0 0 0
189 1 5.045885648555027 33.61018171808895 1.6801643430113264 0 0 0
352 1 9.231448986403839 16.338792240516053 0.030148998271515196 0 0 0
71 1 0.05250606084875642 12.831704955844247 19.259111458305863 0 0 0
445 1 11.292252594026689 33.7457994125775 1.629881349581114 0 0 0
698 1 12.971751376185221 35.15459567219557 3.4490628009687025 0 0 0
701 1 17.677921598659626 33.735390310598774 1.4033512082846362 0 0 0
190 1 1.7167858993864884 36.73819514933362 1.7782200065286915 0 0 0
446 1 8.2037224880597 36.82341062934327 1.6651522629843067 0 0 0
210 1 0.044908036611319285 41.25221887314474 9.552876286796709 0 0 0
735 1 12.975877115013528 37.94473021441058 0.3412899005871857 0 0 0
702 1 14.748689131288543 36.53959508187823 1.8322521117386696 0 0 0
729 1 16.086078956266903 38.049551810424674 3.2266188220431484 0 0 0
221 1 4.755465359172139 40.112141502341174 1.7189281905575187 0 0 0
477 1 11.255600643303275 39.446334960715205 1.8800986913057687 0 0 0
730 1 12.699721182468915 41.42113542245848 3.103288973350906 0 0 0
733 1 17.489257081001213 39.65680869048552 1.468586473196056 0 0 0
202 1 0.09143157746550273 41.448637954851094 15.757008811612973 0 0 0
222 1 1.75149026649496 43.068574919213745 1.7352910157172674 0 0 0
249 1 3.5051277570466053 44.74772215222299 3.0199379838942093 0 0 0
478 1 8.480659980336657 42.65869527877901 1.9372395095616213 0 0 0
639 1 12.52770165903236 19.338991818555826 0.346030352619128 0 0 0
734 1 13.978794146048381 42.937268690114834 1.4014558189252078 0 0 0
18 1 -0.030230443365317515 3.3212194134470328 9.455463144135214 0 0 0
253 1 4.954304101908018 46.12813096190884 1.499516275931433 0 0 0
170 1 -0.006112152173557206 34.78722653651511 15.872860702873915 0 0 0
509 1 11.144659571853056 46.65125289195794 1.7331610975208405 0 0 0
192 1 3.2946692542161604 35.18188100055659 0.22447154055904434 0 0 0
762 1 12.832703164232592 47.9485897228069 3.260171943193708 0 0 0
23 1 0.27981417690273047 0.04125334257021507 6.259709242729616 0 0 0
765 1 17.58534233086116 45.90764419956517 1.425373228353774 0 0 0
254 1 1.4649675019893726 49.24164651685936 1.6199003034186068 0 0 0
281 1 9.394219177384148 50.90681695507625 3.0929683599515316 0 -1 0
510 1 7.904935182793224 49.08698936202471 2.037761712127495 0 0 0
766 1 14.54258610915294 49.4301255601643 1.7306246505730298 0 0 0
1151 1 6.7398573798265495 18.948331179150983 25.364308719937465 0 0 0
27 1 1.6648545441961162 1.7110695613900957 4.581388019778429 0 0 0
279 1 5.96361022083066 50.91761186893527 6.3822694863942315 0 -1 0
283 1 7.986233216676698 1.302672917327568 5.042266015887935 0 0 0
539 1 14.064140553682398 1.0924626209167372 4.791483511735397 0 0 0
10 1 -0.06930486200604627 3.0559512328963794 16.107666397096686 0 0 0
28 1 5.128499701286816 4.676674226156562 4.84793772495796 0 0 0
24 1 3.4047007009318873 3.0208258019943055 6.206828482045033 0 0 0
280 1 9.415986424779797 3.067785984494859 6.459695997307756 0 0 0
284 1 10.722072814395851 4.584267266396076 4.6961013461963566 0 0 0
536 1 15.718809655487 2.779786471868709 6.194120636235491 0 0 0
540 1 17.503397910949843 4.520253826865505 4.813143322890326 0 0 0
1663 1 18.996758360687082 19.30592408212064 0.4574766356016424 0 0 0
59 1 1.7973858445678912 7.717696769063801 5.110164285885825 0 0 0
315 1 7.837159252413623 8.225637442562448 4.563420472922622 0 0 0
567 1 12.601510493857328 6.249108146601997 6.179862237095759 0 0 0
571 1 14.174116803535972 7.782219461934039 4.434354797709232 0 0 0
56 1 3.4473089616860277 9.853600025016906 6.000107754196753 0 0 0
60 1 4.818085487464853 11.411703990609539 4.44099547757014 0 0 0
312 1 9.661868546380873 9.583458456584564 5.925183497445628 0 0 0
316 1 11.076700670310176 11.151808211025173 4.283604132710646 0 0 0
572 1 17.2780380761529 11.092696766551686 4.501160228425171 0 0 0
89 1 3.1373700595777834 12.670313849699381 2.9100243623696755 0 0 0
91 1 1.2824289689225943 14.020756856637355 4.701242978001955 0 0 0
343 1 6.602922839361837 12.900872034277166 6.110527878312882 0 0 0
347 1 8.0858917514958 14.354954042359479 4.3749322124430865 0 0 0
345 1 9.691105601955888 12.628620328243494 2.615467308121025 0 0 0
603 1 14.696152087626777 14.290392668479436 4.62438765903034 0 0 0
599 1 12.605958499645924 12.874408933094124 6.012573808834404 0 0 0
92 1 4.661271770940959 17.83407320135235 5.135609785685749 0 0 0
88 1 3.032687019159868 15.918069855179102 6.169622145705535 0 0 0
348 1 11.11997430595655 17.620926183917373 4.691213809118973 0 0 0
604 1 17.34032984180662 17.891737464195497 4.6765330371930744 0 0 0
121 1 3.3658572920681684 19.274680137926516 3.121302115195204 0 0 0
375 1 6.445838767989718 19.19067039589217 6.522482154695162 0 0 0
377 1 9.35719431351391 19.19514429128965 3.189669981914223 0 0 0
633 1 15.874781189846429 19.430297563820783 3.2384037396804284 0 0 0
635 1 14.400499974362575 20.903387786197868 4.890856178564502 0 0 0
123 1 1.714125807494541 20.84046871992553 4.8886135367679815 0 0 0
379 1 7.911096348239137 20.71964625226998 4.984884115061843 0 0 0
378 1 6.29918369612096 22.27230379167695 3.4401785691734164 0 0 0
376 1 9.4532932696708 22.1638933406633 6.457950606449929 0 0 0
634 1 12.609018633291502 22.319217052018807 2.927108234194131 0 0 0
636 1 17.828280906236085 24.107227663388542 4.991622813404278 0 0 0
58 1 0.37203453082891436 9.60770050011026 3.188295383295471 0 0 0
124 1 4.649524851952947 24.14551118652909 4.803862857130689 0 0 0
409 1 9.483653651359836 25.529763544037205 3.211426554943096 0 0 0
380 1 10.995665466882068 23.777229419400495 4.69490337742177 0 0 0
667 1 14.065686228913226 27.380314990349294 5.2094935343457545 0 0 0
665 1 15.89290054804307 25.58948764640991 3.363541551736893 0 0 0
155 1 1.3201896175629153 27.271453958040315 4.967377989667373 0 0 0
411 1 7.981926522961215 27.254919764834018 4.72527846554775 0 0 0
408 1 9.37362177825662 28.843897950789557 6.331611628916673 0 0 0
666 1 12.871755230009617 28.855943963049096 3.246832108924336 0 0 0
664 1 15.724867454104139 29.1324138096717 6.611662326025227 0 0 0
1215 1 6.0039070397818985 31.99045989084401 25.42245186359827 0 0 0
185 1 3.190604959541796 32.06249818549027 3.3479468476038527 0 0 0
156 1 4.639754711222252 30.34338944235806 5.085306291016706 0 0 0
443 1 7.781320081802046 33.63216900264807 4.860277901764408 0 0 0
441 1 9.832822021078725 31.89888762915003 3.2024228380742716 0 0 0
412 1 11.301141656501004 30.33973690749073 5.069900663838252 0 0 0
697 1 16.032759436125282 31.976291420033593 2.9797766486743447 0 0 0
668 1 17.185406607403966 30.232403085398925 4.516749615731336 0 0 0
187 1 1.4581279458836784 33.750687207052025 4.826412932720984 0 0 0
184 1 3.247336376271562 34.9035800694686 6.41659087615876 0 0 0
442 1 6.497139963427 35.10591673857199 3.1303195311534964 0 0 0
440 1 9.779232566779664 35.04450426509858 6.530216515302356 0 0 0
699 1 14.543331280099894 33.36294005661138 4.760566722275481 0 0 0
484 1 11.235780001584851 49.10995098037078 23.527071342620264 0 0 0
217 1 3.3689259964120843 38.11155651636706 3.2333092098134957 0 0 0
188 1 4.787797093292573 36.505913643418026 4.8258091012865965 0 0 0
473 1 9.727908583166561 38.05588767184416 3.6236421500171065 0 0 0
444 1 11.35716987793042 36.6916237007775 5.279358105120891 0 0 0
700 1 17.411350133099774 36.67038846536515 5.06546325335374 0 0 0
219 1 1.750244410108447 39.70564861546562 4.997313843674243 0 0 0
474 1 6.610042418324681 41.48062056606511 3.589180187496945 0 0 0
475 1 8.240269446729965 39.66298977767403 4.759344657245105 0 0 0
472 1 9.755149285610562 41.35711186691752 6.423920150502262 0 0 0
731 1 14.452057568729371 40.087261470441504 4.803109545045021 0 0 0
220 1 4.760276592888236 43.37577084791988 4.6688413825486315 0 0 0
503 1 6.633290958788191 44.48039959174173 6.681559438148579 0 0 0
505 1 9.703599466073111 44.784516388999634 3.37341753554751 0 0 0
476 1 11.276270542778795 43.31101686665832 4.841428949204552 0 0 0
761 1 15.85115810064135 44.61880092038075 3.066008066486281 0 0 0
759 1 12.850940819817692 44.63773884034016 6.489386933619784 0 0 0
732 1 17.419150873565787 42.807469673441474 4.688842797325729 0 0 0
55 1 0.026351013866431572 6.18042262412196 6.584770685377169 0 0 0
251 1 1.4361616155993124 45.87904456195682 4.754039320664901 0 0 0
248 1 2.9798272310714222 47.09596975137343 6.451773508643787 0 0 0
506 1 6.406379915992413 47.49807203847128 3.6634041771088404 0 0 0
507 1 8.049678394766321 45.79253821144984 4.8826310332070495 0 0 0
504 1 9.267301449853958 47.709355567674464 6.3858911630021105 0 0 0
763 1 14.302777781290033 46.27692545785597 4.76902479069503 0 0 0
25 1 3.1145616084736014 50.875431951343714 3.4916752848359915 0 -1 0
252 1 4.483551552321688 48.94913027977617 5.154152808333872 0 0 0
508 1 10.882650585853618 49.345002612367125 4.719422089959211 0 0 0
535 1 12.567545285757722 50.7803852057024 6.373911960201189 0 -1 0
764 1 17.660075245301464 49.10979060288483 4.614237111723184 0 0 0
21 1 4.622514536556333 1.6263278558935303 8.034421816580174 0 0 0
17 1 3.0204888961574166 50.92645112519564 9.776430249932535 0 -1 0
277 1 11.393007670718676 1.5322616599503012 7.846428310381872 0 0 0
533 1 17.79839783294169 1.5001411223871313 7.870170789254145 0 0 0
114 1 0.06316836121217556 22.125734946612976 9.597861652721155 0 0 0
22 1 1.8161681919941397 4.48414104934331 7.791433011237881 0 0 0
274 1 6.3149746371141156 3.0422202570957237 10.05987137998861 0 0 0
278 1 7.557449062263449 4.444049461921836 8.268959828816541 0 0 0
530 1 12.784765112956903 3.221109259190374 9.580266921056314 0 0 0
534 1 14.2214472535761 4.675803851960208 7.916252362091039 0 0 0
49 1 3.1104766388208205 6.336707284102201 9.210147125589794 0 0 0
53 1 4.910214854477686 8.189688223138885 7.815429832990278 0 0 0
311 1 6.659766946587195 6.463124478121006 6.6675900295689425 0 0 0
309 1 10.804501479616873 7.868663941164268 7.848709775152478 0 0 0
561 1 15.854483301977616 6.504961503577906 9.145878898456235 0 0 0
565 1 17.585031065349533 8.038561956498578 7.629519410163119 0 0 0
74 1 0.22024730632980682 15.668774720823736 15.766004411554814 0 0 0
54 1 1.7339520022421537 11.232104179479832 7.89674618768143 0 0 0
306 1 6.547346253461773 9.647092218077763 9.421290136615543 0 0 0
310 1 8.240749626236342 11.249027818110683 7.754631506470499 0 0 0
562 1 12.562765760481208 9.403952092692833 9.305419866717688 0 0 0
566 1 14.07622807408242 11.137097890091816 7.4503433582997864 0 0 0
568 1 15.85563265623155 9.354283163004231 6.063925869224787 0 0 0
257 1 9.383275253707387 50.88604839333024 22.153196897806264 0 -1 0
81 1 3.161599479622869 12.831855078327768 9.396814095529132 0 0 0
85 1 4.969702127836068 14.47627370749933 7.895942931035808 0 0 0
341 1 10.91756706215014 14.354420770716356 7.578670275183185 0 0 0
337 1 9.807332590863668 12.738193264593752 9.528538210208213 0 0 0
597 1 17.134878251314266 14.172764439404112 7.666436269378667 0 0 0
703 1 12.64977744578947 31.982650324006787 -0.005938322515557898 0 0 0
98 1 0.11059682830250173 22.616801143686967 22.2006589958735 0 0 0
86 1 1.6386738750641328 17.418684731058036 8.027355972814194 0 0 0
344 1 9.378580348515028 15.876709499862086 6.235499920051179 0 0 0
342 1 7.71063006909817 17.377052912633513 7.952996468717318 0 0 0
338 1 6.456761978506558 16.030965331969174 9.669505168619537 0 0 0
600 1 15.968733542283505 16.21138869726455 6.178209507022631 0 0 0
598 1 14.5429156073847 17.31449399617712 8.139021630175668 0 0 0
594 1 12.560259773594968 16.007207787948975 9.335877647690173 0 0 0
113 1 3.2742071167819082 18.979823895994286 9.640121953504815 0 0 0
117 1 5.00367022899329 20.73365494231221 8.063905869690773 0 0 0
631 1 12.86613505524471 18.80471460236222 6.363747438036022 0 0 0
629 1 17.526203481412217 21.106254459451968 7.950251427981938 0 0 0
120 1 3.407778241468664 22.371657160865652 6.559617020279497 0 0 0
373 1 10.906211346424575 20.501637889816973 8.029331870214794 0 0 0
632 1 15.597809586019618 22.427321355550156 6.5154931397424 0 0 0
630 1 14.182202319757515 24.034112581371932 7.94590409660065 0 0 0
118 1 1.4432630105189836 23.77321562644198 8.108148011846847 0 0 0
407 1 6.3275586138744995 25.81778916513162 6.4570635486414645 0 0 0
149 1 4.479520986227698 27.135865869327198 7.906222054017882 0 0 0
374 1 7.928852118190443 24.03501286447933 7.951799397068934 0 0 0
663 1 12.524562573283875 25.564608212336584 6.651810113961173 0 0 0
2 1 0.005888533528844983 3.054937823408122 22.521028175718545 0 0 0
152 1 2.9509016211119694 28.842812952739642 6.420623540822216 0 0 0
402 1 6.3549845357843315 28.942853165871526 9.623758245908359 0 0 0
405 1 11.078418316708285 27.374394852497016 7.8769288051988795 0 0 0
661 1 17.18130252730907 27.39486720547025 8.198879940579753 0 0 0
150 1 1.3910135748186983 30.64919279097283 7.963062161675879 0 0 0
50 1 -0.0716501866011521 9.448291360045793 9.51040268681885 0 0 0
439 1 6.091513472058143 32.14628141733793 6.71320163526121 0 0 0
406 1 7.840000899420307 30.527613376031923 7.962169059092126 0 0 0
695 1 13.042419777951736 31.87489901337743 6.562622268654366 0 0 0
662 1 14.091263174025944 30.179658857674216 8.327932286227417 0 0 0
181 1 4.546516330663267 33.54977276565927 8.32142518913362 0 0 0
434 1 6.31382145624771 35.200244334918054 9.656073537195624 0 0 0
437 1 11.37517758502105 33.125047153740965 8.077269232438729 0 0 0
696 1 15.940402163676442 34.959603577322085 6.572243998305567 0 0 0
693 1 17.550406601208948 33.67029296679641 8.126953146110008 0 0 0
1055 1 5.837360519382075 0.1775806999228559 25.178414693651334 0 0 0
182 1 1.4594581435910894 36.396218177625514 8.002832502381784 0 0 0
209 1 3.322465551338905 38.02746171309437 9.177286634978094 0 0 0
471 1 6.318425538402594 38.253005569886966 6.288658245505124 0 0 0
438 1 8.091991828990517 36.752066264668926 7.786619593195663 0 0 0
727 1 13.161259888846876 38.33917552471797 6.629544032994076 0 0 0
694 1 14.428085394681851 36.48662509927664 8.2279010800846 0 0 0
228 1 4.508894441070801 49.45754154859087 23.488190865483418 0 0 0
1056 1 8.949118492290136 2.9699784050049107 25.436310697843012 0 0 0
216 1 3.1611069701455423 41.915007850800095 6.116428299926757 0 0 0
213 1 4.569930416851026 39.79463661912699 7.512787923414048 0 0 0
469 1 11.192110244280347 39.82772887927079 8.047548211477565 0 0 0
728 1 15.92406470669351 41.58042162967938 6.670391641368616 0 0 0
725 1 17.192750664022817 39.833170913550674 8.334272223896688 0 0 0
739 1 14.196302458309058 45.96405436629175 24.068522028172968 0 0 0
214 1 1.509630321581407 43.19758931209154 7.97881814979076 0 0 0
470 1 8.112571063104017 42.706766284234035 8.012200015602101 0 0 0
726 1 14.306094947141435 43.12010256060894 8.451645807722292 0 0 0
753 1 15.631607642600185 45.20181177640836 9.88973241905362 0 0 0
245 1 4.881043900359265 46.14220447330915 8.21620487707271 0 0 0
498 1 6.316617898667905 47.57327040723722 9.725656107536704 0 0 0
501 1 10.907431733180314 46.32324193166379 8.090211384415294 0 0 0
754 1 12.841587430373892 47.63027239024953 9.629602873784513 0 0 0
760 1 16.19567739720802 47.68898019518112 6.142545833348457 0 0 0
757 1 17.796223559580213 46.17665183808445 8.113320378078818 0 0 0
246 1 1.6199396388003904 49.36294284555146 8.023325942779003 0 0 0
119 1 0.0027212175315953213 19.143806213782064 6.456943582550372 0 0 0
502 1 7.77776395766693 49.302553054221605 7.904522209476969 0 0 0
273 1 9.38494645539586 0.058572655077851365 9.20865913663803 0 0 0
758 1 14.423693722616894 49.01094601693521 7.72913396997242 0 0 0
19 1 1.1532278758353223 1.6125925803790722 11.061825767490157 0 0 0
271 1 6.160795769893093 0.41767023015288707 12.680661606565497 0 0 0
275 1 8.269930281046685 1.5396503778776784 11.491196411852517 0 0 0
531 1 14.370949728860465 1.7251498327307289 11.18840759884207 0 0 0
529 1 15.990038859869266 0.09062814662919713 9.311527837266132 0 0 0
16 1 3.002582142596634 3.198020480845774 12.811333332138531 0 0 0
20 1 4.764818755385585 5.222422300505849 10.902489194956303 0 0 0
272 1 9.780390154340154 3.6150812302151736 13.080140325524063 0 0 0
276 1 11.524821241149054 5.20694303674644 11.256095851979456 0 0 0
532 1 17.359182761884163 5.0837161100450805 10.95782362589819 0 0 0
51 1 1.6837154949534088 7.8382241049165415 11.127108464875194 0 0 0
307 1 7.94456888683108 7.408147680163475 10.955750694770002 0 0 0
305 1 9.600202392902293 5.820124851908065 9.46606192501281 0 0 0
563 1 14.441190371758697 7.999115900337943 10.61020160050445 0 0 0
511 1 6.90122036707105 44.42052847954797 0.25940416562386565 0 0 0
52 1 5.202029686937701 11.30696811730454 10.769428648734356 0 0 0
304 1 9.040872457325063 9.253066436280204 12.660035203146457 0 0 0
308 1 10.893108566271422 10.88798320687633 10.966325368256442 0 0 0
560 1 15.73421902507688 9.560899709095189 12.602383065333303 0 0 0
564 1 17.15845621656398 11.1878014666957 10.846109480466337 0 0 0
83 1 1.3222105370996775 14.26113138637402 11.39232456466551 0 0 0
1623 1 19.04461240503158 12.702557415040022 6.193317359293573 0 0 0
339 1 8.162569674760936 14.479859235626373 11.138420293406583 0 0 0
595 1 14.158860349945142 14.487629769268269 10.901633088331002 0 0 0
593 1 15.370656917419588 12.680875330718454 9.399294653101942 0 0 0
1375 1 12.842660744286093 12.85019797639266 25.41908395375501 0 0 0
84 1 4.853450363731525 17.458524738955425 11.33594801597704 0 0 0
336 1 9.243551832126629 15.885894777087504 12.97192879123091 0 0 0
340 1 11.080778639753545 17.30833589662133 11.294259614628869 0 0 0
596 1 17.600086688758168 17.256806225555003 11.051653115749088 0 0 0
592 1 15.881076962292738 15.606174510112476 12.428846533302709 0 0 0
115 1 1.4898909255633075 20.66647841065097 11.014302220206941 0 0 0
367 1 6.357992799466722 19.18427906281932 12.76617966926295 0 0 0
371 1 7.974496323357354 20.701940410112115 11.243895773063189 0 0 0
369 1 9.50056623861616 18.84666247751417 9.57782527057403 0 0 0
627 1 14.768198344554351 20.528322617867197 10.875705671134066 0 0 0
625 1 16.449909791127208 18.988568513164886 9.242493023402847 0 0 0
116 1 4.621525488929072 23.820044964803365 11.226827618334571 0 0 0
370 1 6.357374164771329 22.410876579760668 9.694655651178637 0 0 0
626 1 12.920350258672526 22.002796087845365 9.70606985447482 0 0 0
624 1 15.932803155386164 22.35222382054823 12.827877856261175 0 0 0
628 1 17.129693777822073 24.12302218607954 11.081941897415069 0 0 0
145 1 3.0068477802637914 25.725636276766128 9.554345788782925 0 0 0
147 1 1.3839528756521224 27.621187217500953 11.260299976622443 0 0 0
399 1 6.335850398131471 25.377920238308622 12.930158728804859 0 0 0
401 1 9.674548295415294 25.73653188768276 9.40589143709165 0 0 0
372 1 11.385675578961377 23.758725843338798 11.371233028571755 0 0 0
657 1 15.63391871292791 25.628588754063422 9.556595696515636 0 0 0
403 1 7.906175632595212 27.03699309629789 10.959498841909383 0 0 0
658 1 12.352302418977818 28.363564643894406 9.941293113663827 0 0 0
659 1 14.245106214334088 26.899894793283973 11.670401884436316 0 0 0
177 1 2.9292545257110447 31.984612399153885 9.520207370550457 0 0 0
148 1 4.746602964231697 30.564553787358093 11.283148829395648 0 0 0
433 1 9.393569763143212 31.755383268804778 9.643895650150322 0 0 0
404 1 10.812949354398311 30.237588774000006 11.48991494408788 0 0 0
660 1 17.56860739752565 30.64205239631291 11.027025912575848 0 0 0
689 1 15.76478649002566 31.99956940698434 9.657487027381269 0 0 0
179 1 1.270426856000406 33.543740836613296 11.37052001899911 0 0 0
435 1 7.82985998743809 33.54696360303791 11.206367519411765 0 0 0
690 1 12.782036546822159 35.10723388542965 9.717287887501982 0 0 0
691 1 14.240968501563716 33.54117827791448 11.271187314509545 0 0 0
688 1 16.04317771763834 35.1007421822725 12.822406915084631 0 0 0
180 1 4.506252841368972 36.84296507556587 11.524322057452393 0 0 0
465 1 9.604662801032722 37.95267574906373 9.631711296576487 0 0 0
436 1 11.113138212382188 36.62648765371739 11.461561584642215 0 0 0
721 1 15.692492974708856 38.36403951788975 9.786932999508736 0 0 0
692 1 17.539472055911368 37.10223880474513 11.555119520507288 0 0 0
211 1 1.8194604754920403 39.661306327845494 11.060537154840505 0 0 0
208 1 3.3509614847213127 41.48198783221815 12.675719066875988 0 0 0
466 1 6.532679327762355 41.03399721505434 9.403545740213081 0 0 0
467 1 8.07104946379628 39.50088179977608 11.136084926906427 0 0 0
722 1 12.6707358778909 41.5601769207873 9.916591964619242 0 0 0
723 1 14.250479126157632 39.76645433054918 11.290646550137133 0 0 0
720 1 15.663400865409159 41.55007664582925 12.982017615766281 0 0 0
418 1 6.472662158558111 34.876458438834405 22.11231110835028 0 0 0
241 1 3.3120128309316996 44.526796102748264 9.447463279645929 0 0 0
212 1 5.013124769245725 42.938307313574185 11.004299406339646 0 0 0
495 1 6.275988371166214 44.53170044516054 12.632915009942186 0 0 0
497 1 9.68110856110559 44.414509181564114 9.813079072122298 0 0 0
468 1 11.131663884753687 43.28743661787219 11.901284508124995 0 0 0
724 1 17.034218184146045 42.99618007850516 11.054630460160059 0 0 0
243 1 1.610707730844111 46.132072054145596 11.087349987859374 0 0 0
499 1 8.33345270806793 46.291907439055294 11.121642351560705 0 0 0
496 1 9.79709483441425 48.04515931915739 12.851769091104632 0 0 0
755 1 14.089531624566298 46.59097798730323 11.532346969732858 0 0 0
752 1 16.182989215001005 47.93397415222873 12.55383757067342 0 0 0
244 1 4.905936747878736 49.370815482298894 11.191529091132145 0 0 0
500 1 11.308895366394577 49.40876860707381 10.97233460384783 0 0 0
756 1 17.617301092650916 49.412244966639236 10.716514479301962 0 0 0
13 1 4.607439600357003 1.7977176422658665 14.67916642524875 0 0 0
9 1 3.0589320852936805 0.02914394946299094 16.200542398134886 0 0 0
265 1 9.628585455864187 0.11714782857583828 16.068299296588787 0 0 0
527 1 12.992036006359989 50.945747881703596 12.97020549226647 0 -1 0
269 1 11.361739815705855 1.8026626600638618 14.40882794477958 0 0 0
528 1 15.927604003243435 3.3761690940478606 12.513068938195895 0 0 0
525 1 17.70147828455861 1.7983758702288872 13.870285941563958 0 0 0
14 1 1.3879276783588614 4.8046957002830855 14.255113047712888 0 0 0
676 1 17.589632820031945 36.43924308588066 23.620459239037338 0 0 0
266 1 6.243283978849577 3.3947183667507628 15.997994684688965 0 0 0
270 1 7.881871827057312 5.280908708644619 14.428958184886591 0 0 0
526 1 14.428055403414582 5.066617759467542 14.350552260561932 0 0 0
66 1 0.057930809916044684 16.026325638468123 22.352835111925533 0 0 0
41 1 2.516839634144266 6.916197233100702 15.95311320759307 0 0 0
45 1 4.181105306785157 8.640854158214145 14.265555844898374 0 0 0
303 1 5.9416892134329995 6.6263160306822675 12.687598331237291 0 0 0
297 1 9.717954327074835 6.486102474587269 16.103430098982955 0 0 0
559 1 12.949701038966777 6.91210122761324 12.74345828660205 0 0 0
301 1 11.170386180956056 8.33595057248394 14.31635846665729 0 0 0
553 1 16.1236737082623 6.425626675345223 15.827435039556837 0 0 0
557 1 17.510822534209648 8.112771526948123 14.327272671902877 0 0 0
46 1 1.4433804170976787 11.251754254100405 14.16682694944443 0 0 0
48 1 3.1611080788644315 10.066365326322304 12.110914958318807 0 0 0
302 1 7.751001100537612 11.330606668071391 14.132710456925997 0 0 0
298 1 6.067945656577981 9.61747845359917 15.792219771997834 0 0 0
558 1 14.082506429584356 11.44496695747189 14.107816037611386 0 0 0
554 1 12.770101175754949 9.837775407785319 15.82225703335394 0 0 0
77 1 4.818686036722897 13.994781307002802 14.645469547035605 0 0 0
73 1 3.0891010052543075 12.375037913639153 15.986776525178684 0 0 0
335 1 6.374801713213146 12.916743854054221 12.454845363400016 0 0 0
329 1 9.293186711135501 12.733880778667354 15.912490154030086 0 0 0
333 1 11.147255677109506 14.381004925539475 14.4435672565062 0 0 0
591 1 12.536690174854664 13.005622124224352 12.611527250060446 0 0 0
589 1 17.244834339316203 14.263289817378853 14.171916003829953 0 0 0
78 1 1.9239085879449749 17.42499645826714 14.38599296287302 0 0 0
80 1 3.184377250867179 15.619905458113472 12.790963805436078 0 0 0
334 1 8.037990322689867 17.67839723917767 14.412991884384454 0 0 0
590 1 14.398520472064718 17.594780258751733 14.055644466799691 0 0 0
250 1 -0.08309667693364986 47.6433700076596 3.2889670237203874 0 0 0
365 1 11.436645295978302 20.701159729781743 14.207447407383375 0 0 0
361 1 9.704707850630415 19.046536126446053 15.792935609180011 0 0 0
623 1 12.852698542525273 19.24820647445817 12.5181692465998 0 0 0
621 1 17.689733749702018 20.633119539956542 14.230201519654818 0 0 0
112 1 3.1683730789515434 22.328145587907315 12.82497018280328 0 0 0
110 1 1.7112882762154962 24.280053111544706 14.178370753640085 0 0 0
109 1 5.01117185515752 20.775046768393892 14.244748998785962 0 0 0
362 1 6.253250173590628 22.28250133935224 15.92493556593228 0 0 0
368 1 9.61257210343778 22.172480596448597 12.66626916695132 0 0 0
618 1 12.996876298163977 22.524446137529463 16.089455645537548 0 0 0
137 1 3.3406704180444216 25.72657486590094 15.942316771982163 0 0 0
366 1 8.118757221152055 23.524071627390363 14.478101803571516 0 0 0
655 1 12.600970657506062 25.449078600856083 13.322746601030575 0 0 0
622 1 14.686286000804563 23.921884686164308 14.662692679913338 0 0 0
649 1 16.228548412613463 25.60007170065855 16.187219316904365 0 0 0
141 1 5.033072529289946 27.276301912221832 14.453007872566802 0 0 0
144 1 3.4870615337612096 29.005083153905407 12.910744625983451 0 0 0
400 1 9.406396369409665 28.510198069974926 13.134110370040098 0 0 0
397 1 11.315229958769264 27.3065669779605 14.819520542408766 0 0 0
650 1 13.25542196657854 28.46096595556524 16.23759635054207 0 0 0