LAMMPS data file via write_data, version 29 Oct 2020, timestep = 200000

4608 atoms
1 atom types

-0.21447739909568142 53.61447739909142 xlo xhi
-0.2910129701866495 51.19813297018747 ylo yhi
-0.2910129701866495 51.19813297018747 zlo zhi

Masses

1 18.015

Atoms # atomic

1484 1 5.104361014384453 31.52463031712639 24.121506314067393 0 -1 0
3586 1 6.728685473285371 38.3465731990031 24.996532483052324 1 0 0
1506 1 14.036478361416194 1.3203722574308818 4.628596289707552 1 -1 1
36 1 15.304780161519563 50.335172366947404 2.6438016935445323 0 0 1
1542 1 2.021708576769377 33.179936545319904 0.6489912881818573 1 0 1
2988 1 -0.14935021800356196 27.973287116074186 16.163543805525602 1 -1 0
3200 1 11.150363715764906 0.6307414479118043 1.2931981618579393 0 1 0
3125 1 0.10540981976319402 37.15878857428522 8.654287335082856 1 0 0
2443 1 16.029329932492015 37.48362760045183 3.078790726014757 0 -1 0
2499 1 10.504261527572051 5.29079820055905 1.586669324314472 0 1 3
2719 1 16.074512252256017 6.898386179785829 0.9514982551719386 1 0 0
1767 1 5.835342653274603 4.770631727785044 0.15033789972839656 -1 1 1
3801 1 0.2051259865867806 11.902755551386186 6.890100809813557 0 1 0
2280 1 15.301649678340558 11.123049413197316 0.6931992843046512 -1 -1 0
2870 1 5.876731829502056 12.750281448650549 5.190475190622538 0 0 0
2235 1 5.386893943796641 12.07188500687572 1.504775678901212 0 1 0
2515 1 5.67737913269745 28.65008216068016 25.407568131360467 0 1 1
4179 1 5.089418836435744 14.643682837441501 1.289896239009609 1 0 1
2833 1 14.318155728080768 13.369203108200358 2.342889916211573 0 0 1
4466 1 0.5259816709570844 43.59521476471272 22.593653744840708 2 0 1
1501 1 7.818850813919967 14.665210721430068 0.7829822701554554 0 1 0
1476 1 4.732007694346003 21.802294381468567 -0.2591942963821603 0 0 1
3757 1 11.93993775662648 16.50626568221412 0.8995331974651362 1 1 0
3061 1 2.9314127069773748 27.72086207018934 23.306217203897116 2 -1 -1
2562 1 0.056609444530041686 6.507696676278013 16.240012436459047 2 1 1
2065 1 4.106913403971184 11.878041308322958 25.027530050795328 0 0 0
1276 1 13.534027937277195 19.062535420663092 3.0464723031014436 0 -1 1
399 1 9.77482897349934 14.48318578234682 24.78399496943652 0 -1 -1
1423 1 2.1616053397252997 12.373060388413133 20.69898356804709 0 0 0
3025 1 2.4060573470664535 20.890692308937354 0.8967472076103522 1 0 -1
1636 1 8.886243695235855 21.280309287053228 7.61967552263762 1 0 0
668 1 7.952378728312791 21.3785105846094 4.508957987956153 1 1 -1
457 1 16.63828684152115 22.503485597287778 2.4950470302451113 0 1 1
1730 1 2.5707152532213144 27.044327931921273 0.7158167438582148 0 0 -1
218 1 3.211119273938902 24.14970941992902 0.8101104224845312 0 0 0
2035 1 5.341857276137412 24.4359079282541 2.9059848281099 0 1 0
908 1 12.087589018425456 4.3739725688338496 23.02518682626345 0 0 0
3282 1 9.675838792169394 22.880266757029077 3.3814421068626936 0 -1 0
3362 1 11.516561980508026 22.560733058373017 1.046573475766501 0 0 0
3353 1 0.9243545208981563 37.149714634519064 2.3024110547514325 2 0 1
3778 1 7.887482398618433 27.692671575285132 22.99938812026384 0 2 -1
4070 1 -0.013794948232164622 27.489793651256186 0.8559654114080009 1 0 2
3363 1 1.8126143297623534 18.807897706523097 12.324852067576257 0 -1 0
2744 1 8.011335698518264 25.50230209213376 3.217500658011786 -1 0 1
1984 1 0.12596898579429322 10.424396054659406 14.92177397448078 1 0 0
1412 1 11.540030398130922 29.69139662494494 5.94433012968652 -1 -1 0
1806 1 11.974740634192626 26.959786073614303 1.3379759590262565 0 0 -1
10 1 16.34384516988487 40.007396791561916 2.3051298460875507 -1 -1 0
4547 1 9.112046228496542 33.091037921840424 1.859960860149652 0 0 1
4226 1 7.858851430823593 30.642911973182702 1.413652774304178 0 0 1
4359 1 9.161819522895033 28.50988905730068 1.6666574529556912 0 0 0
1376 1 16.884621433285325 46.297298919735404 2.8668857912900227 0 0 0
3668 1 1.9957255307939978 30.945067107426496 1.7972908468902902 1 0 0
2007 1 2.3919186323348156 34.644501227038724 3.0124500530697347 1 0 1
3272 1 6.080096036088961 34.454018168797184 1.861154627172378 1 0 1
1386 1 12.77415400124318 27.135528753259543 25.254153806307677 -1 -1 0
3099 1 11.827842157644183 34.52227935625631 4.3171738907150194 0 0 0
2160 1 13.468933816846032 30.525150988212495 1.4237171956284163 1 -2 0
4536 1 8.94318272912877 20.253231659938294 0.6831808457232398 1 1 1
2566 1 17.725206225399425 37.412925083017534 18.06603503433082 0 0 0
2270 1 13.265856373253971 36.92377415548522 3.9396451695008228 0 0 1
2037 1 4.75551091916266 9.682591096568629 23.705500673143113 0 -1 0
2362 1 13.6201567319931 38.07738086985477 6.4647457395710415 -1 -1 1
1554 1 0.4000309040250196 11.755334372565759 0.8870439755819992 1 0 0
1352 1 5.20552859500483 40.49667811404995 5.164402711054379 0 -1 -1
495 1 4.600685082973414 41.0844381067559 2.377681929586004 0 -1 1
4042 1 -0.16544340121403253 38.95584791738986 12.158605129280247 1 1 1
4191 1 2.2559374330269706 0.7288447774399742 24.936435699809838 2 1 -1
4366 1 13.44342055408848 38.06577762351021 0.8852921797336906 1 -1 1
2592 1 7.013597976416478 25.59019911275364 0.19999589176408739 0 0 2
423 1 4.626484078301842 43.32228633876751 0.6125553468741125 0 1 0
3680 1 4.0037537813248845 38.34342070114125 1.4760031475219422 0 2 1
994 1 0.12829292956164395 2.369876578030955 20.476390906706992 1 1 2
4147 1 10.298165162164882 18.020974761473287 24.802074989473773 1 1 0
2616 1 12.777595067698458 45.01445658667746 1.3154211703832404 0 1 0
3015 1 15.364917381249903 43.75015859602576 2.1067814990371 0 -1 1
2252 1 0.2172429855682927 23.065699970564072 18.26755349911623 0 0 0
1147 1 4.774476203800398 45.26331457195429 2.8392907790686945 0 -1 2
2582 1 6.052363946234615 33.15303052097631 21.640588648453555 -1 0 1
2569 1 0.0464118551801081 43.18974388744296 2.0599204066230734 1 1 1
1894 1 12.397666088809974 46.876567627837154 3.4689554794123385 0 1 1
4279 1 11.383025890256118 29.487115726660864 3.0375307399426745 1 -1 1
216 1 14.384183550895049 23.44348660508434 1.1045000036000512 1 0 0
3999 1 2.9509396514533317 49.212272855369655 1.5308025952429518 1 -1 1
862 1 6.840058220712239 47.09955504985102 2.6005940394176177 0 0 1
3336 1 15.601681115603359 36.55424987573073 21.961992077963842 1 0 0
4509 1 12.336863947980273 49.84851644217147 3.5673503989620134 1 -1 0
3396 1 14.485225365262814 47.75588992667819 1.2136955072641724 0 -1 1
4186 1 1.5602804311649525 11.607513741429306 9.656816478770573 1 0 0
2268 1 5.514105014884109 49.47664122269199 3.0616679555890816 1 -1 1
4470 1 6.7824990587141505 22.265067628194075 1.8092802711599631 1 0 1
3689 1 8.678139637930876 50.34605410175499 1.8462870430997622 2 -1 1
838 1 9.910783913518168 -0.19587303652321567 4.703552168563324 0 0 0
1477 1 17.499383931295785 1.2525917342065929 6.3175879080424755 0 1 1
1279 1 1.4454082605369207 13.276980562506143 14.926119487641754 0 -1 2
1241 1 2.998138011306726 4.780248768004417 5.714083975534291 0 2 1
3067 1 3.3119757575104942 2.175309589628225 4.159673739761872 2 2 0
2750 1 6.014294904302739 2.4241577253332545 3.2303328356564944 0 0 1
2990 1 5.997225665639189 1.809992485191997 0.34205035547182816 0 0 1
514 1 8.669529707298954 3.031395973179243 4.928816570320968 0 0 0
1310 1 10.955623223254468 4.631284872986919 4.329245689956993 0 0 1
2425 1 15.500544317231215 8.657371125697807 4.470873929308392 0 0 0
753 1 14.393966687486836 8.943685637309493 1.9500550048922252 -1 1 0
1711 1 13.120150081326981 47.504043345503156 22.231896568546425 0 0 -1
1076 1 4.783501449005821 10.772400775317498 3.8317043640673463 1 0 1
2137 1 4.9046716897735685 9.096021087194929 9.88653106748299 0 0 0
4546 1 7.680323647948543 6.384688777050125 1.8139721989534463 0 1 2
3490 1 -0.13902121597294603 45.839735496093596 2.8181236502090514 1 -1 0
3932 1 11.990681826452786 8.716898664231744 1.1459504085878536 0 1 1
4187 1 3.5759168317518393 7.548652289441725 5.690482331721564 1 2 1
2048 1 6.330486266507231 8.695704694591178 5.111524144715597 1 0 0
2731 1 8.527157678450479 9.445882943487794 6.4974661278641355 1 0 0
913 1 7.533063592674611 9.310113351152458 2.1942071600243693 0 0 0
2610 1 10.469167107368904 11.261955924266681 4.812088040657922 1 0 1
4109 1 11.568019656961365 12.625883797873175 2.5817794971265093 1 0 1
1944 1 14.868444288742575 12.140021963464802 4.787050343408444 0 -1 1
4412 1 7.496924661430586 17.60157747456514 0.8528046288555315 0 0 0
3481 1 6.042746006286587 15.585170228556676 4.228747562475063 0 1 0
2169 1 11.035917307068337 7.912475423452019 5.826426391444878 0 0 0
1618 1 0.7052020955538987 19.485245417006276 20.78384184981114 1 1 0
1200 1 11.77011134840233 8.241024093285118 23.4260210502694 1 0 0
878 1 3.220437128683463 16.581342227231534 5.1916965900936916 0 0 1
3291 1 7.103723474467764 18.258408503552488 5.804963484179107 0 0 0
3123 1 10.01343154196201 15.000816373038413 2.5576788528785284 0 1 0
2328 1 0.34251749302628554 34.45644061254864 10.082269835473195 1 -1 1
1616 1 8.868312757690344 15.891447627292202 4.9218604697536446 0 0 -1
2359 1 9.195484258668596 18.743379539669338 3.438545477363092 1 0 1
406 1 2.3487410723414732 15.922865097356556 2.835423276224826 0 1 1
3553 1 7.102725805331321 19.949410751445914 9.24336131007355 0 1 0
1489 1 5.408954264856716 20.110560120209044 4.198333453067308 -1 1 -1
1518 1 9.947994543537748 18.71299429224884 6.735553094249261 1 -1 1
1355 1 14.350695018014353 15.975822954563803 2.458511384529441 0 0 0
2500 1 2.0003260626582744 22.085807885034928 4.144522368130617 2 0 0
2590 1 6.91356658951931 23.568979911458662 6.657653758687294 1 -1 1
2736 1 4.293458501589846 23.34286429064896 5.102989655532741 0 0 1
4097 1 10.615429839891341 24.568809893573732 5.650097160212458 0 -1 0
271 1 11.897713628651156 17.768581919965918 8.294922264875611 1 -1 1
3562 1 11.382523247749058 20.312117117507206 4.728670376829922 0 1 1
2676 1 16.32574051782819 24.006210302933198 5.060961331334196 1 1 0
3122 1 15.133945089016306 20.94824902855178 4.091488305105431 1 0 -1
2757 1 3.3348970237928883 26.656316657192107 3.3746221868702304 0 -1 1
4019 1 3.715147086429162 25.426991189612888 6.953732178934747 0 0 1
1620 1 14.324907410097358 25.854793525124673 3.011495151923446 1 0 0
1623 1 16.360990158947562 27.17949582219196 1.9401186755724877 0 -1 0
3548 1 2.281422588712237 29.976347128377295 6.047769121511818 0 0 0
4402 1 4.413471127260587 28.796102673669985 4.274714899638935 0 0 0
1888 1 8.662373747271252 29.300632321628093 6.189108640330007 0 1 0
3167 1 13.462678534971811 30.3842855224161 7.9158053428262996 0 -1 0
1083 1 4.69925888009571 32.796683968306205 3.4147824846613517 0 0 2
2478 1 5.120750537307864 30.420822195728633 1.8897935976315612 1 -1 1
2788 1 7.356379871072379 28.073837508628053 3.847882784540783 0 0 1
3904 1 11.070141293038228 32.609616212364585 6.681566652570666 1 0 0
2971 1 13.495688328501101 33.226749132936 8.186784033985965 0 1 0
2128 1 15.452674334851205 32.33832026873814 5.756292988259523 0 0 1
620 1 1.3407431059865533 0.14946349413330434 5.337562518760839 0 1 0
1245 1 10.577844097881679 37.04171450093266 0.996315546641906 0 0 1
4377 1 10.579090647616596 38.04945536406046 3.4521773243459517 1 1 1
968 1 13.910669529294863 32.5454748375143 3.611166926482339 -1 0 2
2481 1 4.611444039195676 36.624923511083956 3.775657782692072 1 0 1
618 1 7.452448564335568 36.94123254453663 3.3283474858583784 0 1 1
1544 1 7.913192021643594 38.22877065588591 0.8782691116911177 1 -1 1
1998 1 12.259416342730406 40.65316218116088 3.124961219148791 0 1 1
2925 1 15.683046962553128 28.528475666938704 24.01512048805992 0 0 0
2138 1 3.26144653642277 19.53550606750945 5.606807698931822 1 -1 0
1897 1 1.0933567432492894 44.97417233211186 6.412497484829082 1 0 0
1873 1 9.990499279899156 42.04660632440722 3.325593677098721 1 -1 1
598 1 7.714849812764749 41.24634769395604 1.663740349481907 0 0 1
1402 1 14.843703691923636 41.70339565047914 4.045125266810326 -1 0 0
2638 1 12.742812282198017 40.78996455814336 0.18324438230058482 0 1 0
843 1 15.53194715315822 40.24578097312023 6.387719349590924 0 0 1
832 1 3.144523649858648 46.88428710879239 5.393363510639868 0 0 2
3398 1 10.219877487356527 43.808776650829586 1.2638961415154069 1 0 0
3926 1 12.76176311857112 42.711804632334974 5.924857133417552 1 0 0
4218 1 3.7988231239405525 7.7229404045250725 25.362543315465043 1 1 0
672 1 6.975464423553948 46.78271069405754 -0.07944312622207314 0 0 0
2930 1 2.6666131302379172 46.796924375033115 2.697034926101715 0 -1 1
662 1 1.847474572217319 41.29504034165967 3.333641869038055 0 1 -1
3159 1 5.678965254615708 45.375181625023984 5.921969593455192 1 0 1
1335 1 9.499323171371943 45.90761009493367 3.7794559815348867 0 0 1
3874 1 10.39582753926764 46.02841084356094 8.004331038554511 1 0 1
811 1 15.73480969296947 46.20017808615275 5.501710867018679 0 0 0
539 1 -0.07844920842571454 23.644095199484898 5.1574929299302275 1 0 0
2473 1 6.118827008054099 41.98039534153795 23.45503612662308 0 0 1
4087 1 2.7535294279441866 1.965495601502726 1.3761120149013397 1 0 0
2004 1 7.206066404156352 47.639796411985465 6.577039558403402 1 1 0
3882 1 9.515057927557686 48.03673612803803 5.594245884079692 0 -1 0
3520 1 12.210219482932159 49.34944161978988 6.641218273038506 1 0 -1
1503 1 12.825533095030808 46.59603696804409 6.390881319178999 0 0 0
471 1 4.882488135369373 0.30278485528160193 23.499427709775144 1 1 2
3980 1 13.931281236817584 8.99987924727056 11.901500097481328 1 0 0
172 1 4.472112697833732 0.5502366617861449 6.156042273428947 -1 0 -1
645 1 10.30670069102756 51.03113171494868 7.739122557820821 -1 0 0
723 1 11.422197895976119 1.704456497925667 3.5842925959916867 0 0 0
3329 1 15.232072590619946 3.4269869200758922 6.132479473739034 1 0 0
1133 1 0.3919033103399575 8.7472117911866 6.2387561591008085 0 1 0
4493 1 1.032204690660751 4.35282827005693 7.719922631553832 2 1 0
2471 1 7.313570164151732 6.24199765961781 4.391111694955447 1 0 0
3300 1 8.814944116038175 1.86293338024754 7.379410619359193 1 0 1
3688 1 0.9095749520520571 20.612125387733645 16.80484222578975 1 -1 -1
2148 1 1.178561222124847 8.793191698677592 24.46742168046786 1 1 0
3320 1 2.1550304063670707 9.295224360548408 4.016148682692008 1 -1 1
2382 1 5.701143480648555 4.307529377466733 5.609917059821788 0 0 0
4579 1 9.795194998376532 8.620924948882005 3.2957524681919406 0 2 1
855 1 13.135851185080783 5.996603531752152 5.706394351772746 1 -1 0
987 1 13.163604933001514 7.309088350276045 8.711847782045679 0 1 1
3107 1 13.790912271466025 9.396063745588139 6.850961597147802 1 1 0
118 1 17.103886007957385 23.00098675963731 21.464346819321992 0 -1 0
9 1 7.546874414521432 9.070681083852305 9.189489243752037 -1 0 1
3504 1 4.473960793171398 6.882139281765348 8.294146133784974 0 0 -1
3459 1 9.316729399378266 5.890174947378723 6.370069657980894 0 1 0
531 1 12.423720737146255 11.808617209363172 6.78104157946985 0 0 1
730 1 10.341922312058497 7.267888895940912 9.465748841079726 0 1 1
1280 1 0.22170386032790346 19.248138194850217 7.262705821459459 -1 0 0
3401 1 9.931990552036199 10.555506079573698 0.30150936144390217 0 0 1
19 1 3.770610783499302 12.555363490391535 7.6595179807541935 0 0 0
401 1 7.616323214374246 11.500724563253788 10.938796974826596 0 1 0
804 1 8.20296877901459 12.66944794428528 6.399464274264145 0 0 0
470 1 9.065396074667351 14.928055096969352 7.647864807713062 0 0 0
1094 1 0.4364845009248103 30.644214014154098 4.256597013875094 0 0 1
883 1 5.078493349555525 12.157970005151894 10.05992398590861 0 0 0
1104 1 2.3456188718069524 15.13710843486798 7.4503519501759055 0 -1 0
3184 1 12.083215371563035 14.90780197443604 7.774668687099862 1 0 0
440 1 7.286959967689709 16.424492352556875 9.056551197793786 0 -1 0
2167 1 16.176414327210377 15.926180032129693 6.973730345264202 1 0 0
978 1 13.97049624650879 14.951557550539212 5.488003161176524 -1 0 0
2176 1 16.892579710103725 17.020733314617825 4.203558503639507 0 0 -1
2105 1 4.169841039362359 19.506181903872285 8.43142165607171 0 -1 0
210 1 2.0063895345917504 17.401408960123575 9.217898695277766 0 -1 0
3746 1 9.293590970366889 18.41371171575994 10.304056052858702 1 1 0
3935 1 13.477097781209517 17.979374375240408 6.0335001240857125 1 0 1
4074 1 17.348962466492033 11.134872280010507 21.544940652673187 1 0 0
2410 1 17.327441589502946 28.802184386584333 21.596885130137508 1 0 1
2123 1 0.5801378923762647 26.853736464038853 8.287204250357421 0 -1 0
2384 1 10.57798846698733 22.51852291154298 9.36669408269264 0 -1 1
3647 1 13.366640091665673 21.060346842616777 6.638893197121041 0 -1 -1
2339 1 16.007912090800442 18.51138049571029 7.746736955601543 -1 0 0
4213 1 1.2323865030510377 -0.05567739794630458 2.3726762774735612 1 0 2
1363 1 2.199260531130751 23.927855209857427 12.229094328570959 0 0 0
4209 1 12.285422410718562 23.635549337373806 7.662225699462384 1 -1 0
3042 1 12.254680316721831 24.04420639792054 13.000337823300281 0 0 0
2069 1 16.409470227541334 22.266786700334173 7.176882781931913 0 0 1
553 1 14.68403335528802 26.573447967304315 5.827140972820576 0 0 0
3345 1 2.341725641008062 29.06973885573465 8.84358870745006 0 0 1
1050 1 4.287694681432783 31.033261610800377 9.381247580697577 0 1 -1
1678 1 5.765095254177734 27.658407644705306 6.927382618216816 1 1 0
3638 1 8.140608490817652 25.902518035983626 6.277818381861842 1 0 0
185 1 13.166132556425696 25.897384292983485 8.386450683732857 0 1 0
2023 1 -0.12537056751608913 6.308972223771135 25.035883750989296 0 1 0
2803 1 16.414727794472416 27.8435015209774 10.104103920244272 1 0 1
4390 1 2.5229065678149722 32.57651041464492 7.114986257118722 0 0 1
659 1 9.476255482586152 28.38500724960969 8.991384914950162 0 -1 -1
3764 1 6.6792368505549895 30.665437796853443 7.77763132321401 0 1 0
3581 1 11.72791386862746 27.482101219098904 10.101911814501712 0 0 -1
3725 1 8.275074401912201 29.353679396020574 20.589024962410324 1 -1 0
966 1 0.01910422334571188 33.659804975548305 7.241115040779591 0 -1 1
1961 1 3.7650934255124358 38.22825445703567 5.978236639526879 0 0 1
2243 1 5.025704415098874 33.98253130433876 8.142221748422871 1 0 0
1372 1 6.680491325206219 32.8367564923542 5.714345458082525 0 0 2
1443 1 8.967122050164022 34.608145823575754 4.6865041416341295 -1 -1 1
3871 1 10.011475401513199 33.81991671371807 9.233231605460405 0 0 0
3452 1 15.686935430169369 35.13035178578375 7.104616589172639 1 0 0
496 1 -0.17380321939732823 0.6698321517411671 17.30607339680249 0 1 1
1913 1 2.4260386675191175 17.47735286597876 23.575980158148 1 1 0
3195 1 6.29442975431802 36.60535062086953 7.569434647863846 1 0 0
2460 1 9.613057405612219 39.141199282745205 6.6415389652967125 0 0 1
2370 1 12.090092854418504 40.33126219341312 6.764198912141173 0 -1 1
4035 1 14.175944743100949 36.58699757358505 9.177016509543495 1 -1 0
1538 1 13.94026022691201 49.405007473466576 19.652823023727503 0 0 -1
1563 1 2.321107538638103 39.770923164981454 8.288795039859869 1 0 0
3247 1 5.62011822205035 42.737351602727905 6.900951861696319 1 -1 0
338 1 10.000250961648689 43.833001972749194 5.909763496623131 0 0 1
482 1 8.004688312192208 46.9642137479985 12.41592905710383 -1 0 0
2892 1 0.4832814700301833 46.66793667935754 13.805797955984247 0 0 1
2155 1 15.01448340630513 41.66423974683017 8.91637302095071 0 0 0
3149 1 10.81649116312962 48.82639402084101 1.158696796953785 1 0 0
3022 1 -0.21228909627402143 36.690443820273245 24.18945532631164 0 0 1
1180 1 6.863005433907882 45.25927098074862 10.434439636335862 0 -1 1
2621 1 8.05406797657895 43.44413379064555 8.004577267174628 0 -1 0
3371 1 15.287483463928494 44.088577184401245 7.227637708816041 1 0 1
4159 1 12.328979494324974 41.20606136482094 12.453307563760953 0 0 2
3931 1 4.958230186970458 49.02944185551295 5.550764856410598 1 -2 0
3928 1 3.0084314531169043 43.237896069866316 5.370745859844374 1 -1 0
981 1 17.59169131220936 43.43211500825255 5.402009684211205 1 0 0
169 1 0.9036356059064372 13.592700904910275 3.3708072443025707 0 0 1
4135 1 14.732666580404754 19.126324005951677 25.192450133984963 1 1 0
1318 1 10.000244106073863 43.261137742455546 9.8823568058701 0 0 0
3357 1 6.814767341035959 0.16629443871713184 4.2058832118764835 1 1 -1
726 1 14.283462503867934 51.128316939034576 7.345313477003307 0 -1 1
1191 1 15.335765916799737 48.975570817926155 8.929606221795865 -1 -1 -1
1 1 14.087989604250687 1.1582692262062089 9.823062890715537 -1 0 -1
928 1 16.43923999214302 50.37651700203707 5.2661630982456575 -1 -1 0
4543 1 1.2535707267807825 1.713339965698835 10.877504089965807 1 1 0
592 1 1.1812615710346546 50.12421579279703 10.336104403837448 1 0 0
941 1 17.06045377640636 36.16336576940548 0.8735493208106633 0 0 2
853 1 6.371839887276745 2.4357281797576724 7.570890356022031 0 0 0
2215 1 9.699992522856268 49.51147829925874 9.762296469669149 0 -1 -1
2141 1 10.941598358053515 0.5967600178958985 10.830404185940111 0 0 0
2279 1 16.48153384832922 50.739519495543 10.699045907307843 -1 -2 0
3041 1 0.5185550998632344 7.8145044406722555 10.77657688757147 0 1 0
1930 1 3.5383803977010606 3.331444665921994 11.356221780975755 0 0 1
2502 1 11.716763762882598 2.849261698249031 8.612392751847935 0 1 0
1511 1 6.156779329619221 2.964837018441094 10.284541587068315 -1 1 1
1176 1 6.932750466647317 3.1746311308372728 15.10985556504094 0 0 1
181 1 13.840263628551588 4.563511023517705 8.273921179153346 0 2 -1
302 1 15.73035943919062 3.4029604504385484 10.123687531833038 0 1 0
1899 1 1.5773428552703144 6.306585092166122 13.020368301365242 -1 0 0
1035 1 2.582334374647911 5.454778589805929 10.059534758296383 -1 0 1
280 1 8.354590006355538 4.319846012728358 11.529292292979116 1 1 -1
536 1 1.4011706064141534 48.39328448889523 6.8832009497065885 0 -1 1
1981 1 6.191928554627271 9.15419970642892 12.650428421616411 1 2 1
2376 1 9.341262786637742 4.562060430248694 9.102726140434873 0 2 1
4093 1 14.581047906526656 14.244362119857689 9.148467907442997 1 0 2
2716 1 15.01886879313581 9.72962979719788 9.343705592383714 -1 0 1
639 1 4.610111780236426 14.314425984347304 12.145715619159567 0 2 0
796 1 4.223716731263999 13.756927646067323 15.103744260439502 0 0 0
2391 1 7.88842419833138 14.577465281875165 11.180525702101685 0 0 0
1433 1 10.560368871742062 11.308451624997868 11.183294258873442 0 1 1
2442 1 14.89267654348291 15.994822315588515 11.824497201155234 0 -1 1
2956 1 16.997192592926666 10.668089809905345 6.73610756492052 -1 0 0
119 1 4.68577911062751 17.033741697490324 10.251944250297004 1 0 1
4445 1 9.740136636321632 16.47987955553545 12.208124643026537 -1 -1 1
4415 1 16.451389129438514 18.66692564017088 12.372139936440464 -1 0 0
1052 1 0.38864863366797775 29.93218543015035 10.659132511611004 0 0 0
1590 1 16.105944761130047 29.844226439935603 2.1367045227880634 0 0 0
798 1 6.978266016369951 21.653441357443707 11.543467431067922 0 0 1
3448 1 4.80737210604235 19.483081923379725 12.279988044837546 2 0 1
3376 1 9.083028270467373 20.178395569083335 12.74483793430319 1 0 1
1929 1 13.800298987369628 19.719666967164148 9.256440618522866 1 1 0
4090 1 9.317288578558584 35.24880038357516 24.5818494595318 1 -2 0
511 1 11.557627118944684 20.42937183768376 10.95496281860566 0 0 1
1713 1 5.151603663742456 24.19320272190545 9.275513707783848 0 0 -1
3510 1 11.100147936639948 14.197152513903577 10.80330782742826 1 0 -1
1366 1 13.601490655801976 21.79887350614286 11.956062456869827 0 0 1
823 1 15.409020121984904 22.053440150915762 9.964499683589109 0 0 1
1906 1 3.3655871359774703 27.585057690228027 12.970325035598574 0 0 0
3249 1 3.7685529127872757 21.72928187331422 10.082114054107315 0 0 1
3832 1 3.0495258249047 25.946201378976966 10.057080824941172 0 2 0
948 1 8.291213219848416 23.87486071546885 10.557232369881728 0 0 0
842 1 15.394189810382395 25.038948443136157 9.670108093750423 0 -1 0
2966 1 16.850920205888894 27.927516795760184 16.57179130233843 1 -1 1
2548 1 15.291569309707272 5.021082802866138 15.444172743881825 -1 0 1
1978 1 5.159607098662575 27.55788357665826 9.68717992521006 2 -1 -1
1136 1 7.7138771192953 26.912388933974434 10.36906707812365 0 -1 0
2658 1 11.355253385652402 27.463594077328136 13.251273103287264 1 -1 0
2314 1 9.643121453047307 30.856131519011782 12.991167021004175 0 0 1
3106 1 14.036697885127863 27.970029701161994 12.807244322719706 0 2 1
1172 1 5.576143587403834 33.05806996973133 12.428152513858077 -1 0 0
1323 1 8.591369908031576 30.858839000021195 10.27111783734558 1 0 1
2550 1 13.408923361791636 29.773909582499044 10.584092784829924 1 0 0
3095 1 7.90946675054971 12.609819141591215 23.54077764624353 1 0 0
1727 1 3.3501216969431793 33.83693444182744 10.618115807515071 0 -1 0
2641 1 0.21618457769528232 6.0969177586667485 20.546510097184417 0 0 0
416 1 6.93071054496285 33.26550126650207 9.908167508442675 0 0 1
1151 1 8.382308645546239 35.72468804848444 11.013444124274468 0 1 0
3660 1 5.1310437872519294 35.67888992851013 14.309175406598968 0 0 1
252 1 8.86264267821021 36.474770801497314 6.509766659501379 0 0 0
3305 1 10.45581226343549 37.52409699069577 10.57389350534484 0 0 1
250 1 14.408458805449808 32.94126952153383 10.826975657764082 0 0 0
2223 1 2.894844343366797 36.685942310673035 8.782982089647396 1 0 0
472 1 6.249235249803359 37.2592859361727 10.173790615621128 1 0 1
2664 1 11.483527654444512 36.125779977194824 8.237666553193453 0 -1 0
3090 1 16.579185780289503 36.78397214720735 11.359065197876182 1 1 0
1987 1 1.9082873453191787 44.24631336520746 8.810783703519743 -1 0 -1
1573 1 3.9388535299344527 42.171014568914565 8.778238801357915 1 0 0
3888 1 7.8941966421000735 40.03962765521417 4.617459814707134 1 0 0
528 1 12.058254957832466 41.533526781540225 9.589553996062765 1 -1 0
2876 1 15.329588036248168 39.5475302151818 10.910962702983213 0 0 1
2462 1 3.200706172135635 47.755061160786006 12.851638178684938 1 -1 1
4211 1 3.818528962615021 46.16224819176712 10.618492007162352 1 0 0
1116 1 8.095890043555135 47.60999339025401 9.003048113317314 1 -1 1
3800 1 7.882582676731925 42.93942631144797 14.976002848381064 1 -1 0
1634 1 10.779558094816062 45.72723666028539 12.344730008913531 1 0 0
4101 1 11.479990458278131 43.17460597628499 15.801474121408674 0 -1 0
2250 1 10.220346036351263 43.27956592157732 12.985559753371648 0 0 0
3304 1 9.416481510484001 5.303896249304257 23.614624937183397 0 1 0
1258 1 1.3656975559436437 47.07231083190469 9.34547945462881 0 0 1
3243 1 3.0110452320967247 50.117862538086044 8.15331322676978 1 0 0
4397 1 14.855645218687819 42.799488042559815 11.962505605291021 1 0 0
990 1 12.071513256449794 45.77244832694799 10.154696198352836 1 -1 1
2187 1 0.2016003042076614 20.394079850630277 14.020571032380683 1 0 -1
223 1 6.120425181781858 -0.2292876718491108 11.295625833420202 -1 1 0
57 1 9.339666262821172 49.48224114145212 12.551682299313137 -1 -1 0
4254 1 7.700478338904226 0.38810703619962084 13.575066793524826 1 1 1
1165 1 12.504949283408878 48.611663276175946 9.21708022738836 -1 0 1
4364 1 14.7321120026364 44.96418076897879 10.491632025361808 0 0 1
2804 1 4.0372570369383745 2.7806571634114716 15.505822733365711 1 0 0
258 1 5.293751011378776 0.20399009039419552 15.004848294219592 0 0 1
488 1 9.882206935258754 50.61711388693497 15.314698743941237 0 1 -1
1312 1 12.516145265093005 50.69111304883613 12.767361727208076 0 0 0
554 1 14.27919049267686 0.1510941615078097 17.57787162585641 1 1 0
3610 1 0.22969110078138533 19.035442669995525 0.6789464601730482 1 0 1
2778 1 1.6346548045165745 2.0275728959662356 13.978919648362586 1 -1 0
3366 1 9.880272301835308 2.3623720928266208 12.722483885551837 2 0 0
2064 1 14.245071593995062 2.5312714169293766 12.799690709176248 0 0 2
2999 1 15.275434926042125 51.067625816244686 13.267851493720224 1 0 1
3939 1 3.006455483520076 15.09734357990709 25.142259872835 0 1 1
4330 1 4.0120605355958965 4.955692002263196 13.828461408331826 1 -1 0
3546 1 2.2557561643186435 8.238161860146008 15.020571242708392 0 1 -1
1671 1 6.384083421985269 6.289871166096571 12.980115267651335 1 1 -1
2559 1 11.89697785589817 3.137648325430574 14.18913267410808 1 0 0
1479 1 11.426114854072283 6.079935486056355 13.563910028350163 0 -1 0
507 1 13.639642302589948 6.5668351492584565 11.538540914372224 0 1 1
696 1 17.60453534194781 34.49605949307243 13.817407242832958 -1 0 0
3820 1 3.929724884096675 10.048384616011319 14.24542141282302 1 -1 0
70 1 6.7464392290398525 6.020078598422348 15.856255951006254 1 1 0
2490 1 9.079040635260721 7.173458448870904 12.128553875951717 0 0 1
3410 1 11.83652095006916 12.494015775564772 13.485752557349606 -1 -1 0
593 1 0.13924766233939007 14.582712193094146 6.131198996973844 -1 0 1
2793 1 15.987178791158978 8.393152905358694 13.589051749116159 0 0 0
2395 1 3.49805592983897 16.695502343604595 13.858558493464038 1 -1 1
3987 1 9.338963328322393 9.55230744189206 13.20441000871023 0 0 1
742 1 14.714601926366392 12.912209879766728 12.10493954074564 0 0 0
1270 1 10.071532222957435 50.840555263481505 25.21911429306814 0 0 1
1580 1 13.885056711683221 36.03378567238204 19.691007709942074 0 1 -1
4253 1 3.9663168141927283 15.435936670931909 17.355213680478993 1 0 1
3242 1 7.108449129107345 16.72138380218019 16.244744022542502 0 0 0
3248 1 13.224296510111557 11.601979267049998 9.82058935226179 0 0 0
1126 1 16.94814474678001 16.00326236298779 15.456039588480177 0 1 0
2843 1 12.47546578008528 15.616790337519173 13.325577221089938 0 1 0
973 1 7.216232682256748 17.907856910618506 18.777246975059576 0 0 2
4504 1 8.968842536058517 17.840113466162403 14.386932907318878 1 1 1
706 1 12.752997970625518 19.647698013894985 15.909976462960206 1 0 0
4376 1 16.789253259469238 46.21085240025254 8.878635297039851 0 0 0
931 1 0.006091328144773617 34.71550691790226 4.466085051686939 0 0 2
1872 1 -0.17396783175993025 19.90708784991679 10.286791006937525 1 0 -1
3288 1 5.01617795995208 25.08264655636202 13.55901728844933 1 0 0
2184 1 5.317034249127854 18.780334157285726 15.092113552159534 1 0 0
1979 1 9.373395456484987 24.975389531040797 12.840739735568912 -1 -1 0
28 1 14.896341408105107 20.28392983826501 14.233008471290749 1 0 0
94 1 14.669229709364908 25.629231947645227 12.451074857890065 0 0 1
2677 1 0.043464254132170144 17.556304652289715 2.9056351559564524 1 -1 1
2341 1 13.131032747050439 23.6718612629207 15.599768340742164 0 0 1
2560 1 7.866803668328506 26.52360070026772 14.342446254630701 0 1 0