
# Define the lattice
#
variable	    lattice_constant equal 6.36339
lattice		    diamond ${lattice_constant} orient x 0 0 1 orient y 0 1 0 orient z -1 0 0
lattice		    diamond 6.36339 orient x 0 0 1 orient y 0 1 0 orient z -1 0 0
Lattice spacing in x,y,z = 6.3633900 6.3633900 6.3633900

# Define region
# multiples of lattice spacing
#
region 		    simbox block 0 9 0 8 0 8

# Create Atoms
#
create_box          1 simbox
Created orthogonal box = (0.0000000 0.0000000 0.0000000) to (57.270510 50.907120 50.907120)
  3 by 1 by 2 MPI processor grid
create_atoms        1 box
Created 4608 atoms
  create_atoms CPU = 0.001 seconds
mass                1 18.015

# Define potential
#
pair_style          sw
pair_coeff          * * /data/emrosky-sim/Freezing_Simulations/Melting/MLmW_fancy/ML_mW.sw mW
Reading sw potential file /data/emrosky-sim/Freezing_Simulations/Melting/MLmW_fancy/ML_mW.sw with DATE: 2019-02-27

# Add velocity/set timestep
#
velocity            all create ${TEMP} 120598 rot yes dist gaussian
velocity            all create 292 120598 rot yes dist gaussian
timestep            5.0

# Define output
#
compute	            1 all msd
thermo              100
thermo_style        custom step temp press vol etotal ke pe c_1[4]

# Neighbor lists
#
neigh_modify        delay 0 every 1 check yes

# Set fixes
#
fix                 1 all momentum 10 linear 1 1 1 rescale
fix                 2 all nve
fix                 3 all temp/csvr ${TEMP} ${TEMP} 500.0 928347
fix                 3 all temp/csvr 292 ${TEMP} 500.0 928347
fix                 3 all temp/csvr 292 292 500.0 928347
fix                 4 all press/berendsen iso ${PRES} ${PRES} 1000.0 modulus 20000
fix                 4 all press/berendsen iso -1000 ${PRES} 1000.0 modulus 20000
fix                 4 all press/berendsen iso -1000 -1000 1000.0 modulus 20000

# Run 0.5 ns equilibration
#
dump		    1 all custom 1000 eq.${NAME}.dump id type x y z vx vy vz
dump		    1 all custom 1000 eq.ice_292K_-1000atm_ML.dump id type x y z vx vy vz
run                 100000
Neighbor list info ...
  update every 1 steps, delay 0 steps, check yes
  max neighbors/atom: 2000, page size: 100000
  master list distance cutoff = 6.0032907
  ghost atom cutoff = 6.0032907
  binsize = 3.0016454, bins = 20 17 17
  1 neighbor lists, perpetual/occasional/extra = 1 0 0
  (1) pair sw, perpetual
      attributes: full, newton on
      pair build: full/bin/atomonly
      stencil: full/bin/3d
      bin: standard
Per MPI rank memory allocation (min/avg/max) = 4.779 | 4.779 | 4.779 Mbytes
Step Temp Press Volume TotEng KinEng PotEng c_1[4] 
       0          292   -627.25492    148418.52   -51887.267    4009.9168   -55897.184            0 
     100    199.95859   -834.31532    148930.36   -50240.393    2745.9497   -52986.343   0.10314261 
     200    228.20257    -914.4168    149272.82   -49264.458    3133.8128    -52398.27   0.11710083 
     300    246.08575   -970.30568    149461.08    -48644.44    3379.3951   -52023.835   0.14990434 
     400    266.88744   -961.21958    149599.71   -48235.891    3665.0564   -51900.947   0.15121651 
     500    283.40165   -929.17017    149727.23   -47942.337    3891.8392   -51834.176   0.14105732 
     600    286.47161    -966.1507    149821.52   -47669.141    3933.9978   -51603.139   0.16207602 
     700    289.07353   -1008.2249    149877.16   -47615.857    3969.7288   -51585.585   0.15223539 
     800    287.40283   -1004.3679    149876.77   -47517.902    3946.7858   -51464.688   0.16007425 
     900    289.86992   -1001.4284    149883.64    -47495.76    3980.6653   -51476.425   0.17493833 
    1000    292.35713   -1002.6535    149861.24   -47547.377    4014.8211   -51562.198   0.15243527 
    1100    291.84443   -971.08456    149874.35   -47490.977    4007.7804   -51498.757   0.15967619 
    1200    297.31894     -945.057    149879.57   -47487.087    4082.9597   -51570.046   0.15938747 
    1300    288.42304   -1081.7429    149920.77    -47412.02    3960.7959   -51372.816   0.17272635 
    1400    291.55614   -1019.9621    149925.61   -47507.778    4003.8215     -51511.6   0.16636264 
    1500    287.22417   -1027.9492    149924.85   -47536.751    3944.3324   -51481.084   0.15740982 
    1600    296.18269   -993.99542    149904.73   -47464.579     4067.356   -51531.935   0.16702631 
    1700    288.24045   -1028.8009    149891.28   -47487.185    3958.2884   -51445.473   0.16089898 
    1800    290.92304   -1012.2319    149875.48    -47478.03    3995.1274   -51473.158   0.17340199 
    1900     294.8781   -1055.1137    149930.43   -47394.745    4049.4407   -51444.186   0.16620251 
    2000    295.92969   -1001.2665    149954.18   -47342.768    4063.8816   -51406.649   0.16030799 
    2100    289.53484    -1030.348    149917.47   -47514.789    3976.0638   -51490.853   0.17011367 
    2200    292.92698   -984.20507    149933.63   -47442.262    4022.6466   -51464.908   0.15263365 
    2300    296.26832   -985.07452     149924.6   -47372.456     4068.532   -51440.988   0.17400384 
    2400    298.60062   -988.28939    149907.15    -47399.79    4100.5605    -51500.35   0.17057704 
    2500    294.33558   -1018.6629    149934.27   -47460.877    4041.9904   -51502.867   0.15652944 
    2600    294.51938   -1014.8973    149898.52   -47490.155    4044.5145    -51534.67   0.17393936 
    2700     295.2162    -966.5656    149876.88   -47459.654    4054.0836   -51513.738   0.14900072 
    2800    292.90848   -1016.7176    149912.95   -47356.604    4022.3926   -51378.997   0.17576022 
    2900    292.36485   -1017.2323    149928.56   -47384.013    4014.9272    -51398.94   0.16889367 
    3000    289.46538   -1020.3337    149893.65   -47440.661      3975.11   -51415.771   0.17236725 
    3100    290.15227   -1000.7742    149897.88   -47412.955    3984.5428   -51397.498    0.1630274 
    3200    291.56685   -991.33115    149866.56   -47525.087    4003.9686   -51529.056   0.15765482 
    3300    293.83821   -953.78875    149858.18   -47584.873    4035.1602   -51620.033   0.15358771 
    3400    296.24864   -1002.5594     149852.4   -47517.761    4068.2617   -51586.022   0.15619044 
    3500    294.98045    -981.7027    149869.83   -47481.054    4050.8462     -51531.9   0.17063684 
    3600    292.04111   -982.79597    149870.16   -47489.175    4010.4814   -51499.656   0.16235771 
    3700    293.06589   -988.23945    149890.59   -47450.473    4024.5542   -51475.027   0.15779638 
    3800    289.31366   -1050.8522    149898.74   -47442.043    3973.0264    -51415.07   0.17879119 
    3900    297.65364   -982.11026    149919.57   -47449.486    4087.5559   -51537.042   0.16031396 
    4000    288.04426   -1030.2611    149899.83    -47496.53    3955.5942   -51452.124   0.16447606 
    4100    288.72126   -1043.3079    149891.23   -47511.567    3964.8913   -51476.459   0.17013324 
    4200    295.44367   -972.10458    149919.13   -47467.411    4057.2073   -51524.618   0.15090426 
    4300    286.22683   -1020.5328    149860.27   -47602.944    3930.6362   -51533.581   0.17155921 
    4400     295.6612   -1001.5449    149905.46     -47496.9    4060.1946   -51557.095   0.14900664 
    4500    289.92101   -1014.0827    149898.64   -47554.053    3981.3669    -51535.42   0.16965589 
    4600     286.8344   -987.44022    149897.77   -47584.038    3938.9798   -51523.018   0.15633299 
    4700    288.82714   -965.41899    149910.19   -47480.275    3966.3452    -51446.62   0.16020767 
    4800     298.6503   -984.23373    149918.64   -47375.722    4101.2426   -51476.965   0.16097851 
    4900    294.26517   -994.48025    149958.06   -47351.734    4041.0235   -51392.757   0.16438013 
    5000    292.66226   -995.78435    149935.58   -47483.607    4019.0114   -51502.619   0.16363159 
    5100    294.29104   -1007.2603    149928.39    -47412.96    4041.3788   -51454.339   0.15983345 
    5200     292.2836   -1005.5572    149914.45   -47479.356    4013.8114   -51493.168   0.16878085 
    5300    288.77147   -987.15432    149900.04   -47583.835    3965.5808   -51549.415   0.15843327 
    5400    289.56273   -1004.6996    149889.98   -47548.476    3976.4468   -51524.923   0.15244875 
    5500    290.75922    -955.9592    149875.45   -47509.528    3992.8777   -51502.405   0.16749797 
    5600    293.30017   -965.06646    149889.94   -47556.986    4027.7716   -51584.758   0.15157397 
    5700    288.08469    -1052.743    149881.81   -47544.225    3956.1495   -51500.374   0.16094056 
    5800    292.50898   -995.72633    149891.22   -47483.651    4016.9064   -51500.558   0.16864848 
    5900    290.29614   -1025.3127    149880.51    -47561.89    3986.5184   -51548.409   0.15168837 
    6000    290.62168      -1002.7     149877.7   -47534.418     3990.989   -51525.407   0.16664898 
    6100    287.13491    -992.0373    149893.91   -47615.505    3943.1065   -51558.611   0.15229993 
    6200    286.47952   -985.90997    149883.31   -47590.348    3934.1063   -51524.455   0.16450012 
    6300    292.84744   -995.26994    149918.08   -47471.339    4021.5544   -51492.893   0.16328115 
    6400    290.34263   -1007.1226    149916.05   -47531.529    3987.1568   -51518.686   0.15829798 
    6500    292.38684   -1011.8228    149908.98   -47545.383    4015.2291   -51560.612   0.16169944 
    6600    289.00217   -1011.2373    149872.61   -47546.442    3968.7488   -51515.191    0.1564851 
    6700    289.09529   -1028.5776    149878.34   -47600.703    3970.0276   -51570.731   0.16480937 
    6800    293.79381   -1002.5435    149876.95   -47555.637    4034.5504   -51590.188   0.16011731 
    6900    292.77406   -991.73669    149899.56   -47479.021    4020.5467   -51499.568   0.16037936 
    7000    292.56992    -1016.862    149887.91   -47478.828    4017.7434   -51496.571   0.17035567 
    7100    290.70867   -970.50745    149903.33    -47485.87    3992.1835   -51478.054   0.15048466 
    7200    287.88405   -1009.4523    149882.06   -47599.616    3953.3941    -51553.01   0.17090013 
    7300    283.06197   -1007.5491    149872.84   -47649.748    3887.1745   -51536.922   0.15110958 
    7400    292.26496    -982.4901    149899.77   -47539.109    4013.5554   -51552.665   0.15645796 
    7500    292.67415   -1007.7189    149899.01   -47470.808    4019.1747   -51489.983   0.16553173 
    7600    289.69773   -1031.2701    149915.43   -47447.798    3978.3008   -51426.099   0.16018984 
    7700    291.35425   -1017.2848    149886.61   -47537.078     4001.049   -51538.127   0.16731847 
    7800    282.65602   -991.57872    149886.39   -47601.209    3881.5997   -51482.808   0.16577279 
    7900    292.06412   -952.27238     149877.1   -47539.576    4010.7974   -51550.373   0.15791705 
    8000    291.20981   -964.09449    149919.42   -47439.433    3999.0654   -51438.498   0.15839988 
    8100    291.33562   -1004.9557    149931.47   -47407.524    4000.7932   -51408.317   0.16460187 
    8200    296.70732   -982.40159    149911.03   -47428.803    4074.5605   -51503.364   0.15964603 
    8300    293.45033   -1009.1331    149940.56   -47390.426    4029.8336   -51420.259   0.16943848 
    8400    296.67529   -972.00034    149953.64   -47364.068    4074.1206   -51438.189   0.16396119 
    8500    294.98075   -1019.4135    149966.96   -47459.784    4050.8503   -51510.635   0.16870706 
    8600    298.29059   -989.89769     149964.8   -47473.157     4096.303    -51569.46   0.14837848 
    8700     293.9818   -991.34256    149948.54   -47443.169     4037.132   -51480.301   0.16922563 
    8800    294.16605   -997.81905     149957.8   -47484.272    4039.6623   -51523.935   0.14891146 
    8900    295.15372   -1009.4715     149927.3   -47551.093    4053.2256   -51604.319   0.17090836 
    9000    288.67811   -990.80295    149941.69   -47471.393    3964.2987   -51435.691   0.16138347 
    9100    287.14646   -986.80255    149938.74   -47527.109    3943.2652   -51470.374   0.15518877 
    9200    296.43836   -965.46785    149919.61   -47413.751     4070.867   -51484.618   0.16864845 
    9300    291.25687    -989.4215    149925.43    -47575.13    3999.7118   -51574.842   0.14886208 
    9400    291.42363   -959.97228    149900.48   -47527.759    4002.0017   -51529.761   0.16142704 
    9500    290.91317   -1001.9223    149910.84   -47575.991    3994.9919   -51570.983   0.16248504 
    9600    289.60985   -1020.9754    149919.53   -47567.782    3977.0939   -51544.876   0.15930519 
    9700     293.7165   -1010.3808    149936.35     -47441.2    4033.4888   -51474.689   0.16069121 
    9800     289.8093   -1013.9642    149961.12   -47393.996    3979.8328   -51373.829   0.16977578 
    9900    296.75738    -1000.047     149940.4   -47427.413     4075.248   -51502.661   0.16214735 
   10000     297.4031   -995.70218     149935.5   -47479.963    4084.1155   -51564.078   0.15836369 
   10100    291.90275   -973.53598    149948.69   -47434.857    4008.5813   -51443.438    0.1618513 
   10200    291.17827   -984.17835    149943.73   -47399.741    3998.6324   -51398.373   0.16213837 
   10300    295.95367   -1012.5839    149955.23   -47404.068     4064.211   -51468.279   0.16445672 
   10400    292.63815   -1000.8286    149937.61   -47405.793    4018.6803   -51424.473   0.16899343 
   10500    293.02212   -972.40195    149923.46   -47456.538    4023.9531   -51480.492   0.15390538 
   10600    291.66765   -964.19779    149925.62   -47479.388    4005.3529    -51484.74   0.16032376 
   10700      291.788   -998.81133    149938.24   -47498.892    4007.0055   -51505.897   0.15656177 
   10800    289.62145   -983.44683    149906.93   -47632.469    3977.2531   -51609.722   0.15000232 
   10900    290.64216   -1012.6713    149862.48   -47618.787    3991.2702   -51610.057   0.16863949 
   11000    282.53909    -1068.892    149870.05   -47631.881    3879.9941   -51511.875    0.1681021 
   11100    287.87075   -1035.1081    149904.23   -47539.651    3953.2116   -51492.863   0.16203558 
   11200    283.34195   -1014.4165    149879.87    -47646.31    3891.0193    -51537.33    0.1620922 
   11300    293.01596    -994.1239    149887.18   -47563.864    4023.8686   -51587.733   0.14656241 
   11400    285.99376   -978.99995    149883.07   -47529.669    3927.4356   -51457.105   0.16349507 
   11500    296.58052   -975.83857    149935.59    -47438.38    4072.8193   -51511.199   0.15580047 
   11600    294.43001   -1010.7621    149944.09   -47436.385    4043.2872   -51479.673   0.16514689 
   11700    300.23699   -1013.0576     149963.6    -47298.12     4123.032   -51421.152   0.16247472 
   11800    296.92854   -1033.1948     149972.2   -47382.363    4077.5984   -51459.961   0.16779006 
   11900    299.01442   -972.96098    149953.64   -47425.244     4106.243   -51531.487    0.1576795 
   12000    298.85749   -983.52753    149941.14   -47388.865    4104.0879   -51492.953   0.15460058 
   12100    287.69218   -996.16432    149932.31    -47446.18    3950.7593   -51396.939    0.1723741 
   12200    296.29501   -985.97144    149950.23   -47450.091    4068.8985   -51518.989   0.14935944 
   12300    290.36019   -978.49698    149923.77   -47505.139     3987.398   -51492.537   0.16618727 
   12400    299.19147   -1009.6349    149919.81   -47496.931    4108.6743   -51605.605   0.15483097 
   12500    296.12709   -1004.7657    149944.91   -47430.732    4066.5924   -51497.324   0.16319097 
   12600    295.90637   -1012.8547    149924.31   -47387.534    4063.5614   -51451.096   0.16243497 
   12700    291.04385   -1055.6521    149927.36   -47468.643    3996.7865   -51465.429   0.16400589 
   12800    291.69031   -1020.2358    149922.04    -47450.94     4005.664   -51456.604    0.1561868 
   12900    295.09633   -975.53212    149891.97   -47515.359    4052.4375   -51567.796    0.1647999 
   13000    293.63036   -962.32544    149898.26   -47481.092    4032.3059   -51513.398   0.15204086 
   13100    292.40073   -976.67005    149892.19   -47557.925    4015.4199   -51573.345   0.16340734 
   13200     291.1965    -986.6186    149902.93   -47587.259    3998.8826   -51586.141   0.15519569 
   13300    285.97872   -1002.7158    149901.94   -47676.035     3927.229   -51603.264   0.15660407 
   13400     292.8801   -965.99057    149880.01    -47657.23     4022.003   -51679.233   0.15252047 
   13500    288.82856   -974.27291     149896.7    -47570.64    3966.3647   -51537.004   0.15447701 
   13600    286.42548   -1034.0038    149875.52   -47509.616    3933.3642    -51442.98   0.16856216 
   13700    291.21725   -1001.6597    149902.19   -47549.363    3999.1676    -51548.53   0.14977535 
   13800    297.31693   -990.39958    149918.67   -47497.272    4082.9321   -51580.204   0.16503572 
   13900    293.86133    -989.3486    149900.26   -47484.437    4035.4777   -51519.915    0.1522553 
   14000    295.20999   -989.45133    149950.73   -47371.806    4053.9983   -51425.805   0.15953332 
   14100    293.09135    -978.6776    149924.48   -47459.973    4024.9039   -51484.877   0.16258156 
   14200    295.45608   -1026.1278    149947.16   -47473.373    4057.3778   -51530.751   0.15796328 
   14300    292.90194   -1030.3793    149943.38   -47508.536    4022.3028   -51530.839   0.16268297 
   14400     293.1816   -1010.5744    149918.81   -47561.979    4026.1433   -51588.122   0.15819091 
   14500    292.04671   -963.68989    149947.71   -47585.057    4010.5583   -51595.615   0.14824812 
   14600    290.42804   -965.02053     149955.6   -47530.784    3988.3298   -51519.114   0.15720709 
   14700     292.5025   -1018.9151    149960.18   -47483.582    4016.8175   -51500.399   0.15672825 
   14800    290.07946   -985.97499    149952.92   -47459.872    3983.5428   -51443.415   0.16184354 
   14900    292.90052   -1030.6966    149956.74   -47470.934    4022.2833   -51493.217   0.15937485 
   15000    286.47674   -1034.0973    149948.52   -47534.248    3934.0682   -51468.316   0.15972803 
   15100    288.10691    -1000.811    149938.39   -47553.049    3956.4546   -51509.504   0.15343791 
   15200    289.43573    -952.8655    149959.23   -47480.997    3974.7027   -51455.699   0.15963552 
   15300    288.79078   -1012.3264    149938.95   -47566.191     3965.846   -51532.037   0.15716048 
   15400    285.23117   -1036.8927    149921.59   -47559.696    3916.9632   -51476.659   0.15853414 
   15500    294.90279   -970.09785    149929.69   -47493.529    4049.7797   -51543.309   0.15646815 
   15600    298.89156   -980.61842    149958.83   -47366.618    4104.5559   -51471.174   0.16396998 
   15700    291.81604   -1039.4562    149988.35   -47392.168    4007.3906   -51399.559    0.1589604 
   15800    292.42646   -1034.2136    149949.62    -47384.96    4015.7733   -51400.733   0.17153787 
   15900    291.64419   -1009.9182    149965.37   -47410.017    4005.0306   -51415.048   0.15885551 
   16000    289.97111   -1014.4284    149965.68    -47459.28    3982.0549   -51441.335    0.1587732 
   16100    296.91686   -955.26893    149913.33   -47484.964    4077.4381   -51562.402   0.15833264 
   16200    297.70313   -979.34773    149928.92   -47502.443    4088.2355   -51590.679   0.15171734 
   16300    291.98092   -1014.5137    149912.35   -47513.458    4009.6549   -51523.113     0.164585 
   16400    292.85037   -1014.6995    149927.86   -47528.986    4021.5946    -51550.58    0.1579297 
   16500    296.32291   -1016.3757    149946.76   -47447.349    4069.2817   -51516.631   0.16289431 
   16600    293.50677   -1017.1263    149956.63   -47371.265    4030.6087   -51401.873   0.15882747 
   16700    293.67709   -999.92461    149948.36   -47418.009    4032.9476   -51450.957    0.1674124 
   16800    295.20768   -1012.5753     149943.2   -47471.559    4053.9667   -51525.525   0.15163496 
   16900    292.99674   -979.78248    149951.29   -47496.702    4023.6047   -51520.306   0.16395841 
   17000    292.53283   -1012.2334    149930.62   -47542.774     4017.234   -51560.008   0.14873797 
   17100    290.35426   -974.60901    149947.25   -47494.694    3987.3166   -51482.011     0.154235 
   17200    285.73091   -973.91518    149952.77   -47552.671    3923.8259   -51476.497   0.15686444 
   17300    288.19275   -1025.7374    149913.56   -47648.501    3957.6334   -51606.135   0.14966339 
   17400    283.40458   -1001.8281    149923.49   -47638.432    3891.8795   -51530.312   0.15513717 
   17500    293.92229   -1019.5475    149948.85   -47536.765    4036.3148    -51573.08   0.16065213 
   17600    293.95526   -979.43659    149986.29   -47544.439    4036.7676   -51581.207   0.15233188 
   17700    289.80241    -1027.266    149935.76   -47608.762    3979.7383     -51588.5   0.15485092 
   17800    290.69242   -1001.4223    149923.32    -47553.93    3991.9604    -51545.89   0.15971941 
   17900    293.25621   -1043.0608     149966.4   -47503.372    4027.1679    -51530.54   0.15235705 
   18000    295.06194   -985.86683    149950.28   -47406.159    4051.9652   -51458.124   0.15875512 
   18100    298.29793   -1030.8826    149974.93   -47417.834    4096.4038   -51514.238   0.15618772 
   18200    295.25711   -1013.6644    149967.89   -47465.712    4054.6454   -51520.358   0.15807726 
   18300    288.30523   -1021.9951    149950.84   -47464.778     3959.178   -51423.956    0.1559791 
   18400    286.40116    -1025.428    149950.05   -47571.065    3933.0303   -51504.095   0.16157431 
   18500    294.22371   -961.62272    149946.81   -47504.008    4040.4542   -51544.462   0.14773704 
   18600    294.84594   -1005.7038       149934   -47455.231     4048.999    -51504.23   0.15730524 
   18700    297.38313   -980.96066    149965.74   -47475.861    4083.8412   -51559.703   0.15367641 
   18800    295.55308   -1004.0426    149964.79   -47490.186    4058.7099   -51548.895   0.14992931 
   18900    293.39096   -996.65759    149978.79   -47450.031    4029.0183   -51479.049   0.16247612 
   19000    290.61066   -1029.3788    149971.71   -47478.208    3990.8376   -51469.046   0.15656868 
   19100    293.30118   -1005.3429    149977.44   -47393.398    4027.7854   -51421.183   0.15660249 
   19200    292.09957   -1003.8232    149954.15   -47416.672    4011.2842   -51427.956   0.16574361 
   19300     301.3695   -994.10855    149997.21   -47311.292    4138.5844   -51449.877   0.14886529 
   19400    293.83375   -1018.1482    149964.83   -47374.309     4035.099   -51409.408   0.16313215 
   19500    296.54154   -1002.3155    149965.78   -47370.953     4072.284   -51443.237   0.15460714 
   19600    293.01022   -1015.9663    149941.67   -47365.316    4023.7897   -51389.105   0.16150855 
   19700    294.03112   -1026.6529    149967.65   -47422.076    4037.8093   -51459.886   0.15930004 
   19800    292.46287   -998.98244    149973.92   -47372.724    4016.2733   -51388.997   0.16348079 
   19900    288.82045     -1054.15    149959.23   -47456.853    3966.2534   -51423.107    0.1603966 
   20000    294.20157    -1009.992    149933.74   -47478.556    4040.1501   -51518.706    0.1564821 
   20100     290.7557     -1004.39     149924.4   -47525.908    3992.8294   -51518.738   0.15550776 
   20200    289.22529   -988.39029    149916.72   -47498.464    3971.8128   -51470.276   0.15630004 
   20300    288.88166   -978.53614    149945.78   -47456.206     3967.094     -51423.3    0.1522242 
   20400    293.13743   -1064.0257    149958.81   -47529.103    4025.5367   -51554.639   0.15980402 
   20500     287.8806   -1007.1783    149904.86   -47559.484    3953.3467   -51512.831   0.15377107 
   20600    288.47701   -998.34688    149898.43   -47580.573    3961.5371    -51542.11   0.15560048 
   20700    286.01219   -1001.5444    149903.48   -47518.541    3927.6886   -51446.229   0.16569328 
   20800    296.47245   -981.41189    149953.18   -47386.518    4071.3352   -51457.853   0.15127342 
   20900    295.29841   -1055.6336    149944.61   -47497.821    4055.2125   -51553.033   0.16382095 
   21000    293.53448     -987.328    149922.03   -47508.077    4030.9892   -51539.066   0.15078936 
   21100    296.95458   -974.73225     149941.7   -47389.769     4077.956   -51467.725   0.16018987 
   21200    299.13095   -963.92964    149936.67   -47403.533    4107.8433   -51511.376   0.15478606 
   21300    289.99839   -1030.4027    149949.67    -47399.05    3982.4296    -51381.48   0.16313729 
   21400    293.18963   -1011.4481    149917.38   -47436.772    4026.2536   -51463.026    0.1567142 
   21500    298.00412   -976.82289    149939.03   -47341.022     4092.369   -51433.391   0.16264262 
   21600    299.12822   -1021.8586    149950.43   -47351.977    4107.8058   -51459.783   0.15656811 
   21700    293.50616   -1005.1817    149935.97   -47479.826    4030.6003   -51510.426   0.15606252 
   21800    290.02316   -984.41031    149922.02   -47516.332    3982.7697   -51499.102   0.15949347 
   21900     292.4847   -998.08603    149912.61   -47488.179     4016.573   -51504.752   0.15366491 
   22000    292.94272   -984.53343    149872.36   -47520.664    4022.8628   -51543.527   0.15429228 
   22100    291.73992    -990.1986    149891.14    -47565.17    4006.3453   -51571.515   0.15998675 
   22200    283.98813   -1008.1865    149852.52   -47647.818     3899.893   -51547.711   0.15695497 
   22300    288.75614   -997.72051    149879.43   -47538.069    3965.3703   -51503.439   0.15835821 
   22400    294.76212   -997.20353    149903.76   -47481.199    4047.8479   -51529.047   0.16183318 
   22500    293.67682   -1026.1308    149923.53   -47436.335    4032.9439   -51469.279   0.15555874 
   22600    295.48444   -987.12418    149925.44   -47475.488    4057.7672   -51533.255   0.15347524 
   22700    292.86226   -972.76452    149884.67   -47531.806     4021.758   -51553.564   0.15547577 
   22800    286.70192   -1052.2742    149902.74    -47455.85    3937.1605    -51393.01   0.16492789 
   22900    290.57202   -1022.4415    149874.29   -47495.012     3990.307   -51485.318   0.15833574 
   23000    285.66271   -1022.0649    149881.79   -47565.242    3922.8894   -51488.131   0.16270581 
   23100    289.51222   -956.70299    149879.55     -47503.3    3975.7532   -51479.053   0.15533825 
   23200    291.21125   -1008.5335    149892.13   -47450.365    3999.0853   -51449.451   0.16290236 
   23300     289.5776   -1007.4847    149923.33   -47450.757     3976.651   -51427.408   0.16215859 
   23400    288.61123   -1024.4604    149927.06   -47503.068    3963.3802   -51466.448   0.15320898 
   23500    290.55531   -993.75898    149910.65    -47384.22    3990.0775   -51374.298   0.16595312 
   23600     294.4378   -1011.4494    149908.23   -47399.842    4043.3942   -51443.236   0.16100393 
   23700    296.13596   -982.46601    149898.32   -47389.872    4066.7142   -51456.586    0.1516974 
   23800    292.91443    -1025.272     149912.2    -47403.67    4022.4743   -51426.145   0.17294934 
   23900    295.08544   -1030.1798    149888.92   -47496.886     4052.288   -51549.174   0.14950514 
   24000    293.01821   -992.33754    149906.09   -47443.934    4023.8995   -51467.834   0.16250435 
   24100      291.071   -1004.3529    149927.04   -47369.832    3997.1593   -51366.991    0.1592684 
   24200     293.6886   -1020.2476     149911.9   -47496.203    4033.1056   -51529.309   0.15671084 
   24300    292.78387   -950.36779    149915.87    -47538.42    4020.6814   -51559.102   0.15631921 
   24400    292.53601   -958.77763     149911.1   -47563.013    4017.2776   -51580.291   0.15037344 
   24500    289.68696   -1003.4613    149909.86   -47517.772    3978.1529   -51495.925   0.15562253 
   24600    286.85336   -1042.3484    149913.03   -47565.345    3939.2401   -51504.585   0.15756579 
   24700    287.08975   -1003.0811    149904.42   -47567.319    3942.4863   -51509.806   0.15942309 
   24800    290.18381   -983.08667    149931.63   -47515.327    3984.9759   -51500.303   0.15346434 
   24900    290.69719   -992.39018    149916.79   -47569.709    3992.0259   -51561.735   0.15506784 
   25000    292.33031   -1006.0786    149912.41   -47560.149    4014.4528   -51574.601   0.15523869 
   25100    287.78663    -970.4716    149910.51   -47607.691    3952.0564   -51559.747   0.14844231 
   25200    287.34356   -1016.3318    149866.28   -47740.325    3945.9718   -51686.297     0.143925 
   25300    288.18739   -1013.3676    149893.51   -47578.838    3957.5598   -51536.398    0.1615212 
   25400    291.39906   -1011.3575    149898.42   -47617.297    4001.6643   -51618.961   0.14550178 
   25500    289.74317   -1035.9774    149915.92   -47508.458    3978.9246   -51487.383   0.16796275 
   25600    291.31122   -994.64606    149931.99   -47418.102    4000.4581    -51418.56   0.15823519 
   25700     288.8765   -997.02603    149944.77   -47515.583    3967.0231   -51482.606   0.15611207 
   25800     294.7529   -1014.5185    149961.16   -47370.674    4047.7212   -51418.395   0.16384322 
   25900     299.3537     -987.302    149958.38   -47396.044    4110.9022   -51506.946    0.1466686 
   26000    292.92872   -1020.7941    149946.39   -47435.617    4022.6706   -51458.287   0.15939284 
   26100    290.40392   -1014.3524    149974.46   -47424.196    3987.9986   -51412.195    0.1606861 
   26200    292.00564    -1018.866    149959.72   -47537.023    4009.9942   -51547.017   0.15200467 
   26300    291.86189   -1004.4442    149950.25   -47491.195    4008.0203   -51499.215   0.15744463 
   26400     292.6743   -1021.6875    149927.41   -47551.755    4019.1767   -51570.931   0.15528893 
   26500    292.92967   -1004.6475       149962   -47465.779    4022.6836   -51488.463   0.15584021 
   26600    292.58766   -958.42682    149995.84   -47405.071    4017.9869   -51423.058   0.15199744 
   26700    290.13655    -1004.872    150010.08   -47412.711    3984.3269   -51397.038   0.16406829 
   26800    294.18094   -976.62888    150007.08   -47469.151    4039.8668   -51509.017   0.15032765 
   26900    294.43245   -1004.1624    149999.61   -47405.269    4043.3206    -51448.59   0.15478846 
   27000    293.58817   -1002.4468    149986.78   -47434.772    4031.7265   -51466.499   0.16274166 
   27100    294.13974   -996.71107    149989.62   -47380.134     4039.301   -51419.435   0.15586779 
   27200     294.4663   -1003.8503    149976.86   -47449.386    4043.7855   -51493.171   0.16515231 
   27300    302.15321   -956.91982    150017.56   -47279.022    4149.3467   -51428.369   0.15633678 
   27400    291.82188   -1045.6503     150007.2   -47405.892    4007.4708   -51413.363   0.15773454 
   27500    290.10107   -1000.7262     149969.2   -47515.883    3983.8397   -51499.723   0.15842051 
   27600    292.27945   -991.71971    149921.21   -47565.574    4013.7544   -51579.328   0.15199467 
   27700      292.914   -969.26074    149946.23   -47457.507    4022.4684   -51479.976   0.15590179 
   27800    293.09324   -996.27235    149937.44   -47432.308    4024.9298   -51457.238   0.16334526 
   27900    290.21415   -1004.4421    149932.15   -47498.238    3985.3925   -51483.631    0.1536941 
   28000    290.32178   -968.12626    149903.01   -47567.536    3986.8705   -51554.406   0.15657652 
   28100    288.85509   -978.89241    149902.72   -47543.848    3966.7291   -51510.577   0.15648066 
   28200    287.19189   -1036.0868    149916.86   -47514.564    3943.8891   -51458.453   0.16346024 
   28300    290.85806   -1001.2332    149943.34   -47536.525     3994.235    -51530.76    0.1520779 
   28400    293.62707   -1024.6044    149957.42   -47471.741    4032.2607   -51504.002    0.1597382 
   28500    293.05127   -999.07887    149948.42   -47499.418    4024.3535   -51523.771   0.14984414 
   28600    291.89501   -1009.0233    149911.84   -47502.948    4008.4751   -51511.423   0.15728945 
   28700    289.93829   -995.72963    149922.25   -47500.279    3981.6042   -51481.883   0.16497593 
   28800    292.91319   -1000.5046    149905.31   -47544.332    4022.4572   -51566.789   0.14867988 
   28900    290.02973   -1002.6193    149905.21   -47514.187      3982.86   -51497.047   0.15993716 
   29000    293.42356   -1016.3944    149929.18   -47462.044     4029.466    -51491.51   0.15982394 
   29100     295.4506   -956.04586    149925.99   -47451.361    4057.3025   -51508.664   0.15217888 
   29200     297.7291   -1041.2538    149940.76   -47387.112    4088.5922   -51475.704   0.16439735 
   29300    300.27789   -997.46024    149950.03   -47392.661    4123.5937   -51516.255   0.16009049 
   29400     296.9422   -1021.8395    149948.67   -47407.388    4077.7861   -51485.174   0.15641486 
   29500    295.63624   -1028.5931    149921.33   -47449.814    4059.8518   -51509.666   0.16079491 
   29600    293.05131   -1015.7891    149932.59   -47420.327     4024.354   -51444.681   0.15660953 
   29700    296.66297   -1004.2546    149924.98   -47498.425    4073.9515   -51572.376   0.16014424 
   29800    294.65655   -1002.5231    149892.03   -47589.908    4046.3982   -51636.306   0.15301825 
   29900    291.37925   -1013.3168    149897.97   -47573.031    4001.3924   -51574.423   0.15803652 
   30000     290.4758   -1007.5893    149880.87    -47529.79    3988.9856   -51518.776   0.15020646 
   30100    294.03815    -1018.939    149866.93     -47501.7    4037.9059   -51539.606   0.16699648 
   30200     288.9969   -986.59515    149878.61   -47504.945    3968.6764   -51473.621    0.1571261 
   30300    290.07325   -995.58482    149891.28   -47499.701    3983.4576   -51483.159   0.15757491 
   30400    285.53201   -993.63681    149903.94   -47537.997    3921.0946   -51459.091   0.16509632 
   30500    290.40058   -993.97696    149878.72   -47639.954    3987.9527   -51627.907   0.14413797 
   30600    293.05801   -974.25398    149865.94   -47507.595    4024.4461   -51532.041   0.15952975 
   30700    293.03439   -1014.8076    149866.71   -47536.821    4024.1217   -51560.943    0.1619915 
   30800    293.14016   -986.12066    149874.34   -47467.494    4025.5742   -51493.068   0.15450822 
   30900    290.38881   -986.97052    149929.08   -47452.419     3987.791    -51440.21   0.16354697 
   31000    296.39736   -1003.2116    149937.21   -47491.404     4070.304   -51561.708   0.15091347 
   31100    294.84544   -970.87876    149934.03   -47499.053     4048.992   -51548.045   0.15393357 
   31200    294.83578   -1013.3603    149908.12   -47444.692    4048.8594   -51493.551   0.16279035 
   31300    297.23687   -1006.7826    149922.25   -47379.756    4081.8327   -51461.589    0.1608729 
   31400     286.1943   -1052.5933    149892.47   -47495.711    3930.1895   -51425.901   0.16542258 
   31500    288.40956   -1035.6974    149902.88    -47440.56    3960.6108   -51401.171   0.16271166 
   31600    295.19709   -1020.6454    149910.36   -47467.028    4053.8212   -51520.849   0.15952265 
   31700    296.82046    -1004.833    149916.74   -47435.261    4076.1143   -51511.375   0.15308516 
   31800    292.07446   -989.56536    149898.14    -47496.75    4010.9394   -51507.689    0.1592587 
   31900    293.16903    -975.1249    149904.22   -47491.384    4025.9707   -51517.355   0.15726585 
   32000      295.035   -996.16327    149898.24   -47444.005    4051.5953   -51495.601   0.15464186 
   32100    290.76032   -960.54618    149895.35    -47478.91    3992.8928   -51471.803   0.16209508 
   32200    289.21166   -974.64579    149894.11   -47603.923    3971.6257   -51575.549   0.14917961 
   32300     293.1891   -995.59103    149901.44   -47547.859    4026.2462   -51574.105   0.14767005 
   32400     284.2659   -1035.0213    149878.61   -47642.248    3903.7076   -51545.956   0.16133149 
   32500    289.38846    -971.6097    149871.85   -47494.172    3974.0536   -51468.226   0.14653073 
   32600    295.54121   -986.76795    149904.39   -47455.326    4058.5468   -51513.873    0.1629403 
   32700    290.10585   -987.36596    149894.48   -47544.893    3983.9053   -51528.798   0.15201011 
   32800    296.94333   -1015.5789    149904.55    -47412.09    4077.8016   -51489.891   0.16038475 
   32900    294.29247   -1028.8125    149929.59   -47485.663    4041.3984   -51527.061   0.16056532 
   33000    292.33703   -969.17288    149934.55   -47471.869    4014.5452   -51486.414   0.15524955 
   33100    291.87524   -995.68216    149925.91   -47502.751    4008.2035   -51510.955   0.15406911 
   33200    291.44706   -971.01445    149918.27   -47480.951    4002.3236   -51483.274   0.14879354 
   33300    287.40584   -1014.8904    149914.32   -47482.634    3946.8272   -51429.461   0.16149125 
   33400    292.09022   -938.42018    149909.68   -47499.919    4011.1558   -51511.075   0.14856795 
   33500    292.32801   -970.38537    149893.55   -47527.108    4014.4213   -51541.529   0.15733587 
   33600    288.21752   -1028.7468    149906.31   -47542.823    3957.9736   -51500.796   0.15589631 
   33700    286.21706   -988.63977    149926.28   -47432.917    3930.5021   -51363.419   0.15675058 
   33800    298.78921   -1007.7863    149960.89   -47330.616    4103.1503   -51433.766   0.16097686 
   33900    294.97697   -1006.4232    149964.87   -47350.704    4050.7983   -51401.503   0.15913456 
   34000    290.81131   -994.55257    149936.53   -47502.715     3993.593   -51496.308   0.15018172 
   34100    292.60531   -997.08203    149928.32   -47525.965    4018.2293   -51544.194   0.16079445 
   34200    292.68711   -993.77139    149922.62   -47518.933    4019.3526   -51538.285   0.14838065 
   34300     287.9997   -1008.3744    149918.55   -47555.089    3954.9824   -51510.072   0.15493641 
   34400    292.15158   -1000.7464    149921.65   -47482.272    4011.9984    -51494.27   0.15636846 
   34500    295.11602   -998.94597    149946.13   -47408.199    4052.7079   -51460.907   0.15651867 
   34600    291.76803   -998.86533    149955.84   -47401.674    4006.7313   -51408.405   0.16248035 
   34700    290.85222   -1033.2043    149937.27   -47520.816    3994.1548   -51514.971   0.15903948 
   34800    288.18148   -985.76927    149919.48    -47509.89    3957.4787   -51467.369   0.15627998 
   34900    290.88573   -1039.8001    149941.73   -47495.331    3994.6151   -51489.946   0.15354844 
   35000    293.53825   -981.68739     149939.3   -47470.851    4031.0409   -51501.892   0.15432674 
   35100    291.28357   -1032.9853    149950.22   -47487.383    4000.0784   -51487.462   0.15494414 
   35200    299.37225   -985.58017    149977.75   -47426.608    4111.1569   -51537.765   0.15280891 
   35300    291.48478   -1022.7122    149962.91    -47503.75    4002.8416   -51506.591   0.16193046 
   35400    296.31882   -968.34255    149979.86   -47509.954    4069.2255    -51579.18   0.14564217 
   35500    291.47434   -992.95445    149966.38   -47495.961    4002.6982   -51498.659     0.155712 
   35600    293.99536   -1020.2166     149978.8   -47472.013    4037.3184   -51509.332   0.15469171 
   35700    291.55542    -998.9245    150000.89    -47484.33    4003.8117   -51488.142   0.15018638 
   35800    296.36799   -1018.6422    150043.86    -47312.93    4069.9007   -51382.831   0.16736585 
   35900    294.21234   -1027.1161    150035.23   -47439.183    4040.2981   -51479.481    0.1492893 
   36000    290.81074   -1040.8576    149997.85   -47491.895    3993.5852    -51485.48   0.15692208 
   36100    287.81913   -979.09895    149984.55   -47537.482    3952.5027   -51489.985   0.15095201 
   36200    288.72333   -1021.6002    149952.92   -47569.497    3964.9196   -51534.417   0.15405563 
   36300    286.50024   -987.36155    149932.71    -47498.44    3934.3908    -51432.83   0.14936444 
   36400    287.46372   -968.58945    149953.44   -47554.701     3947.622   -51502.323   0.15471378 
   36500    286.74022   -990.73754    149964.66   -47528.176    3937.6864   -51465.863   0.14944112 
   36600    292.08887   -990.20928    149952.53   -47530.474    4011.1372   -51541.611    0.1495617 
   36700    286.00665   -1007.5717    149941.85   -47566.493    3927.6126   -51494.105   0.15457663 
   36800    287.78362   -1001.0338    149932.61   -47644.357     3952.015   -51596.372   0.14865084 
   36900    294.58667   -1021.2902     149939.3    -47563.07    4045.4386   -51608.508   0.14790281 
   37000    290.92886   -981.55143    149952.46   -47548.527    3995.2073   -51543.734   0.15698032 
   37100    285.87478   -1037.2569    149935.15   -47586.535    3925.8016   -51512.337   0.14675254 
   37200    285.82175   -1058.0623    149913.01   -47590.964    3925.0735   -51516.037   0.15759309 
   37300    290.62594   -1002.0207    149906.77    -47582.07    3991.0474   -51573.117   0.15439065 
   37400    286.57312   -1026.4649    149915.67   -47597.101    3935.3917   -51532.492   0.14855283 
   37500    287.43875   -1015.7934    149933.91   -47568.786    3947.2791   -51516.065    0.1609117 
   37600    290.55897   -989.89475    149951.69   -47622.704    3990.1278   -51612.832   0.14027613 
   37700    283.36394   -989.92727    149896.29    -47698.51    3891.3213   -51589.831   0.14754446 
   37800    284.98382   -988.60969    149868.16   -47714.782    3913.5665   -51628.348   0.14885701 
   37900    286.66428    -998.4783    149892.25   -47620.895    3936.6435   -51557.539   0.15379282 
   38000    289.34179   -1022.8406    149899.14   -47554.192    3973.4127   -51527.605    0.1532739 
   38100    290.23828   -1012.2223    149925.39   -47493.068    3985.7239   -51478.792   0.15648989 
   38200    296.54658   -1009.4779    149937.25   -47455.885    4072.3531   -51528.238   0.15370913 
   38300     290.1322    -1000.768    149955.89   -47507.685    3984.2671   -51491.952   0.15407416 
   38400    293.03068   -1021.6787    149959.33   -47442.929    4024.0708       -51467   0.15627621 
   38500    290.09737   -1011.2205    149933.16   -47502.881    3983.7888    -51486.67   0.15608362 
   38600    291.71373   -989.61614    149978.74   -47466.391    4005.9856   -51472.376   0.14837932 
   38700    291.70812   -1001.4301     149976.5   -47430.551    4005.9086   -51436.459    0.1591716 
   38800    295.43251   -979.23361    149968.88    -47468.93    4057.0541   -51525.984   0.14754872 
   38900    297.79464   -1013.6763    149994.16   -47411.523    4089.4922   -51501.015   0.15752663 
   39000    287.91447   -1040.8723    149990.12   -47464.218     3953.812    -51418.03   0.16088974 
   39100     290.2432   -998.44793    149980.86   -47492.768    3985.7914   -51478.559    0.1466112 
   39200    288.21525   -1013.4804     149926.6   -47614.228    3957.9424    -51572.17   0.15482483 
   39300    289.56672   -992.72221    149914.69   -47630.862    3976.5016   -51607.363   0.15068664 
   39400    288.58255   -1041.3463    149931.43   -47496.845    3962.9864   -51459.832   0.15734113 
   39500    293.23552   -973.38859    149928.16   -47483.892    4026.8838   -51510.776   0.15608643 
   39600    289.65817   -998.54774    149946.94   -47484.025    3977.7575   -51461.782   0.15159767 
   39700    291.42839   -986.12247    149928.02   -47461.365    4002.0672   -51463.433   0.15379609 
   39800    291.12015    -991.8466    149927.26   -47484.692    3997.8342   -51482.526   0.15224462 
   39900    295.89105   -968.14175    149930.59   -47446.834    4063.3511   -51510.185   0.15547761 
   40000    296.05419   -1004.8708    149949.61    -47521.24    4065.5914   -51586.831   0.15094761 
   40100    286.87838   -1000.5486    149950.16    -47535.17    3939.5837   -51474.754   0.15663417 
   40200    290.89784   -978.55396    149964.05   -47509.135    3994.7813   -51503.916   0.15161931 
   40300    290.46994   -999.13721    149948.97     -47516.7    3988.9051   -51505.605   0.14623987 
   40400    284.44484   -1003.5371    149948.07   -47601.187    3906.1649   -51507.352   0.15797847 
   40500     292.3326   -994.86244    149984.02   -47458.233    4014.4843   -51472.717   0.14978208 
   40600    292.22671   -1031.6997    149964.64   -47533.293    4013.0302   -51546.323   0.15672815 
   40700    290.69948   -994.32046    149953.57   -47535.164    3992.0573   -51527.221    0.1536264 
   40800    290.75227   -1033.8606    149954.42   -47513.218    3992.7823       -51506   0.15421262 
   40900    290.49152   -954.24549    149964.06   -47499.289    3989.2015    -51488.49   0.14644765 
   41000    288.08122   -1009.0188    149986.83   -47572.316    3956.1019   -51528.417   0.15623888 
   41100    290.75775   -991.77887    149972.99   -47537.943    3992.8575     -51530.8   0.14767761 
   41200    297.61862   -973.89973    150002.91   -47426.976     4087.075   -51514.051   0.15360074 
   41300    293.69456   -976.01039    150020.53   -47518.248    4033.1876   -51551.436   0.14897662 
   41400    296.55262   -1014.1094    149987.97   -47455.836    4072.4361   -51528.272   0.15569435 
   41500    294.97304   -1001.6301    150006.14   -47473.556    4050.7444     -51524.3    0.1560026 
   41600    287.07201   -1009.3967    149995.34   -47484.251    3942.2427   -51426.494   0.15846573 
   41700    289.31425   -1003.7179    149963.91   -47594.011    3973.0345   -51567.045   0.14706512 
   41800    287.63409   -1005.1272    149979.93   -47505.497    3949.9616   -51455.458   0.15440955 
   41900    293.71245   -1007.5087    149963.71    -47580.35    4033.4332   -51613.783     0.154652 
   42000    288.91109   -1007.7019    149945.46   -47551.539    3967.4981   -51519.037   0.14393853 
   42100    286.58252   -1015.3392    149920.77   -47624.152    3935.5208   -51559.673   0.16073757 
   42200     290.1668   -995.77687    149929.94   -47583.955    3984.7422   -51568.698   0.14275939 
   42300    288.09934   -1014.6672    149945.56   -47546.537    3956.3506   -51502.888   0.15555654 
   42400    288.32728    -1011.261    149966.53   -47571.395    3959.4808   -51530.876   0.14901553 
   42500    289.49244   -1048.3277    149970.39   -47535.127    3975.4816   -51510.608   0.15598324 
   42600    289.24407   -1053.5481    149956.73   -47569.003    3972.0708   -51541.074   0.15438615 
   42700    289.63213   -1014.3484       149951   -47642.127    3977.3998   -51619.527   0.15021429 
   42800    287.89481   -993.93456    149935.73   -47548.654    3953.5419   -51502.196   0.15014613 
   42900     291.7231   -972.17267     149930.2   -47565.615    4006.1142    -51571.73   0.14846202 
   43000     288.8384    -1010.595    149928.15   -47590.366    3966.4999   -51556.866   0.15432724 
   43100    290.59224   -1002.0233    149944.34    -47509.98    3990.5847   -51500.565   0.15319381 
   43200    291.48647   -1010.4119    149944.14    -47525.32    4002.8647   -51528.185   0.15359176 
   43300     292.8641   -963.67407    149930.06   -47518.114    4021.7831   -51539.897   0.15501442 
   43400    299.37987   -987.77729    149966.39   -47448.559    4111.2615   -51559.821   0.14761546 
   43500    289.93988    -1034.639    149974.06   -47511.689    3981.6261   -51493.315   0.15742867 
   43600    286.91549   -1025.6099    149945.72   -47550.428    3940.0933   -51490.521   0.15340742 
   43700    285.86229   -1000.1034    149915.61    -47589.44    3925.6301    -51515.07   0.14895012 
   43800    284.74588   -1006.3913    149910.54   -47624.087     3910.299   -51534.386   0.15668884 
   43900    292.86756    -980.7798     149913.9   -47537.727    4021.8307   -51559.558   0.14882301 
   44000    283.81237    -1009.332     149907.7   -47625.658    3897.4795   -51523.137   0.14959576 
   44100    293.44259   -980.31532     149882.2   -47580.605    4029.7273   -51610.332   0.15667194 
   44200    291.06978   -984.73072     149905.5   -47538.864    3997.1425   -51536.006   0.14508822 
   44300    291.78331   -994.22687    149893.86   -47542.071    4006.9412   -51549.012   0.15474469 
   44400    290.17358    -969.0462    149881.07   -47550.503    3984.8353   -51535.338   0.15344516 
   44500    289.72589   -1000.9883    149896.69   -47559.099    3978.6874   -51537.786   0.14954981 
   44600    287.00044   -986.47075    149880.62   -47557.215    3941.2599   -51498.475   0.15503358 
   44700    286.82247   -1046.4569    149909.87   -47550.998    3938.8159   -51489.814   0.15522932 
   44800    296.38749   -978.97106    149887.75   -47504.925    4070.1684   -51575.093    0.1570474 
   44900    291.22562   -977.75652    149931.48   -47495.832    3999.2826   -51495.115   0.14901115 
   45000    291.52676   -972.49414     149921.2    -47533.59     4003.418   -51537.008   0.15827728 
   45100    295.08593   -999.20512    149946.98   -47419.147    4052.2946   -51471.441   0.15065966 
   45200    290.14263   -985.90745    149956.92   -47461.995    3984.4104   -51446.405   0.15991713 
   45300    287.37391   -993.96502     149928.7   -47480.094    3946.3886   -51426.483   0.15413666 
   45400    291.81232   -1018.9781    149910.73   -47544.706    4007.3395   -51552.046   0.15592017 
   45500    295.56994   -1009.2446    149940.58   -47487.702    4058.9414   -51546.643   0.15110276 
   45600    289.76626   -985.90509     149965.7   -47481.095    3979.2417   -51460.337   0.15698149 
   45700    295.17346   -979.32426    149944.37   -47430.562    4053.4966   -51484.059   0.14876188 
   45800    292.05225   -1031.6896    149952.57   -47512.469    4010.6344   -51523.104     0.162581 
   45900    299.25466   -980.26561    149965.82    -47373.74    4109.5421   -51483.282   0.15385631 
   46000    298.48071   -979.69436    149980.82   -47438.572    4098.9137   -51537.486   0.15223815 
   46100    298.88534   -988.82108    149957.27   -47341.632    4104.4704   -51446.102   0.16325054 
   46200    296.14803   -1019.7056     150003.3   -47407.727    4066.8801   -51474.608   0.14902309 
   46300    296.71722   -991.63318    150007.55   -47396.835    4074.6964   -51471.531   0.15897265 
   46400    291.36778   -1036.1139    149985.44   -47443.169    4001.2348   -51444.404    0.1535932 
   46500    291.09443   -1035.1437    149975.95   -47404.338     3997.481   -51401.819   0.16366892 
   46600    297.06332     -961.589    149959.34   -47461.469    4079.4494   -51540.918   0.15247428 
   46700    299.60208   -961.72219    149982.42   -47399.278     4114.313   -51513.591   0.15307768 
   46800    297.81489   -977.51958    149969.11   -47410.573    4089.7703   -51500.344   0.14975051 
   46900    289.11261   -975.12372    149938.82   -47464.067    3970.2655   -51434.333   0.15922755 
   47000    291.94214   -989.52347    149960.18   -47495.034    4009.1223   -51504.156   0.15055411 
   47100    289.70817   -984.71538    149951.86   -47508.476    3978.4441   -51486.921   0.15405949 
   47200    289.25393   -1011.2769    149919.41   -47476.285    3972.2062   -51448.491   0.15512335 
   47300    285.87517   -1022.4336    149901.29   -47598.644    3925.8071   -51524.451   0.15304737 
   47400    292.46235   -975.50785    149893.18    -47525.51    4016.2661   -51541.776   0.15290399 
   47500    291.20221   -1003.0423    149895.93   -47531.082    3998.9611   -51530.043   0.15123729 
   47600    289.94389   -1003.8085    149915.17   -47528.583    3981.6811   -51510.264   0.15699752 
   47700    297.91569   -1019.1645    149920.46    -47458.28    4091.1546   -51549.435   0.15246871 
   47800    294.71905   -951.92552    149912.35   -47513.428    4047.2565   -51560.684   0.15134997 
   47900    291.41212   -1007.7945    149908.82   -47568.021    4001.8437   -51569.864   0.15617842 
   48000    292.29541   -1022.9424    149923.41   -47525.125    4013.9736   -51539.099   0.15182675 
   48100    293.31407   -1023.8039    149900.88   -47564.922    4027.9624   -51592.884   0.16084962 
   48200    290.24645   -1007.8357     149910.1   -47556.664     3985.836     -51542.5   0.15013059 
   48300    298.44314   -988.39086    149916.71   -47508.128    4098.3978   -51606.526   0.15137793 
   48400    293.12056   -970.40888    149916.27   -47545.364     4025.305   -51570.669   0.15204595 
   48500    290.53809   -1015.9412    149891.16   -47631.143     3989.841   -51620.984   0.14963656 
   48600    287.87815   -1017.7838    149891.68   -47623.569    3953.3131   -51576.882   0.15310649 
   48700    293.15765    -980.3736    149934.66    -47517.75    4025.8144   -51543.565   0.15654367 
   48800    293.93679   -962.51088    149948.49   -47499.507     4036.514   -51536.021     0.148996 
   48900    288.78695   -1031.6639    149959.83   -47531.782    3965.7933   -51497.575   0.15643006 
   49000    295.01054   -1008.6239     149935.7   -47563.307    4051.2593   -51614.566   0.15289185 
   49100    295.69632   -973.40303    149953.25   -47480.081    4060.6769   -51540.758   0.15118735 
   49200    290.17393   -1009.6251    149947.97   -47513.418    3984.8401   -51498.258   0.15640582 
   49300    284.82484   -1037.5029    149938.71   -47587.128    3911.3834   -51498.512   0.14926124 
   49400    289.31273   -994.18801    149902.92   -47599.809    3973.0137   -51572.823   0.15741084 
   49500    287.98221   -1004.6999    149932.83   -47540.795    3954.7421   -51495.538   0.14924434 
   49600    290.36435   -997.47324    149925.23   -47533.675    3987.4551   -51521.131   0.15722364 
   49700    293.36742    -1032.118    149914.28   -47536.723     4028.695   -51565.418   0.14907107 
   49800    289.41649   -1023.6319     149913.9   -47553.574    3974.4386   -51528.012   0.16122383 
   49900    290.69075   -982.81785       149907   -47525.941    3991.9375   -51517.878    0.1490495 
   50000    291.43535   -1011.9814    149910.15   -47540.866    4002.1627   -51543.028   0.15122303 
   50100    294.48267   -998.85691     149951.6   -47392.609    4044.0103    -51436.62   0.15998716 
   50200    296.12675   -976.96957    149930.09   -47467.363    4066.5878   -51533.951   0.15202877 
   50300    293.28513   -999.40586    149909.06   -47481.872    4027.5649   -51509.437   0.15225572 
   50400    289.60437   -970.73768    149903.84   -47499.382    3977.0186   -51476.401   0.15663444 
   50500     293.2365   -1014.5435     149917.4    -47411.47    4026.8972   -51438.367   0.15832817 
   50600    298.96976   -1001.9505    149936.13   -47339.201    4105.6298    -51444.83   0.15849514 
   50700    286.42342   -1007.8269    149897.16   -47578.683    3933.3359   -51512.019   0.15965776 
   50800    287.91031   -1024.4631    149887.08   -47557.402    3953.7548   -51511.157   0.15089556 
   50900      290.726   -1005.6505    149880.03   -47581.765    3992.4215   -51574.186   0.16061272 
   51000    291.18881   -987.34406    149895.74   -47542.549    3998.7771   -51541.326    0.1481615 
   51100     287.1325   -1001.2979    149894.46   -47548.373    3943.0734   -51491.447    0.1550715 
   51200    286.93376   -1011.8298    149879.95   -47611.072    3940.3442   -51551.416   0.15231444 
   51300    287.82044   -1003.3466    149897.58   -47620.114    3952.5206   -51572.635   0.15135006 
   51400    292.03595   -1021.1908    149888.72   -47557.191    4010.4105   -51567.602   0.15232969 
   51500    285.92443   -1008.9384    149875.45   -47617.582    3926.4835   -51544.066   0.15950522 
   51600    296.50482   -993.09538    149908.33   -47537.591    4071.7797   -51609.371   0.14843946 
   51700    296.42662   -985.91308    149920.92   -47429.288    4070.7058   -51499.994   0.15170462 
   51800    292.27401   -1020.6419    149906.31   -47477.218    4013.6798   -51490.898   0.16029143 
   51900    293.87561    -981.1044    149892.93   -47544.439    4035.6739   -51580.113   0.15069741 
   52000    291.46232   -1011.8643    149877.23   -47528.082    4002.5331   -51530.616   0.16031546 
   52100    290.61044   -993.63569    149849.16   -47600.514    3990.8346   -51591.349   0.15265877 
   52200    287.55067   -991.03457    149881.34   -47662.292     3948.816   -51611.108   0.15029528 
   52300    285.74261   -1009.1212    149840.29    -47632.94    3923.9867   -51556.927   0.15593534 
   52400    289.18593   -976.72167    149842.51   -47721.068    3971.2724    -51692.34   0.14431464 
   52500    287.83735   -973.39347    149839.32   -47563.952    3952.7529   -51516.705   0.15871153 
   52600    287.03231    -1005.429    149858.01   -47528.538    3941.6976   -51470.235   0.15505419 
   52700    291.58068   -1007.8936    149876.53   -47466.535    4004.1585   -51470.693   0.16500531 
   52800    293.94307   -1011.0029    149909.49   -47438.855    4036.6002   -51475.455   0.15422024 
   52900    294.46058   -985.09771    149889.32   -47465.098     4043.707   -51508.805   0.16076743 
   53000     293.2406    -1003.362    149935.55   -47409.747    4026.9535     -51436.7   0.16231379 
   53100    289.55664   -1016.3402    149882.83   -47554.866    3976.3632   -51531.229   0.15521872 
   53200    291.40541   -973.29508    149858.46   -47601.282    4001.7516   -51603.033   0.15457001 
   53300    286.12605   -1031.5184     149862.6   -47565.703    3929.2523   -51494.956   0.15644915 
   53400    293.28172   -991.09379    149895.05   -47498.503    4027.5181   -51526.021   0.15692162 
   53500    292.24367   -1022.2149    149898.33   -47487.872     4013.263   -51501.135   0.15958669 
   53600    291.11546   -1027.2086    149871.37   -47559.255    3997.7699   -51557.025   0.15822197 
   53700     286.2296   -1006.0012    149898.86   -47538.913    3930.6743   -51469.587   0.15511585 
   53800    291.62589   -993.90336    149874.56   -47562.396    4004.7793   -51567.176   0.16417864 
   53900    285.42293   -964.17194    149887.91   -47563.022    3919.5967   -51482.619   0.14677382 
   54000    287.94149    -1032.904    149890.01   -47576.552     3954.183   -51530.735   0.16649353 
   54100    290.53647   -1006.7785    149898.42   -47545.974    3989.8188   -51535.793   0.15002821 
   54200    287.97791   -1020.1204    149923.53   -47500.934    3954.6832   -51455.617   0.16287739 
   54300    290.60065   -1026.9337    149924.29    -47425.97    3990.7001    -51416.67   0.15765286 
   54400    296.52873   -978.35818    149966.97   -47349.177    4072.1081   -51421.285    0.1594682 
   54500     290.1218    -988.2837    149926.84   -47411.555    3984.1243   -51395.679   0.16255436 
   54600    291.74142   -994.54525    149950.14   -47428.815    4006.3659   -51435.181   0.15236645 
   54700    289.69271    -985.9374    149926.06   -47493.014    3978.2318   -51471.246   0.16334087 
   54800    291.83174   -1021.3719     149954.2   -47426.652    4007.6062   -51434.258    0.1589898 
   54900    297.55519    -982.7527    149920.42   -47437.915     4086.204   -51524.119   0.15795947 
   55000    296.00625   -990.16329    149923.23   -47473.577     4064.933    -51538.51   0.15622123 
   55100    286.99384   -978.94039     149880.1   -47486.097    3941.1692   -51427.266   0.15811721 
   55200    284.49684   -1020.5806    149843.76   -47598.462     3906.879   -51505.341   0.16054028 
   55300    289.02415   -988.49519    149832.86   -47642.394    3969.0508   -51611.444   0.15415563 
   55400    288.04685   -1030.2677    149849.82   -47608.765    3955.6298   -51564.395   0.15376821 
   55500    291.45879   -1003.9266    149868.29   -47567.157    4002.4846   -51569.641   0.15704897 
   55600    297.61562    -984.9693    149888.56   -47457.564    4087.0339   -51544.598   0.15360453 
   55700    299.16115   -972.61934    149934.66   -47417.298     4108.258   -51525.556   0.15341193 
   55800    289.98248   -993.05073    149911.38   -47407.133    3982.2111   -51389.344   0.16246587 
   55900    295.71153   -992.88402    149922.29   -47423.482    4060.8858   -51484.368    0.1558111 
   56000    289.97058   -1003.7351    149915.32   -47432.037    3982.0476   -51414.084   0.16137138 
   56100    287.78948   -980.53557    149901.02     -47413.3    3952.0955   -51365.395   0.15970223 
   56200    289.93109   -1000.9801    149916.91   -47456.635    3981.5054    -51438.14   0.15925042 
   56300    285.17338   -1010.3807    149901.24   -47530.742    3916.1696   -51446.912   0.15957466 
   56400    292.78276   -999.24851    149897.86   -47580.861    4020.6661   -51601.527   0.14985504 
   56500    287.81417    -1016.094    149841.01   -47622.196    3952.4345    -51574.63   0.15743769 
   56600    285.94906   -1017.3508    149826.22   -47683.963    3926.8217   -51610.784   0.15084558 
   56700    286.15491   -1020.6121    149834.63   -47659.722    3929.6486    -51589.37   0.16341312 
   56800    292.95764   -977.95973    149878.73   -47546.274    4023.0677   -51569.342   0.14875502 
   56900      282.453   -1021.1655    149870.69   -47643.577    3878.8118   -51522.388   0.16145091 
   57000    288.94999   -988.34489    149849.03   -47628.208    3968.0322    -51596.24   0.15247505 
   57100    289.26705    -970.9045    149870.62   -47547.505    3972.3863   -51519.891   0.15501523 
   57200    293.35859   -1009.1058     149878.9   -47500.429    4028.5738   -51529.003   0.15789169 
   57300    285.58551   -985.96009    149870.79   -47634.917    3921.8292   -51556.746   0.15493906 
   57400    289.29632   -1029.5414    149881.59   -47513.615    3972.7883   -51486.404   0.16290171 
   57500    289.94327   -1001.9567     149938.2   -47481.046    3981.6726   -51462.718    0.1558199 
   57600    286.61783   -975.52453    149898.79   -47591.213    3936.0057   -51527.219   0.15770407 
   57700    289.24481    -983.7383    149914.59   -47503.004     3972.081   -51475.085   0.15511701 
   57800    294.73231   -971.60299    149926.93    -47449.87    4047.4386   -51497.308   0.15869651 
   57900    295.72757    -986.9677    149948.86    -47494.34     4061.106   -51555.446   0.15026831 
   58000    292.07007   -1003.8972    149929.69   -47440.987    4010.8791   -51451.866   0.16222095 
   58100    290.87554   -1013.1985    149927.99   -47498.692     3994.475   -51493.167   0.15815329 
   58200    294.42983   -996.21689    149965.91    -47392.33    4043.2846   -51435.615   0.15842397 
   58300    290.74005   -995.10592    149932.78   -47454.133    3992.6145   -51446.747   0.15568582 
   58400    290.06927   -1000.3926    149930.93   -47496.021     3983.403   -51479.424   0.16150808 
   58500    289.50266   -989.96302    149925.01    -47499.53    3975.6218   -51475.152   0.15528451 
   58600    287.06718   -963.69671    149917.02   -47538.193    3942.1765    -51480.37   0.15745259 
   58700    290.82031   -1019.1413    149917.83   -47490.201    3993.7167   -51483.918   0.15644218 
   58800    288.87399   -1008.7766    149912.23   -47535.453    3966.9886   -51502.442   0.15716136 
   58900    293.41422   -990.83295    149936.06   -47448.282    4029.3378   -51477.619   0.15781447 
   59000    293.18734   -989.40652    149942.75   -47413.961    4026.2221   -51440.183    0.1570968 
   59100    299.91277   -966.06769    149932.27    -47380.79    4118.5797    -51499.37   0.15742187 
   59200     288.9203   -1016.3044    149922.19   -47506.952    3967.6246   -51474.576    0.1563713 
   59300    290.63349   -985.76147    149926.02   -47487.265    3991.1511   -51478.416   0.15906883 
   59400    291.51639   -1050.8162    149907.91   -47474.972    4003.2756   -51478.248   0.15840726 
   59500    292.40085   -1045.9503    149895.42    -47586.57    4015.4215   -51601.991   0.15573893 
   59600    289.14924   -1012.6501    149904.84   -47555.344    3970.7685   -51526.112   0.15567816 
   59700    293.32701   -998.26613    149912.46   -47484.186    4028.1401   -51512.326   0.15504034 
   59800    284.30475    -1019.071    149901.53   -47607.317    3904.2411   -51511.558   0.15463565 
   59900     286.3411   -993.67287    149893.75   -47594.762    3932.2054   -51526.967   0.15256497 
   60000    292.07014   -1020.1864    149895.32    -47562.86    4010.8801    -51573.74   0.15362709 
   60100    282.58292   -1004.8813    149894.84   -47526.178    3880.5959   -51406.774   0.15963715 
   60200    293.54901   -988.00778    149901.91    -47494.53    4031.1887   -51525.719   0.15390805 
   60300    291.34149   -989.38277    149938.68   -47449.459    4000.8738   -51450.333   0.15594474 
   60400    296.03227   -990.93253    149949.54    -47398.97    4065.2903    -51464.26   0.15585886 
   60500    295.79672   -1004.9354    149964.82   -47428.449    4062.0557   -51490.505   0.15510729 
   60600    291.26205   -947.82089    149934.26   -47489.804    3999.7828   -51489.587    0.1529961 
   60700     294.3556   -1003.7763    149967.25   -47311.165    4042.2653   -51353.431   0.16258452 
   60800    297.71607   -986.34445    149978.14   -47338.556    4088.4134    -51426.97   0.15954987 
   60900    294.69347   -1015.1817    149949.72   -47431.189    4046.9051   -51478.094   0.15562376 
   61000    297.58149   -1009.9234    149936.48   -47476.489    4086.5651   -51563.054   0.15180061 
   61100    296.19844   -1005.3348    149934.89   -47462.533    4067.5723   -51530.105   0.15864207 
   61200    299.65492   -953.54242    149943.83   -47397.004    4115.0387   -51512.043   0.15008288 
   61300    289.07099   -1019.0459    149927.68   -47496.964    3969.6939   -51466.658   0.16606116 
   61400    289.62079   -960.43401    149924.29   -47547.121    3977.2442   -51524.365   0.14720727 
   61500    293.20932   -973.73421    149928.32   -47484.675    4026.5239   -51511.199   0.15482504 
   61600    292.13818   -1016.7179    149909.06   -47531.772    4011.8144   -51543.586   0.15509366 
   61700    290.36216   -1005.8458    149901.59   -47594.492    3987.4251   -51581.917   0.14965462 
   61800    287.91229   -978.03852    149881.92    -47573.42     3953.782   -51527.202   0.15700554 
   61900     292.6308    -979.9359    149916.78    -47475.31    4018.5794    -51493.89   0.15210112 
   62000     289.3125   -1003.7612    149929.31   -47486.223    3973.0104   -51459.233    0.1535471 
   62100    288.70275   -1043.2832    149905.55   -47556.109     3964.637   -51520.746   0.15628031 
   62200    290.47992   -995.19365    149927.72   -47446.696    3989.0422   -51435.739   0.15929325 
   62300    293.37417   -984.12224    149923.85   -47497.692    4028.7878    -51526.48    0.1483146 
   62400    290.33912   -1004.3399     149904.7   -47545.629    3987.1087   -51532.738   0.15823048 
   62500    290.40971   -981.83977    149919.18   -47532.518     3988.078   -51520.596   0.14586595 
   62600    289.84679   -1002.6875    149904.41   -47564.569    3980.3477   -51544.917    0.1572869 
   62700    288.64033   -1000.5811    149880.61   -47604.237    3963.7799   -51568.016   0.15149581 
   62800     287.3083   -1036.6504     149875.6   -47573.572    3945.4876    -51519.06   0.16069988 
   62900    288.92333    -994.0292    149895.61   -47477.328    3967.6662   -51444.994   0.15367181 
   63000    291.26696   -1017.2192    149894.16   -47507.256    3999.8503   -51507.107   0.15491436 
   63100    288.83945    -1001.172    149888.24   -47582.674    3966.5143   -51549.188   0.15256271 
   63200    299.16544   -1003.6564    149899.85   -47459.315    4108.3168   -51567.632   0.15476544 
   63300    288.25382   -1005.8077    149883.74   -47555.641    3958.4721   -51514.113    0.1606476 
   63400    287.39976   -1015.2191    149875.46   -47646.012    3946.7437   -51592.756   0.14820111 
   63500    285.61749   -968.29817    149880.81   -47616.839    3922.2684   -51539.107   0.15384288 
   63600    288.09909   -1010.7492    149885.21    -47671.83    3956.3472   -51628.177   0.15327737 
   63700    284.88799    -1017.298    149867.14   -47636.762    3912.2506   -51549.013    0.1540028 
   63800    284.70183   -1005.4372    149851.54    -47710.07     3909.694   -51619.764   0.15141956 
   63900    287.16432   -1012.3805    149867.42   -47596.501    3943.5105   -51540.011   0.15734015 
   64000    289.72213   -994.42975    149888.26   -47508.367    3978.6358   -51487.003   0.15470762 
   64100    290.96238    -996.3139    149921.34   -47460.381    3995.6677   -51456.049   0.15914723 
   64200    295.29806   -998.10128    149933.92   -47454.304    4055.2077   -51509.512   0.15424732 
   64300    290.64231   -1031.2915    149924.66   -47490.969    3991.2723   -51482.241   0.15520079 
   64400    288.38563    -1013.603    149902.41   -47549.149    3960.2822   -51509.431   0.16319738 
   64500    286.01737   -979.05502    149912.04   -47536.864    3927.7598   -51464.624   0.15115797 
   64600    287.95009   -973.89316    149912.29   -47580.025    3954.3011   -51534.327   0.15914286 
   64700    289.66094   -967.56884    149903.98    -47578.63    3977.7955   -51556.425   0.14787659 
   64800    293.89136   -970.97822    149891.03   -47523.724    4035.8901   -51559.614   0.15263009 
   64900    291.76786   -971.96849    149919.33   -47436.644     4006.729   -51443.373   0.15989763 
   65000    291.96972   -995.56771    149915.11   -47421.997     4009.501   -51431.498   0.15673104 
   65100    290.47796    -1008.427    149909.62   -47491.773    3989.0152   -51480.789   0.16186916 
   65200    287.21495   -975.75103    149883.18   -47508.695    3944.2056   -51452.901   0.14907064 
   65300    291.89312   -961.94514    149909.05   -47445.957    4008.4491   -51454.406   0.16020161 
   65400    296.10566   -973.16448    149908.55   -47490.135    4066.2983   -51556.433   0.15565061 
   65500     293.0967     -996.528    149916.46   -47422.324    4024.9774   -51447.301    0.1604206 
   65600    288.57307   -1040.8945    149912.22   -47439.002    3962.8562   -51401.858   0.15687326 
   65700    294.17344   -992.94927    149938.24   -47400.256    4039.7638    -51440.02   0.15865629 
   65800    292.90821   -982.62969     149933.6   -47469.495     4022.389   -51491.884   0.15181377 
   65900    289.55023   -1030.8904    149904.96   -47477.591    3976.2751   -51453.866   0.16347923 
   66000     292.2027   -1001.0373    149918.25   -47486.107    4012.7004   -51498.807   0.15267323 
   66100    295.55713   -1019.0047     149899.6   -47457.853    4058.7654   -51516.618   0.16012417 
   66200    288.89135   -1026.7728    149866.67   -47589.274    3967.2271   -51556.501   0.15752584 
   66300    296.66749    -988.9864    149894.17   -47521.385    4074.0136   -51595.399   0.14863373 
   66400    295.73775   -977.04598    149867.36   -47521.545    4061.2459   -51582.791   0.16329818 
   66500     287.7329    -1054.589    149881.58   -47566.045    3951.3186   -51517.364   0.15667948 
   66600    290.93056   -1005.7469    149861.82   -47560.631    3995.2306   -51555.861   0.15901839 
   66700    294.33377   -985.50377    149873.07   -47547.424    4041.9655   -51589.389   0.14977436 
   66800    290.04623   -999.39742    149896.07   -47571.866    3983.0865   -51554.953   0.15561595 
   66900    289.68867   -992.22883    149867.39   -47581.179    3978.1762   -51559.355   0.15385078 
   67000     282.3012   -1039.7958    149828.74    -47688.99    3876.7272   -51565.717   0.15696772 
   67100    292.52155   -973.46178    149865.36   -47524.308    4017.0791   -51541.387   0.15551811 
   67200    285.17564    -1016.991    149864.25   -47627.596    3916.2007   -51543.797   0.15406752 
   67300    289.94156   -998.07248    149869.87   -47548.244    3981.6491   -51529.894   0.15736541 
   67400    289.95385   -981.76137    149886.24   -47528.042    3981.8178    -51509.86   0.15708773 
   67500    292.32946   -947.98159    149891.72   -47514.201    4014.4412   -51528.643   0.15297651 
   67600    297.66643   -987.31268    149923.29   -47373.126    4087.7316   -51460.858   0.15754026 
   67700    298.03692   -979.73182    149897.82   -47441.346    4092.8193   -51534.165   0.15346487 
   67800    299.70496    -985.6752    149889.99   -47486.863    4115.7259   -51602.589   0.15029577 
   67900    290.86843   -1052.2905    149861.31   -47516.824    3994.3775   -51511.201   0.16354476 
   68000    291.29695   -1036.4375    149878.55   -47550.778    4000.2621    -51551.04   0.15552751 
   68100    284.85008   -1012.3035    149855.64   -47552.581    3911.7299   -51464.311   0.15748922 
   68200    288.85163   -998.75652    149862.57   -47521.413    3966.6816   -51488.094   0.16018946 
   68300    293.78068     -997.823    149885.33   -47471.808    4034.3702   -51506.178   0.15040074 
   68400    296.14214   -1001.1965    149889.02   -47432.497    4066.7992   -51499.296   0.16018205 
   68500     295.6768   -977.61341    149912.27   -47433.173    4060.4088   -51493.582   0.15575872 
   68600    289.31486   -1001.3028    149912.35   -47525.563    3973.0428   -51498.606   0.15475447 
   68700    291.07089   -991.34056    149892.57   -47494.171    3997.1578   -51491.329   0.15828956 
   68800    292.58731   -1015.2039    149893.48   -47495.894    4017.9821   -51513.876   0.15534825 
   68900    293.40064    -994.7422    149897.53   -47495.608    4029.1512   -51524.759   0.15387783 
   69000     290.3997   -1034.6363    149893.06   -47497.356    3987.9406   -51485.297    0.1614948 
   69100    289.91454   -981.29272    149894.04   -47563.301     3981.278   -51544.579   0.15097966 
   69200    290.55995    -983.8611    149882.88   -47575.858    3990.1413   -51565.999   0.15252171 
   69300     283.8127   -1053.7042    149859.31   -47605.552    3897.4839   -51503.036   0.15862432 
   69400    285.03437    -995.4791    149845.09   -47653.345    3914.2607   -51567.606   0.14970245 
   69500    295.10064   -962.66795    149865.34   -47517.784    4052.4967   -51570.281   0.15814095 
   69600    292.17831   -1032.2559     149911.5   -47410.469    4012.3655   -51422.835   0.15544401 
   69700    291.90048   -1040.7833     149917.6   -47507.248    4008.5502   -51515.798   0.16268806 
   69800    290.07216   -986.55621    149903.87   -47504.841    3983.4426   -51488.284   0.15365008 
   69900    287.63206   -1032.6162    149871.32    -47601.65    3949.9337   -51551.584   0.15903863 
   70000    289.48897    -1021.173    149869.49   -47528.559    3975.4339   -51503.993   0.15761603 
   70100    286.25381   -995.81393    149847.31   -47654.144    3931.0067   -51585.151   0.15361355 
   70200    294.28216   -972.58951    149847.43   -47479.363    4041.2568    -51520.62   0.15667384 
   70300    293.65159   -972.41416    149861.89   -47490.894    4032.5974   -51523.491   0.15329567 
   70400    301.00512   -1008.1467    149865.18   -47378.497    4133.5805   -51512.077   0.16163025 
   70500    289.57258   -1000.1353     149860.4   -47458.361    3976.5821   -51434.943    0.1618605 
   70600    295.55719   -1028.6587    149849.86   -47512.098    4058.7663   -51570.864   0.15857585 
   70700    286.79803   -1031.2162    149856.84   -47482.045    3938.4804   -51420.526   0.16802331 
   70800     293.1289   -991.36374    149850.83   -47518.302    4025.4196   -51543.721   0.15718839 
   70900    291.04022   -957.37313    149850.72   -47508.921    3996.7365   -51505.657   0.15724027 
   71000    291.27443   -992.10998    149850.87   -47529.127    3999.9528    -51529.08   0.16099664 
   71100    288.96303   -965.18986    149869.57   -47524.757    3968.2114   -51492.968   0.15057126 
   71200    287.64238   -1014.6192    149847.25   -47559.809    3950.0755   -51509.884   0.16369301 
   71300     288.8759   -995.54677     149822.2   -47615.737    3967.0148   -51582.752   0.15521345 
   71400    288.14161    -998.8016    149830.71   -47550.559    3956.9312    -51507.49   0.15922675 
   71500     290.5098   -1023.4678    149864.09   -47505.652    3989.4525   -51495.104   0.16349544 
   71600    291.86901   -997.25415    149869.91   -47523.656    4008.1179   -51531.774   0.15324815 
   71700    294.07429    -1018.921    149877.82   -47511.764    4038.4021   -51550.167   0.16060908 
   71800    284.39371   -1030.9817    149850.35   -47690.458    3905.4628   -51595.921   0.15376012 
   71900     288.8373   -988.83466    149837.83   -47623.748    3966.4848   -51590.233   0.15484289 
   72000    287.60083   -1016.8616    149869.35   -47596.004    3949.5049   -51545.509   0.16058719 
   72100    289.31567   -984.50253    149890.73   -47457.017     3973.054   -51430.071   0.15533664 
   72200    298.55943   -990.35315    149948.37   -47351.631    4099.9948   -51451.626   0.16372996 
   72300    300.69548   -1010.2024    149977.94   -47333.605    4129.3283   -51462.933    0.1621571 
   72400    292.22478   -1020.7514    149939.96   -47452.426    4013.0037    -51465.43   0.16402776 
   72500    290.22193   -1001.0368    149949.73   -47452.238    3985.4994   -51437.738   0.16421467 
   72600    293.29285   -981.08704    149985.87   -47390.967     4027.671   -51418.638    0.1605463 
   72700    290.53053   -999.24047    149951.66   -47551.259    3989.7372   -51540.996   0.15762735 
   72800    293.41739   -996.58056    149946.64    -47473.39    4029.3812   -51502.771   0.15972759 
   72900    291.95742   -1051.8767    149939.19   -47484.748    4009.3321    -51494.08   0.15923165 
   73000    292.82372   -1012.5939    149925.11   -47499.524    4021.2287   -51520.753    0.1634981 
   73100    294.20094   -987.21368    149935.45   -47452.757    4040.1414   -51492.898   0.15470544 
   73200    293.52646   -990.74901    149956.21   -47443.615     4030.879   -51474.494   0.15840364 
   73300    295.69021   -970.39826    149974.85   -47413.128     4060.593   -51473.721   0.15863705 
   73400    293.74935   -987.02383    149991.63   -47399.861      4033.94   -51433.801    0.1589761 
   73500    295.53547   -960.68554     149979.1   -47399.869     4058.468   -51458.337   0.16288658 
   73600    289.42218   -1032.6635    149964.32   -47447.707    3974.5167   -51422.224   0.16224472 
   73700    287.61768   -1009.0435    149945.61   -47507.112    3949.7362   -51456.848   0.16034599 
   73800    289.92609   -978.45384    149925.93   -47598.472    3981.4367   -51579.908   0.15015994 
   73900    283.88066     -1012.31    149923.17   -47574.903    3898.4172    -51473.32    0.1608584 
   74000    290.10536   -961.76639    149923.98   -47498.321    3983.8985   -51482.219   0.16116286 
   74100    295.22443   -983.67227    149974.19   -47335.342    4054.1965   -51389.539   0.16054334 
   74200    296.04849   -1002.3583     149959.6     -47498.3    4065.5131   -51563.814   0.15524234 
   74300    295.10515   -959.82511     149940.8   -47494.822    4052.5586   -51547.381   0.15625267 
   74400    291.87208   -1020.9039    149906.28   -47528.974    4008.1602   -51537.134   0.16057262 
   74500    289.97392    -1003.421    149917.01   -47550.318    3982.0936   -51532.411   0.16252252 
   74600    290.69776   -1021.5822    149896.64   -47549.717    3992.0337   -51541.751   0.15794647 
   74700    293.88706   -1008.5851    149912.39   -47464.345    4035.8311   -51500.177   0.16080603 
   74800    294.68645   -974.27387    149907.49    -47520.56    4046.8088   -51567.369   0.15271712 
   74900    289.75447   -997.54395    149905.62   -47523.697    3979.0798   -51502.777   0.15809694 
   75000    288.71754   -979.16212    149882.67   -47501.218    3964.8402   -51466.058   0.16314424 
   75100    293.71311   -995.07645    149890.25   -47434.928    4033.4423    -51468.37   0.16381639 
   75200    296.65552   -985.72784    149941.79   -47487.674    4073.8492   -51561.523   0.15571121 
   75300    292.14996   -989.56177    149905.42   -47528.749    4011.9761   -51540.725   0.15710329 
   75400    292.12422   -1017.0826    149865.49   -47540.511    4011.6227   -51552.134   0.16275849 
   75500    291.27986   -989.53126    149895.08   -47540.539    4000.0275   -51540.567   0.15934174 
   75600    291.66128   -998.79316    149885.55   -47468.532    4005.2653   -51473.797   0.16839075 
   75700    294.57775   -995.81417    149921.97   -47424.149     4045.316   -51469.465   0.15526765 
   75800    292.61439   -1011.1858    149913.41   -47443.307     4018.354   -51461.661   0.16620561 
   75900    295.74953   -987.13223    149912.73   -47465.221    4061.4076   -51526.628   0.16116026 
   76000    291.55633    -982.6685     149910.7   -47469.732    4003.8241   -51473.557   0.16112569 
   76100    292.07621   -1004.6073    149890.85   -47560.647    4010.9634    -51571.61   0.16401012 
   76200    287.67769   -1015.4507    149881.05   -47608.182    3950.5604   -51558.742   0.15675007 
   76300    291.05461    -1030.525    149913.43   -47544.917    3996.9342   -51541.851   0.15798556 
   76400    292.57032   -1016.7082    149907.25   -47542.618    4017.7489   -51560.367   0.15998971 
   76500    286.70334   -1018.6384     149914.6   -47532.244      3937.18   -51469.424   0.15930159 
[...]
   81900    288.70407   -964.62113    149882.34   -47570.686    3964.6552   -51535.341   0.15987603 
   82000    289.92068   -998.41816    149895.39   -47476.524    3981.3623   -51457.886   0.16149555 
   82100    298.01619   -989.99624    149918.42   -47429.561    4092.5347   -51522.095   0.16065829 
   82200    290.80072   -976.67934     149920.1   -47441.239    3993.4476   -51434.686   0.16495723 
   82300     283.6052   -1026.7881    149910.42   -47519.495    3894.6344    -51414.13   0.16066836 
   82400    289.96752   -1012.8364    149931.93   -47396.542    3982.0057   -51378.547   0.16351543 
   82500    299.44422   -991.16577    149935.69   -47293.705    4112.1452   -51405.851   0.17095351 
   82600    296.71845   -1038.7991    149926.54   -47397.169    4074.7134   -51471.882   0.16155932 
   82700    290.05286   -1008.4102    149931.44   -47471.888    3983.1775   -51455.065   0.16678726 
   82800    294.72851   -995.91378    149944.45   -47481.865    4047.3864   -51529.251   0.15551016 
   82900    292.33279   -989.58862    149954.51   -47436.557    4014.4869   -51451.044   0.16475417 
   83000    297.65847   -974.43432    149966.41   -47374.097    4087.6223   -51461.719   0.16102359 
   83100    294.13335   -1007.9864    149954.37   -47414.568    4039.2132   -51453.781   0.16040991 
   83200    291.58013   -1008.8968     149937.3   -47446.975     4004.151   -51451.126   0.16854196 
   83300    294.95813   -996.37557    149954.86   -47443.731    4050.5396   -51494.271   0.16001238 
   83400    292.05344   -1026.5725    149946.65   -47514.571    4010.6508   -51525.222    0.1628622 
   83500    287.64308   -1024.0127    149912.14   -47627.234    3950.0851    -51577.32   0.15770856 
   83600    290.52098   -1020.6689    149905.77   -47570.791    3989.6061   -51560.397   0.15921499 
   83700    290.66712   -1012.9452    149906.21   -47604.304    3991.6129   -51595.917   0.15553243 
   83800    290.71593   -1009.1416     149888.1   -47565.197    3992.2832    -51557.48   0.15476475 
   83900    290.97637   -990.53111    149890.63   -47563.366    3995.8598   -51559.225   0.16236536 
   84000    287.06605    -1020.109    149876.82   -47580.384    3942.1609   -51522.545    0.1614982 
   84100    289.84242   -977.38388    149895.91   -47510.507    3980.2877   -51490.795   0.16405005 
   84200    295.54109   -965.47943    149906.61   -47461.988    4058.5452   -51520.533   0.15982428 
   84300    293.46106   -1001.4077    149907.55     -47520.8    4029.9809   -51550.781   0.15849299 
   84400    292.41861   -1005.8721    149905.13   -47515.116    4015.6654   -51530.782    0.1643097 
   84500    296.11638   -1032.2184     149907.9   -47570.038    4066.4454   -51636.483   0.15393973 
   84600     292.1271   -1013.0562    149884.33   -47481.039    4011.6622   -51492.701   0.16596404 
   84700    292.13783   -1013.0028    149917.07    -47485.88    4011.8095   -51497.689   0.16390438 
   84800    293.01175   -1015.3101    149918.38   -47483.907    4023.8108   -51507.717   0.16381179 
   84900    292.85119   -995.76368    149921.64    -47402.43    4021.6059   -51424.036    0.1633817 
   85000    293.63461   -975.08872    149915.04   -47476.927    4032.3642   -51509.292   0.16084072 
   85100    291.21664   -1032.9412    149907.25   -47506.063    3999.1593   -51505.223   0.16253821 
   85200    289.73617   -996.91919    149895.95   -47537.348    3978.8286   -51516.177   0.15852563 
   85300    284.24348   -1034.3788    149900.73   -47551.599    3903.3996   -51454.999   0.16069401 
   85400    283.02846   -969.46367     149904.7   -47580.775    3886.7143   -51467.489   0.15859321 
   85500    289.74002   -974.20957    149892.91   -47522.098    3978.8814    -51500.98   0.15918864 
   85600    289.69006   -992.72008     149904.2   -47560.665    3978.1954   -51538.861   0.15664663 
   85700    292.87024   -1001.2782    149903.42   -47499.252    4021.8676    -51521.12   0.15986559 
   85800    289.94798   -1000.7065    149908.71   -47492.054    3981.7373   -51473.791   0.16199709 
   85900    294.41524   -1024.6374    149930.47   -47461.177    4043.0844   -51504.262   0.15683415 
   86000    295.93375   -971.19781    149927.65   -47511.822    4063.9374    -51575.76   0.15443922 
   86100    291.92735   -996.43811    149925.49   -47482.711    4008.9191    -51491.63   0.16106333 
   86200    291.10401   -1043.4065    149943.69    -47454.23    3997.6126   -51451.843   0.16303592 
   86300    295.17627   -991.60832    149924.68   -47491.719    4053.5353   -51545.255   0.15673546 
   86400     290.2163   -1025.6843    149930.68   -47560.017     3985.422   -51545.439   0.15828301 
   86500    289.74978   -985.61383    149917.17   -47590.752    3979.0154   -51569.767   0.15579266 
   86600    295.08028   -981.58867     149934.2   -47430.686     4052.217   -51482.903   0.16331019 
   86700    292.07664   -999.67738    149927.49   -47429.474    4010.9693   -51440.443   0.15703897 
   86800    288.86159   -975.25036    149901.89   -47548.798    3966.8184   -51515.616   0.15889628 
   86900    291.20147   -989.02707    149892.63   -47533.249     3998.951     -51532.2   0.16044017 
   87000    288.60841   -974.76428    149906.69   -47503.785    3963.3415   -51467.126   0.15846926 
   87100    288.90362   -1027.6048    149915.59   -47486.459    3967.3955   -51453.854    0.1662483 
   87200    296.25437   -957.90452    149924.69   -47417.369    4068.3404   -51485.709   0.15376139 
   87300     294.0549   -1002.3853    149921.93   -47432.129    4038.1359   -51470.265      0.16867 
   87400    289.88406   -1030.7209    149894.68   -47485.723    3980.8596   -51466.582   0.15835862 
   87500    292.61301   -985.60664    149890.09   -47452.717    4018.3351   -51471.052   0.16827204 
   87600    295.25513    -1004.311    149904.98   -47475.256    4054.6182   -51529.875   0.16168505 
   87700    291.80872   -1020.9876    149934.84   -47454.013      4007.29   -51461.303   0.16207345 
   87800    293.92015   -979.16848    149921.68   -47540.752    4036.2855   -51577.037   0.15983581 
   87900    293.94005   -1011.1597    149886.77   -47562.781    4036.5588   -51599.339   0.15423681 
   88000    293.33785   -998.41529    149901.54   -47530.538     4028.289   -51558.827   0.16265443 
   88100    293.60515   -997.00501    149915.62   -47498.198    4031.9597   -51530.158    0.1589541 
   88200    286.00097   -1033.8378    149899.47   -47599.474    3927.5346   -51527.009   0.16234999 
   88300    292.30778    -1013.611    149888.62   -47539.701    4014.1434   -51553.844    0.1592127 
   88400    291.80721   -995.70879    149904.93   -47470.767    4007.2693   -51478.036    0.1602653 
   88500    291.08684   -997.21026    149907.85   -47542.463    3997.3768    -51539.84   0.15641861 
   88600    288.29996   -1027.9623    149909.19   -47532.171    3959.1057   -51491.277   0.16071944 
   88700    292.59131   -1004.9583    149925.35   -47505.427    4018.0371   -51523.464   0.16300078 
   88800    292.03509   -1021.6923    149900.51   -47567.796    4010.3987   -51578.195   0.15907326 
   88900    295.81671   -965.48122    149891.42   -47509.145    4062.3301   -51571.476   0.15296295 
   89000    296.32701   -1016.3554    149891.46   -47467.657    4069.3379   -51536.995   0.16152344 
   89100    294.11299   -1019.4869     149896.6   -47521.351    4038.9337   -51560.284   0.16244206 
   89200    296.69345   -1007.3528    149883.84   -47470.144      4074.37   -51544.514   0.15097094 
   89300    286.57773   -1047.8748    149871.13   -47590.383     3935.455   -51525.838   0.16569373 
   89400    293.13071   -975.96008    149886.26   -47492.037    4025.4444   -51517.482   0.15501878 
   89500    288.07108   -1058.0693    149884.82   -47594.077    3955.9626   -51550.039   0.16270818 
   89600    291.06253   -989.25344    149866.05   -47618.214    3997.0429   -51615.257   0.15676907 
   89700    285.89724   -981.37894    149881.08   -47530.989    3926.1101   -51457.099   0.15758975 
   89800     290.5291   -986.51574    149908.75   -47469.699    3989.7176   -51459.417   0.16538499 
   89900    294.45912   -985.63336    149949.59   -47450.459    4043.6869   -51494.146   0.15638256 
   90000    292.41442   -1019.3298    149935.38   -47475.907    4015.6079   -51491.515     0.162274 
   90100    290.29845   -982.94324    149921.41   -47457.568    3986.5502   -51444.118   0.16235477 
   90200    286.00326   -1016.3699    149921.67   -47537.971    3927.5661   -51465.538   0.16307707 
   90300     290.0414   -964.71396    149903.46   -47503.773    3983.0202   -51486.793   0.15434647 
   90400    292.02091   -960.63385    149916.84   -47493.599    4010.2039   -51503.803   0.16492104 
   90500    291.42038   -1001.8091    149920.14   -47504.133    4001.9571    -51506.09   0.15654436 
   90600     290.4542   -1028.6303    149916.67   -47532.523     3988.689   -51521.212   0.15999251 
   90700    288.14461   -1008.2679    149918.71    -47559.91    3956.9723   -51516.883   0.16095755 
   90800    288.61691   -999.13393    149912.61    -47580.73    3963.4582   -51544.188   0.15666909 
   90900    290.67676    -996.6688    149912.46   -47555.891    3991.7453   -51547.636   0.15985422 
   91000     291.6913   -992.67071    149905.33    -47566.54    4005.6776   -51572.218   0.15257063 
   91100    284.07725    -1000.648    149892.79   -47679.157    3901.1169   -51580.274    0.1588573 
   91200    288.62479   -1030.0701    149893.98   -47624.128    3963.5664   -51587.694   0.15639191 
   91300    289.14991   -1011.1319    149898.56   -47553.253    3970.7778   -51524.031   0.16197226 
   91400    294.16203   -981.54349    149935.71   -47531.302    4039.6072    -51570.91   0.15231973 
   91500    296.02951   -984.98218    149958.45   -47361.103    4065.2525   -51426.355   0.16388778 
   91600    295.86175    -969.2503    149951.51   -47433.525    4062.9487   -51496.474   0.15908844 
   91700    287.94298   -1011.9465    149927.62   -47505.174    3954.2035   -51459.378    0.1611993 
   91800    291.49116    -1001.498     149919.1   -47474.461    4002.9292   -51477.391   0.16263588 
   91900    295.68566   -992.85747    149925.87   -47469.419    4060.5304   -51529.949   0.16074925 
   92000    285.28913   -1013.2348    149936.58   -47508.891    3917.7592   -51426.651    0.1646747 
   92100    290.19756   -982.87217    149946.12   -47487.525    3985.1646    -51472.69   0.16168198 
   92200    290.89529   -962.46162    149950.15   -47529.358    3994.7464   -51524.104   0.16060087 
   92300    291.91144   -990.78634    149959.51   -47404.577    4008.7006   -51413.278   0.16231967 
   92400    291.84133   -1020.5494    149933.14   -47452.081    4007.7379   -51459.819   0.16844269 
   92500    298.83142   -990.60193    149949.74   -47448.211      4103.73   -51551.941   0.15644984 
   92600    293.82103   -1003.7752    149960.56    -47353.71    4034.9243   -51388.634   0.17114012 
   92700    288.52424   -1046.3271    149933.45    -47484.46    3962.1856   -51446.645   0.16464274 
   92800    291.05587   -1003.9208    149930.53   -47493.741    3996.9514   -51490.693    0.1554894 
   92900     289.2572   -980.20791    149929.07   -47530.482     3972.251   -51502.733   0.16903801 
   93000    290.55065   -1031.7087    149924.48   -47537.573    3990.0135   -51527.586   0.15487726 
   93100    293.01075   -957.24026    149946.04   -47454.177    4023.7971   -51477.974   0.16509585 
   93200    288.57751   -994.31297     149960.8   -47512.397    3962.9172   -51475.314   0.15913539 
   93300    288.48991   -991.27792    149921.69   -47561.546    3961.7142    -51523.26   0.15614446 
   93400    285.75917   -1011.0766    149928.39   -47621.834    3924.2141   -51546.048   0.16566393 
   93500    281.99801   -1040.0791    149907.11   -47627.232    3872.5635   -51499.795   0.15509288 
   93600    288.88758   -1008.9476    149906.82   -47573.518    3967.1753   -51540.694   0.16472473 
   93700    289.22074   -976.46466     149922.1   -47547.367    3971.7504   -51519.117   0.15909766 
   93800    281.30981   -1021.3194     149900.4   -47543.275    3863.1128   -51406.387   0.16013928 
   93900    285.60039   -956.72547    149910.76   -47620.405    3922.0336   -51542.439   0.15589513 
   94000    290.98514   -953.61637    149886.38   -47587.406    3995.9802   -51583.387   0.15686273 
   94100     296.7544   -985.16383    149911.57   -47471.832     4075.207   -51547.039   0.15867134 
   94200    290.03455   -979.36033    149924.43   -47461.771    3982.9262   -51444.697   0.16370359 
   94300    292.27516   -984.69229    149940.21   -47480.589    4013.6955   -51494.285   0.15642177 
   94400     291.6817    -1012.537    149925.47   -47470.907    4005.5458   -51476.453   0.16708336 
   94500    291.24531   -1021.0202    149930.72   -47472.402     3999.553   -51471.955   0.16302413 
   94600    297.50647   -982.81356    149920.64   -47478.493    4085.5349   -51564.028   0.15937657 
   94700    289.41489    -1000.146    149914.74   -47518.272    3974.4166   -51492.688   0.16705693 
   94800    284.80177   -1031.1881    149930.91   -47566.334    3911.0664   -51477.401   0.16064439 
   94900    287.63437   -983.27363     149904.8   -47585.443    3949.9654   -51535.408   0.16254601 
   95000    290.52439   -998.78779    149899.24   -47543.753    3989.6529   -51533.405   0.15914721 
   95100    290.72313    -1001.718    149902.62   -47501.268    3992.3821    -51493.65   0.16586046 
   95200    285.82894   -1010.0504    149928.97   -47533.461    3925.1722   -51458.633   0.16050489 
   95300    296.07769   -987.43479    149932.54   -47489.419    4065.9141   -51555.333   0.15991534 
   95400    294.17369   -990.73449    149928.39   -47457.765    4039.7673   -51497.532   0.16062718 
   95500    294.59983   -1007.7955    149936.99    -47479.75    4045.6192   -51525.369   0.15816221 
   95600    288.24117   -1011.7683    149930.51   -47469.902    3958.2983     -51428.2   0.17059542 
   95700    290.61737   -992.37598    149943.18   -47508.197    3990.9298   -51499.127   0.15982332 
   95800    297.50336   -986.42184    149937.57   -47445.012    4085.4922   -51530.504     0.160975 
   95900    291.88225   -1000.3751     149946.5    -47465.45    4008.2998    -51473.75   0.16650044 
   96000    295.32512   -998.17709    149944.31   -47429.103    4055.5794   -51484.682   0.15711443 
   96100    298.73559   -1000.5842    149953.46   -47382.907    4102.4139   -51485.321   0.16582532 
   96200    297.61258   -1013.5805    149949.28   -47410.008    4086.9921       -51497   0.16436932 
   96300    295.41656    -1011.192    149958.11   -47427.556     4056.835   -51484.391   0.16131493 
   96400    290.59535   -985.79909    149942.11   -47474.381    3990.6274   -51465.009   0.16047501 
   96500    295.44213   -989.97295    149928.61    -47470.87    4057.1861   -51528.056   0.16270599 
   96600    291.76463   -1058.0499    149949.39   -47523.395    4006.6846   -51530.079   0.16116087 
   96700    292.82373   -1001.3673    149910.77   -47492.058    4021.2288   -51513.287   0.16839124 
   96800    288.23817   -1004.0301    149915.85   -47513.714    3958.2572   -51471.971   0.15881878 
   96900     292.9082   -982.11982    149901.28   -47518.583    4022.3888   -51540.972   0.15573977 
   97000    286.37844   -989.90744    149893.91   -47592.716    3932.7182   -51525.435   0.16784093 
   97100    291.03862   -1010.7358     149926.9   -47563.316    3996.7145   -51560.031   0.15343176 
   97200     294.4646   -981.06296    149901.38   -47505.493    4043.7621   -51549.256   0.16750825 
   97300    290.98182     -1012.27    149932.36   -47395.154    3995.9345   -51391.089   0.16871544 
   97400    291.32315   -1023.5927     149908.1   -47488.728     4000.622    -51489.35   0.15934778 
   97500    293.09811   -982.72486    149916.32   -47457.753    4024.9968   -51482.749   0.16409614 
   97600    291.60691   -962.22998    149923.92   -47389.482    4004.5187   -51394.001   0.16415677 
   97700     298.4011   -1002.0724    149961.31   -47359.929    4097.8205   -51457.749   0.16620933 
   97800    296.34327   -1004.5085    149936.12   -47469.007    4069.5611   -51538.568   0.16815026 
   97900    296.36517   -1009.4438    149959.72   -47428.375     4069.862   -51498.237   0.15806724 
   98000    289.45624   -1017.6524    149917.48   -47517.399    3974.9843   -51492.384   0.16894014 
   98100    288.09434   -1001.5241    149903.94   -47496.182     3956.282   -51452.464   0.16688319 
   98200    293.92864    -1011.985    149944.09   -47498.997     4036.402   -51535.399   0.15847969 
   98300    295.15721   -982.56218    149920.85   -47429.255    4053.2736   -51482.528    0.1697912 
   98400    291.80957   -999.86177    149931.67   -47473.894    4007.3017   -51481.196   0.15676275 
   98500    290.38957   -980.92879    149925.84   -47449.732    3987.8014   -51437.533   0.16609997 
   98600    291.29195   -954.56473    149943.32    -47454.49    4000.1935   -51454.683   0.16017436 
   98700    295.64444   -998.28838    149966.24   -47426.106    4059.9644   -51486.071   0.16765202 
   98800    290.95101   -1019.5049    149957.21    -47438.53    3995.5114   -51434.041   0.16797648 
   98900    293.05686   -990.03121    149945.07   -47501.778    4024.4303   -51526.209   0.15675872 
   99000    288.83977   -1018.7136    149920.94   -47489.507    3966.5187   -51456.026   0.17213571 
   99100    287.11537   -973.03741     149939.1   -47556.723    3942.8382   -51499.561   0.15458607 
   99200    287.93376   -1015.0829     149903.5   -47562.699    3954.0768   -51516.776   0.17014828 
   99300    296.34738    -937.9995    149919.01   -47481.493    4069.6177    -51551.11   0.15688509 
   99400    289.74814   -971.28205    149915.15   -47525.728    3978.9929   -51504.721   0.15913139 
   99500    288.72881   -1008.1535    149912.82   -47474.001    3964.9949   -51438.995   0.17728959 
   99600    289.45912   -999.51755    149932.13   -47470.587    3975.0239   -51445.611   0.15757202 
   99700    288.84372   -1033.5178    149914.36   -47519.817    3966.5729   -51486.389   0.17508645 
   99800    293.13235    -1030.245    149912.24   -47532.663    4025.4669    -51558.13   0.15954897 
   99900    288.83147   -1010.7001    149919.79   -47593.528    3966.4047   -51559.933   0.15880476 
  100000    288.93536   -1015.0144    149902.18   -47503.706    3967.8314   -51471.537   0.17168743 
Loop time of 51.0791 on 6 procs for 100000 steps with 4608 atoms

Performance: 845.748 ns/day, 0.028 hours/ns, 1957.749 timesteps/s
97.8% CPU use with 6 MPI tasks x no OpenMP threads

MPI task timing breakdown:
Section |  min time  |  avg time  |  max time  |%varavg| %total
---------------------------------------------------------------
Pair    | 37.512     | 37.882     | 38.475     |   4.9 | 74.16
Neigh   | 5.2619     | 5.3901     | 5.6013     |   6.1 | 10.55
Comm    | 4.5247     | 5.0981     | 5.4099     |  14.4 |  9.98
Output  | 0.2086     | 0.2096     | 0.21426    |   0.5 |  0.41
Modify  | 1.8557     | 1.8916     | 1.9148     |   1.7 |  3.70
Other   |            | 0.6076     |            |       |  1.19

Nlocal:        768.000 ave         786 max         751 min
Histogram: 1 0 1 0 2 0 0 1 0 1
Nghost:        1394.33 ave        1413 max        1377 min
Histogram: 2 0 0 1 0 0 1 0 1 1
Neighs:        0.00000 ave           0 max           0 min
Histogram: 6 0 0 0 0 0 0 0 0 0
FullNghs:      21841.7 ave       22333 max       21356 min
Histogram: 1 0 0 2 0 1 0 1 0 1

Total # of neighbors = 131050
Ave neighs/atom = 28.439670
Neighbor list builds = 6325
Dangerous builds = 0

undump              1
unfix               2
unfix               3
unfix               4




################################################
#######         Run Simulation         #########
################################################

reset_timestep      0
log                 log.run_${NAME}
log                 log.run_ice_292K_-1000atm_ML
