
# Create simulation box of size 50 x 50 x 50 Angstrom
#
lattice	            sc 1
Lattice spacing in x,y,z = 1.0000000 1.0000000 1.0000000
region 	            all block 0 ${X} ${YZ_LO} ${YZ_HI} ${YZ_LO} ${YZ_HI} units box
region 	            all block 0 53.4 ${YZ_LO} ${YZ_HI} ${YZ_LO} ${YZ_HI} units box
region 	            all block 0 53.4 -0.07801601889837073.0 ${YZ_HI} ${YZ_LO} ${YZ_HI} units box
region 	            all block 0 53.4 -0.07801601889837073.0 50.98513601889793.0 ${YZ_LO} ${YZ_HI} units box
region 	            all block 0 53.4 -0.07801601889837073.0 50.98513601889793.0 -0.07801601889837073.0 ${YZ_HI} units box
region 	            all block 0 53.4 -0.07801601889837073.0 50.98513601889793.0 -0.07801601889837073.0 50.98513601889793.0 units box
create_box          1 all
Created orthogonal box = (0.0000000 -0.078016019 -0.078016019) to (53.400000 50.985136 50.985136)
  3 by 1 by 2 MPI processor grid

# fill box with 4175 randomly distributed atoms
#
create_atoms        1 random 4608 63782 all
Created 4608 atoms
  create_atoms CPU = 0.000 seconds
mass                1 18.015

# Define potential
#
pair_style          sw
pair_coeff          * * /data/emrosky-sim/Freezing_Simulations/Melting/MLmW_fancy/ML_mW.sw mW
Reading sw potential file /data/emrosky-sim/Freezing_Simulations/Melting/MLmW_fancy/ML_mW.sw with DATE: 2019-02-27

# Run minimization
#
minimize            1.0e-8 1.0e-8 10000 1000
WARNING: Using 'neigh_modify every 1 delay 0 check yes' setting during minimization (../min.cpp:187)
Neighbor list info ...
  update every 1 steps, delay 0 steps, check yes
  max neighbors/atom: 2000, page size: 100000
  master list distance cutoff = 6.0032907
  ghost atom cutoff = 6.0032907
  binsize = 3.0016454, bins = 18 18 18
  1 neighbor lists, perpetual/occasional/extra = 1 0 0
  (1) pair sw, perpetual
      attributes: full, newton on
      pair build: full/bin/atomonly
      stencil: full/bin/3d
      bin: standard
Per MPI rank memory allocation (min/avg/max) = 4.236 | 4.249 | 4.255 Mbytes
Step Temp E_pair E_mol TotEng Press 
       0            0    7206815.6            0    7206815.6    4919478.8 
     671            0   -49929.713            0   -49929.713   -363.73895 
Loop time of 1.28381 on 6 procs for 671 steps with 4608 atoms

99.0% CPU use with 6 MPI tasks x no OpenMP threads

Minimization stats:
  Stopping criterion = max force evaluations
  Energy initial, next-to-last, final = 
      7206815.61241868  -49929.3678978366  -49929.7133459908
  Force two-norm initial, final = 1.6551954e+08 5.4546342
  Force max component initial, final = 88105409.0 0.99608706
  Final line search alpha, max atom move = 0.041584174 0.041421458
  Iterations, force evaluations = 671 1001

MPI task timing breakdown:
Section |  min time  |  avg time  |  max time  |%varavg| %total
---------------------------------------------------------------
Pair    | 0.96896    | 1.0581     | 1.1362     |   5.9 | 82.42
Neigh   | 0.02736    | 0.028641   | 0.030432   |   0.6 |  2.23
Comm    | 0.096549   | 0.17465    | 0.26393    |  14.7 | 13.60
Output  | 0          | 0          | 0          |   0.0 |  0.00
Modify  | 0          | 0          | 0          |   0.0 |  0.00
Other   |            | 0.02242    |            |       |  1.75

Nlocal:        768.000 ave         789 max         754 min
Histogram: 2 0 1 1 0 0 0 1 0 1
Nghost:        1569.33 ave        1584 max        1553 min
Histogram: 1 0 2 0 0 0 0 1 1 1
Neighs:        0.00000 ave           0 max           0 min
Histogram: 6 0 0 0 0 0 0 0 0 0
FullNghs:      21772.7 ave       22943 max       20970 min
Histogram: 1 1 1 1 0 0 1 0 0 1

Total # of neighbors = 130636
Ave neighs/atom = 28.349826
Neighbor list builds = 28
Dangerous builds = 0

# Add velocity/set timestep
#
velocity            all create ${TEMP} 120598 rot yes dist gaussian
velocity            all create 292 120598 rot yes dist gaussian
timestep            5.0

# Define output
#
compute	            1 all msd
thermo	            100
thermo_style        custom step temp press vol etotal ke pe c_1[4] density

# Neighbor lists
#
neigh_modify        delay 0 every 1 check yes

# Set fixes
#
fix                 1 all momentum 10 linear 1 1 1 rescale
fix                 2 all nve
fix                 3 all temp/csvr ${TEMP} ${TEMP} 500.0 928347
fix                 3 all temp/csvr 292 ${TEMP} 500.0 928347
fix                 3 all temp/csvr 292 292 500.0 928347
fix                 4 all press/berendsen iso ${PRES} ${PRES} 1000.0 modulus 20000
fix                 4 all press/berendsen iso -1000 ${PRES} 1000.0 modulus 20000
fix                 4 all press/berendsen iso -1000 -1000 1000.0 modulus 20000

# Run 0.5 ns equilibration
#
dump                1 all custom 1000 eq.${NAME}.dump id type x y z vx vy vz
dump                1 all custom 1000 eq.liq_292K_-1000atm_ML.dump id type x y z vx vy vz
run                 100000
Per MPI rank memory allocation (min/avg/max) = 3.486 | 3.501 | 3.505 Mbytes
Step Temp Press Volume TotEng KinEng PotEng c_1[4] Density 
     671          292    952.73334    139237.59   -45919.797    4009.9168   -49929.713            0   0.99000936 
     700    152.04193   -879.33446    140473.57   -45370.027    2087.9298   -47457.957   0.18087691   0.98129861 
     800    211.22274   -779.07408    141204.24   -43941.892    2900.6357   -46842.528    0.7114435   0.97622077 
     900    236.87669   -755.76512    141851.99   -43080.057    3252.9309   -46332.988    1.3217908     0.971763 
    1000    256.17008   -922.01188    142475.02    -42468.37    3517.8792   -45986.249    1.9424278   0.96751361 
    1100    271.40037   -861.63832     142907.4   -42022.822    3727.0306   -45749.853    2.5069479   0.96458628 
    1200    280.46072   -776.47846     143138.7   -41712.541    3851.4525   -45563.993    3.3109332    0.9630276 
    1300    280.18092   -1137.0649    143349.44    -41441.08    3847.6102   -45288.691    4.1489855    0.9616118 
    1400    285.85714   -1047.6423    143328.36   -41355.406    3925.5595   -45280.965    5.0098366   0.96175326 
    1500    290.26506   -1065.8764    143578.35   -41226.941    3986.0916   -45213.032     5.827197   0.96007873 
    1600    289.20864   -1050.3689    143427.55   -41190.501    3971.5842   -45162.085    6.6700547   0.96108813 
    1700     284.9499   -1231.5957    143030.38   -41217.969    3913.1007   -45131.069    7.4805072   0.96375694 
    1800    288.32388   -753.06717    142890.79   -41173.772    3959.4342   -45133.206    8.4189158   0.96469838 
    1900    295.88909   -973.68494    142831.01   -41120.724    4063.3241   -45184.048    9.4687995   0.96510215 
    2000    295.96982   -1098.9497    142786.46   -41067.496    4064.4328   -45131.929    10.588853    0.9654033 
    2100    291.38921   -979.79265     142815.3   -41115.226    4001.5291   -45116.755    11.696447   0.96520834 
    2200    289.78842   -1097.8801    142582.47   -41108.469    3979.5461   -45088.015    12.606046   0.96678444 
    2300    289.80378   -899.66018    142904.73   -41027.662     3979.757   -45007.419    13.542505   0.96460427 
    2400    293.19291   -900.89068    143149.86   -41004.004    4026.2985   -45030.302    14.471337   0.96295254 
    2500    291.74935   -1286.5827    142985.25   -41004.741    4006.4748   -45011.216    15.286382   0.96406111 
    2600    292.32922   -993.18956    142792.73   -40847.166    4014.4379   -44861.603    16.323278   0.96536086 
    2700    290.37516   -786.40152    142858.44   -40849.379    3987.6035   -44836.982    17.616854   0.96491686 
    2800    295.65251   -889.82598    143018.58   -40934.924    4060.0753   -44994.999     18.73775   0.96383642 
    2900    294.19559   -1039.6823    142832.45   -40917.567     4040.068   -44957.635    19.983579   0.96509242 
    3000    292.92708   -962.23611    142980.18   -40892.299    4022.6481   -44914.947    20.970601   0.96409531 
    3100    289.44017   -880.02461    142988.99   -40897.745    3974.7637   -44872.509    22.164124   0.96403586 
    3200    296.30121   -1040.1244    142881.11   -40871.617    4068.9836     -44940.6    23.235563   0.96476374 
    3300     292.7075   -1013.7571    142530.81   -40933.094    4019.6327   -44952.727    24.395127   0.96713485 
    3400    298.32574   -936.59033    142388.61   -40933.405    4096.7856    -45030.19     25.67294   0.96810075 
    3500    295.01692   -967.37173    142253.71   -40877.096    4051.3469   -44928.443    26.870556    0.9690188 
    3600    292.12909   -989.90965    142518.94   -40898.401    4011.6896   -44910.091    28.090643   0.96721545 
    3700    298.55001   -824.11676    142743.22   -40864.904    4099.8654    -44964.77    29.429183   0.96569573 
    3800    295.11224   -994.98332    142407.09   -40899.557     4052.656   -44952.213    30.483528   0.96797511 
    3900    285.34614   -926.29905     142443.4   -41029.542    3918.5421   -44948.084     31.81629   0.96772838 
    4000    291.44871   -966.65445    142382.38   -41061.487    4002.3462   -45063.833    32.909755   0.96814312 
    4100    294.47694   -765.18731       142310   -40983.751    4043.9316   -45027.683    33.919944   0.96863549 
    4200    289.38948   -761.32038    142543.89   -40998.074    3974.0676   -44972.141    34.892795   0.96704614 
    4300     293.8593   -1097.2021    142862.01   -40927.923    4035.4498   -44963.373    36.301376   0.96489271 
    4400    292.57117   -828.01108    142713.85   -40957.728    4017.7605   -44975.489    37.450231   0.96589448 
    4500     290.6136   -929.65931    142411.29   -40943.982    3990.8779    -44934.86    38.200299   0.96794656 
    4600    292.39397   -978.65123    142790.34   -40965.776    4015.3271   -44981.103     38.94209   0.96537707 
    4700    286.34809   -968.71652    142826.69   -40993.621    3932.3015   -44925.922    39.685422   0.96513134 
    4800    295.21998   -1111.2342    142993.93   -40989.847    4054.1354   -45043.982    40.828473   0.96400258 
    4900    292.55766   -1008.5472     142797.5   -40993.354    4017.5749   -45010.929    41.690101   0.96532865 
    5000    288.85076   -1182.5711    142827.54   -41071.479    3966.6696   -45038.148    42.713977   0.96512558 
    5100     291.5812     -1049.53    142819.47   -41057.004    4004.1657   -45061.169    43.710284   0.96518012 
    5200    287.14783   -1008.1272    142934.23   -41097.605    3943.2839   -45040.889      44.6344   0.96440522 
    5300    290.61232   -906.95344    143009.33   -41055.915    3990.8603   -45046.776    45.450378   0.96389875 
    5400    293.81538   -815.30484    143144.27   -40953.852    4034.8468   -44988.699    46.649581   0.96299008 
    5500    296.49334   -1094.7098     143210.6   -40907.679    4071.6221   -44979.301    47.749457   0.96254412 
    5600    295.57699    -793.4138    143243.94   -40833.856    4059.0382   -44892.895    48.513789   0.96232009 
    5700    291.49799   -1047.8472    142902.65   -40894.879     4003.023   -44897.902    49.418388   0.96461836 
    5800    296.08932   -1025.7092    142620.18   -40844.733    4066.0737   -44910.807    50.304236   0.96652882 
    5900    289.94884   -990.97889    142724.64   -41020.363    3981.7491   -45002.112     51.27113   0.96582142 
    6000    288.71449   -925.20933    142733.93   -41030.139    3964.7983   -44994.937    52.513674   0.96575858 
    6100    288.08382   -1014.3984    142601.58   -40959.641    3956.1375   -44915.778    53.548588   0.96665488 
    6200    294.58789   -1118.3857    142456.12    -41020.38    4045.4553   -45065.835    54.620679   0.96764191 
    6300    293.38301   -1004.7993    142324.25   -41004.085    4028.9091   -45032.995     55.71808   0.96853848 
    6400    290.68782   -1258.9914    142291.32   -41051.715    3991.8972   -45043.612    56.945994   0.96876262 
    6500    288.73836    -1027.167    142288.19   -41042.631    3965.1261   -45007.757    57.831734   0.96878396 
    6600    289.76039   -1069.9383     142763.2   -41076.742    3979.1612   -45055.903    58.642049   0.96556058 
    6700    287.28122   -856.13234    142843.36   -41079.211    3945.1157   -45024.326    59.966515   0.96501872 
    6800    290.35455   -961.16756    142671.63   -41188.882    3987.3206   -45176.203    61.113528   0.96618026 
    6900    291.58398   -821.04224    142608.47   -41109.182    4004.2038   -45113.386    62.170938   0.96660818 
    7000    292.75629   -839.85881    142706.17    -40992.64    4020.3027   -45012.943    63.069237   0.96594641 
    7100    297.15082   -1052.9854    142890.34   -41089.345    4080.6509   -45169.996    64.207161   0.96470146 
    7200    289.62779    -1030.293    142786.27   -41139.365    3977.3402   -45116.705    65.153837   0.96540457 
    7300    290.94858   -1093.9295    142648.76   -41094.814    3995.4782   -45090.292    66.409211   0.96633518 
    7400    289.69647   -867.34237    143076.06   -41125.827    3978.2834    -45104.11    67.980346   0.96344924 
    7500    294.96536   -800.82211    142684.39   -41040.249    4050.6389   -45090.888      68.9458   0.96609386 
    7600    292.08606   -1055.1761    142936.96   -41036.632    4011.0987   -45047.731    69.759632   0.96438682 
    7700    293.10613   -969.60794    142926.21   -41016.793    4025.1069     -45041.9    70.975884   0.96445934 
    7800    291.40593   -971.96391     142782.8   -41033.218    4001.7587   -45034.977    72.038129   0.96542806 
    7900    291.01776   -851.41458    142849.87   -41193.367    3996.4281   -45189.795    73.099895   0.96497474 
    8000    292.23301   -1085.1862     142716.6   -41184.089    4013.1167   -45197.205    74.158125   0.96587585 
    8100    287.73387   -620.18889    142586.46   -41050.222    3951.3318   -45001.553    75.254594   0.96675741 
    8200    288.73846   -1064.3728    142584.97   -41041.567    3965.1275   -45006.695    76.597938   0.96676752 
    8300    295.59694   -945.34845    142353.97   -41002.645    4059.3121   -45061.957    77.475532   0.96833632 
    8400    288.59631   -744.48449    142623.29   -41059.126    3963.1753   -45022.302    78.703409   0.96650774 
    8500    289.99093   -942.41536    142818.85   -41091.881    3982.3271   -45074.208    80.024235   0.96518431 
    8600    289.43071   -1069.3602    142970.22    -41012.28    3974.6338   -44986.914    81.229198   0.96416243 
    8700    290.72131   -938.46974    142728.25   -40973.004    3992.3571   -44965.361    82.533689   0.96579703 
    8800    291.84907   -1138.2703    142633.61   -40947.905    4007.8441   -44955.749    83.360518   0.96643781 
    8900    289.53419   -844.90462    142470.26   -40953.294    3976.0549   -44929.349    84.263731   0.96754589 
    9000    299.69085   -786.43266    142514.05   -40819.413    4115.5321   -44934.945    85.491573   0.96724862 
    9100    293.72252   -1214.2426    142639.73    -40881.88    4033.5715   -44915.451    86.930173   0.96639634 
    9200    289.56868   -972.67493    142749.56   -40934.527    3976.5285   -44911.055    87.907851    0.9656528 
    9300    291.88683   -1174.4851    142483.79   -40957.668    4008.3628    -44966.03    89.157199   0.96745403 
    9400    291.81823   -916.28388    142340.97   -40933.733    4007.4207   -44941.154    89.925863   0.96842473 
    9500    290.59086   -714.06405    142354.44   -40996.719    3990.5657   -44987.285    90.956526   0.96833312 
    9600    294.36443   -1005.7261    142363.14   -41025.891    4042.3866   -45068.278    91.720178   0.96827393 
    9700    293.68949   -1130.2402       142496   -40941.468    4033.1179   -44974.586    93.062929   0.96737112 
    9800    294.08352   -1114.7948    142590.69   -40962.538     4038.529   -45001.067    94.052038   0.96672875 
    9900    291.52172   -1249.2826    142631.16   -40921.079    4003.3488   -44924.428    95.095228   0.96645441 
   10000    288.16907   -984.12719    142636.83   -41083.426    3957.3082   -45040.734    95.768965   0.96641601 
   10100    296.97185   -1036.0804    142736.15   -41013.299    4078.1932   -45091.493    96.652603   0.96574356 
   10200     288.3792   -1026.9144     142791.2   -41094.312    3960.1938   -45054.505    97.954675   0.96537121 
   10300     291.6253   -983.79512    142391.64   -41018.087    4004.7712   -45022.859    99.033848   0.96808013 
   10400     294.0381   -1010.4581    142255.13   -40921.333    4037.9052   -44959.238    99.738663   0.96900914 
   10500    292.55987   -1092.9256    142505.79   -40923.075    4017.6052    -44940.68    100.83181   0.96730465 
   10600     292.2574    -1048.257    142591.42   -40936.286    4013.4516   -44949.737    102.06381   0.96672381 
   10700    295.33694   -672.53612    142560.33   -40953.079    4055.7417   -45008.821    103.57591   0.96693461 
   10800    291.42705   -1101.5894    143060.07   -40953.768    4002.0488   -44955.817    105.07898   0.96355692 
   10900    296.20004   -861.31335    143351.31   -40793.827    4067.5942   -44861.421    106.07827   0.96159928 
   11000    292.14578   -773.29714    143663.26   -40867.863    4011.9188   -44879.782    107.19685    0.9595113 
   11100    292.76398   -1056.6379    143612.98   -40931.217    4020.4082   -44951.626    108.49279   0.95984718 
   11200    292.21821   -1048.7093    143516.55   -40918.637    4012.9134    -44931.55    109.73376   0.96049211 
   11300    294.91437   -942.63598    143259.45   -40961.903    4049.9387   -45011.841    110.33678   0.96221591 
   11400    293.13628   -1029.6472    143030.74   -40978.811    4025.5209   -45004.332    111.53578   0.96375446 
   11500     293.9401    -718.2838    142860.38   -41144.988    4036.5595   -45181.547    112.23868   0.96490377 
   11600    288.53905   -885.11729    142681.76    -41206.09     3962.389   -45168.479    113.47232   0.96611169 
   11700    289.48638    -1241.844    142969.17    -41080.16    3975.3984   -45055.559     114.5726    0.9641695 
   11800    293.11509   -1120.5584    142902.24   -41047.027    4025.2299   -45072.257     115.6276   0.96462109 
   11900    289.10112   -907.03726    142394.33    -41125.18    3970.1077   -45095.287    116.51272   0.96806183 
   12000    292.12843    -1095.069    142684.47   -41098.934    4011.6806   -45110.614    117.75813   0.96609331 
   12100    293.76379   -999.61115    142801.79    -41063.43    4034.1382   -45097.568    118.80631   0.96529965 
   12200    291.51954    -1167.545    142938.83   -40936.081    4003.3189     -44939.4    120.05411   0.96437416 
   12300    299.26176   -883.62138    142716.75   -40902.741    4109.6396    -45012.38    120.78391   0.96587481 
   12400    292.60455   -1104.4801    142906.48    -40860.61    4018.2189   -44878.829    122.01001   0.96459249 
   12500    292.12753   -944.12292     142642.8   -40887.244    4011.6682   -44898.912     122.8781   0.96637557 
   12600    291.70351   -848.17878    142735.86   -40939.779    4005.8452   -44945.624    124.23157   0.96574555 
   12700    294.98723   -1073.7608    142701.99   -40896.827    4050.9392   -44947.766    124.77874   0.96597472 
   12800    291.34153   -1093.7541    142396.03    -40988.71    4000.8744   -44989.584    126.00475    0.9680503 
   12900    291.47483   -983.20351    142466.08   -40974.682    4002.7048   -44977.387      127.181   0.96757429 
   13000    287.66209   -1180.0439    142548.07   -41053.798    3950.3461   -45004.144    128.53439    0.9670178 
   13100    292.89773   -921.02472    142529.84   -40992.829     4022.245   -45015.074      130.173   0.96714144 
   13200    289.28673    -855.9605    142391.03   -40926.285    3972.6565   -44898.942    130.89791   0.96808429 
   13300    294.07921   -952.19142    142479.37   -40931.263    4038.4698   -44969.733    132.03289   0.96748403 
   13400    290.33006   -842.61812     142715.5    -40972.26    3986.9843   -44959.245    133.79233   0.96588328 
   13500    287.85731   -1068.2119    142530.15   -40963.625     3953.027   -44916.652    135.41694   0.96713936 
   13600    292.86158   -989.90039    142525.58   -40910.353    4021.7486   -44932.102    136.73826   0.96717034 
   13700    293.99252   -991.80169    142236.01   -41004.042    4037.2793   -45041.321    138.18307   0.96913938 
   13800    292.05097    -1165.451    142482.31   -41072.492    4010.6168   -45083.109    139.54355   0.96746409 
   13900     289.5186   -848.75557    142440.76   -41115.605    3975.8408   -45091.446    140.75964    0.9677463 
   14000    285.98436   -1123.4799    142471.46   -41195.356    3927.3065   -45122.662    141.91761   0.96753773 
   14100    290.23728   -964.33986    142317.76   -41142.727    3985.7101   -45128.437    142.76386   0.96858269 
   14200    291.13759   -825.57229    142445.21   -41097.637    3998.0737   -45095.711    143.88411   0.96771605 
   14300    286.03212   -1193.0233     142108.4   -41107.213    3927.9623   -45035.175    144.56742   0.97000962 
   14400    285.87572   -874.18859     141833.7   -41103.855    3925.8146   -45029.669    145.11525   0.97188833 
   14500    290.76666   -1011.1027    141973.79   -41096.241    3992.9798    -45089.22    146.35223   0.97092933 
   14600    293.34484    -800.8789    142062.66   -40998.365     4028.385    -45026.75    147.65943   0.97032195 
   14700     292.4726   -766.50616    142424.12   -40922.892    4016.4068   -44939.299    148.94921   0.96785933 
   14800    289.99513   -1020.4001    142446.91   -40992.957    3982.3848   -44975.341    150.03641   0.96770452 
   14900    292.38634   -1123.5514    142289.51   -40997.195    4015.2223   -45012.418    151.10583   0.96877499 
   15000    287.14405    -1057.657    141979.16   -41039.049    3943.2321   -44982.281    151.65803    0.9708926 
   15100    293.28141     -726.478    142505.67   -41030.334    4027.5139   -45057.848    153.97224   0.96730546 
   15200    284.90182   -1185.8475    142680.71    -41075.28    3912.4404   -44987.721    155.34596   0.96611881 
   15300    295.28569   -797.41476    142716.56   -41017.762    4055.0379     -45072.8      156.731   0.96587612 
   15400    298.51448   -820.07116     142702.3   -40936.289    4099.3775   -45035.666    157.85512   0.96597262 
   15500    293.05372    -992.2962    142828.91   -40962.263    4024.3871    -44986.65    159.02744   0.96511632 
   15600    294.10098   -978.93361    142659.83   -41011.532    4038.7688     -45050.3    160.31911   0.96626021 
   15700    290.54737   -673.66105    142907.05   -41011.654    3989.9685   -45001.622    161.37185   0.96458864 
   15800    289.74169   -1031.0569    142841.26    -41030.63    3978.9044   -45009.534    162.31406   0.96503291 
   15900    288.76706   -1053.2712    142860.61   -40974.092    3965.5202   -44939.612    163.30245   0.96490218 
   16000    293.30855   -939.52499       142999   -41040.497    4027.8866   -45068.384     164.7923    0.9639684 
   16100    292.98855   -828.96329    142950.85   -41060.278    4023.4922    -45083.77    165.55056   0.96429307 
   16200      299.118   -1114.5362    142991.56   -40888.181    4107.6655   -44995.846     166.5951   0.96401855 
   16300    297.42339   -943.11301    142944.77   -40923.185    4084.3941   -45007.579    167.60637   0.96433408 
   16400    295.78906   -851.87117    142951.22   -40857.982    4061.9504   -44919.932    168.70033   0.96429059 
   16500    296.25174   -847.40625    142900.57   -40886.197    4068.3042   -44954.501     169.9962   0.96463235 
   16600    296.05361   -1159.6132    142957.55   -40893.942    4065.5834   -44959.526    170.98841   0.96424789 
   16700     288.7128   -944.28666    143008.14   -40969.527     3964.775   -44934.302    172.03941   0.96390677 
   16800    290.32538   -1234.9423    143101.31   -40917.641    3986.9199   -44904.561     172.5443   0.96327922 
   16900    296.07396   -1073.1749    142934.27   -40934.874    4065.8628   -45000.737    172.96619   0.96440492 
   17000     298.4023   -916.96432    143258.55   -40973.915     4097.837   -45071.752    174.63898   0.96222194 
   17100    296.91113   -982.87745     142940.1   -40996.259    4077.3594   -45073.619    175.10547   0.96436561 
   17200    292.57903   -596.13151    143263.82   -40936.535    4017.8684   -44954.404    176.88453   0.96218651 
   17300    292.11526    -702.7374    143400.44   -40908.009    4011.4997   -44919.509    177.94834   0.96126984 
   17400    294.93609   -1137.1806    143285.63   -40968.869    4050.2369   -45019.106      178.986   0.96204006 
   17500    291.84345    -999.4663     143149.2   -40948.649    4007.7669   -44956.416    179.77462   0.96295693 
   17600    290.64807   -806.85422     143308.1    -41016.38    3991.3514   -45007.731    181.04925   0.96188921 
   17700    296.97536   -1005.3035    143113.48   -41028.286    4078.2414   -45106.527    182.22712   0.96319727 
   17800    292.62201   -991.80018    143130.83   -41024.268    4018.4586   -45042.727    183.49587   0.96308054 
   17900    291.04521    -739.6079    143430.83   -41079.818    3996.8051   -45076.623    185.27211   0.96106614 
   18000    287.29124   -1364.9895    143011.38   -41158.156    3945.2533   -45103.409     185.4269   0.96388492 
   18100    290.37545   -1103.5033     142379.9   -41129.186    3987.6075   -45116.794    185.67748   0.96815992 
   18200    290.68361   -824.43563     142060.9   -41051.518    3991.8394   -45043.357    186.43202   0.97033397 
   18300    289.35007   -855.28322    142162.79   -41104.836    3973.5265   -45078.363    187.08673    0.9696385 
   18400    280.96016   -863.86589    142361.47   -41154.171    3858.3112   -45012.482    188.43515   0.96828528 
   18500    287.04395   -842.05068    142423.39   -41035.934    3941.8574   -44977.791    189.59074   0.96786433 
   18600    293.60355   -1135.3787    142838.63   -41002.848    4031.9377   -45034.786    191.20601   0.96505066 
   18700    294.32918   -1222.1935     142878.9   -40899.692    4041.9025   -44941.594    192.56062   0.96477865 
   18800    293.49006   -1034.4163    142475.07   -41006.556    4030.3792   -45036.936    192.87515   0.96751324 
   18900    288.50648   -1097.7159    142674.35   -41032.336    3961.9418   -44994.278    194.00446   0.96616188 
   19000    289.92872   -1026.5969    142441.63   -41019.008    3981.4728   -45000.481    195.19762   0.96774038 
   19100    287.06883   -762.09325    143024.68   -41060.324    3942.1991   -45002.523    196.94549   0.96379533 
   19200    290.74214   -919.12756    142987.29   -40975.901    3992.6432   -44968.545    197.62038   0.96404737 
   19300    291.50793   -1167.1894    142886.67   -40967.561    4003.1594    -44970.72    198.57792   0.96472624 
   19400      288.835   -984.39008    142824.78   -40976.688    3966.4532   -44943.142     199.6746   0.96514429 
   19500    294.12095   -905.80399    142859.82   -40920.375     4039.043   -44959.418    200.76173   0.96490752 
   19600    296.38108   -1006.7403    143019.48    -40934.35    4070.0804    -45004.43    201.97786   0.96383036 
   19700    291.35192   -910.35647    142968.32   -40942.519     4001.017   -44943.536     203.6653   0.96417525 
   19800    290.23268   -1224.3713    142973.51   -40905.964    3985.6469   -44891.611    204.85096   0.96414026 
   19900    291.85366   -743.92457    143216.19   -40889.777    4007.9072   -44897.684    206.43734   0.96250649 
   20000    291.04665   -773.38173    143427.84   -40844.202    3996.8248   -44841.027    207.72069   0.96108619 
   20100    288.78589   -1076.9364    143504.83   -40864.774    3965.7787   -44830.553    208.89557   0.96057057 
   20200     295.5824    -1107.935    142995.17   -40839.125    4059.1125   -44898.238    209.92294   0.96399424 
   20300    290.20399   -867.45344    143113.58     -40809.2     3985.253   -44794.453     211.3202   0.96319659 
   20400    296.27871   -1079.9474    143140.57   -40849.219    4068.6747   -44917.894    212.10553   0.96301498 
   20500    295.89198    -927.5427    143237.84   -40796.149    4063.3638   -44859.513    213.40535   0.96236106 
   20600    290.35979    -808.4283    143064.71   -40878.566    3987.3925   -44865.959    214.44278   0.96352567 
   20700    295.91692   -822.35779    143326.63   -40956.429    4063.7063   -45020.135    216.29704   0.96176483 
   20800    293.27749   -810.87245    143481.26   -40938.121    4027.4601   -44965.581    217.38813   0.96072834 
   20900    291.78395   -1047.4073    143042.52   -41001.189    4006.9499   -45008.139    217.30559    0.9636751 
   21000    296.63657   -765.22285    142959.49    -40905.51     4073.589   -44979.099    217.78722   0.96423481 
   21100    287.31277   -1120.7035    142968.03   -41001.621     3945.549    -44947.17    218.53593   0.96417722 
   21200    284.63909    -1310.476    142915.41   -41101.295    3908.8325   -45010.127    218.80032   0.96453223 
   21300    291.32854   -836.23046    143139.12    -41110.25    4000.6959   -45110.946    219.54049   0.96302474 
   21400    289.92672   -915.09484    143145.99   -40999.823    3981.4454   -44981.269    220.81138   0.96297851 
   21500    296.27076   -1116.0503    142895.57   -40919.421    4068.5654   -44987.987    221.19788   0.96466616 
   21600    295.16067   -1148.9327    142876.57   -40985.666     4053.321   -45038.987     222.5506   0.96479439 
   21700    298.45583   -1056.5908    142656.97   -40962.424     4098.572   -45060.996    223.75551   0.96627958 
   21800    291.39689   -1027.2644    142795.28   -40963.153    4001.6345   -44964.787    225.23845   0.96534367 
   21900    293.66213   -1203.4983    142551.62    -40912.98    4032.7422   -44945.722    226.67117    0.9669937 
   22000    299.37156   -968.62914    142475.41     -40917.4    4111.1475   -45028.547    227.86681   0.96751093 
   22100    294.89743    -1080.086    142538.73   -40860.141    4049.7061   -44909.847     229.7643   0.96708111 
   22200    298.87777   -857.85466    142562.23   -40847.479    4104.3664   -44951.846    230.85428   0.96692173 
   22300    292.96235   -1056.4311    142352.49   -40866.926    4023.1325   -44890.058    232.08023   0.96834636 
   22400    292.36136    -1166.748    141860.27   -40979.422    4014.8793   -44994.301    233.22624   0.97170631 
   22500    286.52727   -1005.7485    142417.96   -40920.494     3934.762   -44855.256    234.98685   0.96790123 
   22600    287.29775   -976.38982    142717.53   -40885.154    3945.3428   -44830.497    236.29607   0.96586958 
   22700     287.8881   -1139.8327    142942.29   -40907.597    3953.4497   -44861.047    237.50938   0.96435081 
   22800    287.82019   -1175.4011    142845.29   -40995.887    3952.5172   -44948.404    238.83921   0.96500568 
   22900    292.95288   -980.97948    142653.15    -41019.39    4023.0023   -45042.392    239.38457   0.96630548 
   23000     294.5617   -1199.5199    142842.51   -40921.687    4045.0956   -44966.783    240.64831   0.96502443 
   23100    291.24228   -748.72888    142958.45   -40944.966    3999.5114   -44944.477    242.02876    0.9642418 
   23200    297.07762    -869.0394    143042.14    -40991.54    4079.6457   -45071.186    242.82222   0.96367765 
   23300    288.39443    -1161.724    143052.59   -41026.756    3960.4031   -44987.159    244.22325    0.9636073 
   23400    291.48429   -869.18285    143112.89    -41042.74    4002.8348   -45045.574    245.31284   0.96320128 
   23500    290.22984   -894.86588    143165.79   -41001.533    3985.6079   -44987.141     246.5323   0.96284534 
   23600    289.35556   -1045.6019    143221.79   -41077.263    3973.6018   -45050.864    247.54022   0.96246888 
   23700     290.8107   -923.58871    143350.17   -41073.562    3993.5847   -45067.147    249.11843   0.96160695 
   23800    288.41491   -800.81534    143164.79   -41061.172    3960.6842   -45021.857    249.95209   0.96285208 
   23900    290.12364   -1269.9951    143174.69   -40973.221    3984.1496    -44957.37    250.58874   0.96278554 
   24000    288.75619   -1132.1849    142854.13   -40926.862    3965.3709   -44892.233    251.28592   0.96494599 
   24100    297.00597   -1222.2465    142447.22   -40935.768    4078.6617   -45014.429    252.66796    0.9677024 
   24200    296.68875   -1163.7859    142273.17   -40862.206    4074.3055   -44936.512    254.59738   0.96888626 
   24300    289.63601   -858.17664    142235.01   -40904.592    3977.4532   -44882.045    255.72895    0.9691462 
   24400     296.5343   -1184.9959    142456.53   -40859.738    4072.1845   -44931.922    256.49363   0.96763914 
   24500     295.1669   -706.68588     142514.1   -40941.096    4053.4066   -44994.503    257.10596   0.96724829 
   24600     292.1882    -971.7187    142743.18   -40913.631    4012.5014   -44926.132    258.50958   0.96569602 
   24700    296.57117   -995.79136     142842.8   -40877.509    4072.6909     -44950.2    259.34147   0.96502253 
   24800    296.86106   -984.04477    142897.11   -40865.312    4076.6718   -44941.984    261.02499   0.96465574 
   24900    291.32538   -1038.8822    142774.29   -40989.967    4000.6525    -44990.62    261.91374   0.96548559 
   25000    294.22232   -992.87727    142596.46   -41001.951     4040.435   -45042.386    262.23021   0.96668963 
   25100    290.90847   -989.48238     142775.9   -40976.474    3994.9272   -44971.401    264.18082    0.9654747 
   25200    291.17191   -898.06817    142416.64   -41002.446    3998.5451   -45000.991    265.37502    0.9679102 
   25300    289.73528   -1023.5239     142453.3    -41047.58    3978.8164   -45026.396    266.35857   0.96766108 
   25400    292.83537   -992.26522    142509.21    -41015.85    4021.3887   -45037.239    267.77148   0.96728146 
   25500    294.97082   -980.15909    142682.62   -41001.507    4050.7139   -45052.221    268.78507   0.96610586 
   25600    285.43824   -795.15602    142496.89   -41068.238    3919.8068   -44988.044    269.62649   0.96736508 
   25700    289.86802   -938.72345    142399.23    -41100.26    3980.6392   -45080.899    270.43894   0.96802856 
   25800    288.48036   -866.13589    142676.86   -41138.119    3961.5831   -45099.702    271.56858   0.96614486 
   25900    288.74313   -1171.1977    142290.56   -41241.594    3965.1916   -45206.786    271.75257   0.96876785 
   26000    292.53897   -992.70577    142329.67   -41063.398    4017.3183   -45080.716    273.00139   0.96850164 
   26100    291.16914   -818.71642     142110.5   -41098.652     3998.507   -45097.159    273.78244   0.96999532 
   26200      291.245   -1096.5419    142039.34   -41004.245    3999.5488   -45003.794     274.9204   0.97048128 
   26300    294.39551   -1070.2544     142311.7   -40970.196    4042.8134   -45013.009    276.58327   0.96862393 
   26400    285.59666   -1039.9409    142569.99   -41016.356    3921.9824   -44938.338    278.26071   0.96686911 
   26500    291.21657    -981.4395    142871.77   -40844.589    3999.1583   -44843.747    279.71243   0.96482685 
   26600    295.32002   -1188.8209    142771.14   -40886.556    4055.5093   -44942.066    280.25779    0.9655069 
   26700    299.73861   -925.61606    142879.94   -40861.526    4116.1881   -44977.714    281.38587   0.96477165 
   26800    295.55979   -985.44894    142899.46   -40840.016     4058.802   -44898.818    282.50473   0.96463988 
   26900    286.78174   -1337.3518     142732.8   -40939.528    3938.2565   -44877.784    282.97879   0.96576622 
   27000    291.99245    -1124.463    142457.76   -40974.957    4009.8131    -44984.77    282.88631    0.9676308 
   27100    290.26639   -1006.4959    142667.02   -40909.427    3986.1099   -44895.537    284.29482   0.96621152 
   27200    296.41388   -765.46023    142842.33   -40886.183    4070.5309   -44956.714    285.53448   0.96502569 
   27300    293.66143   -1093.1837    143096.25   -40890.302    4032.7325   -44923.034    286.66253   0.96331329 
   27400    297.90689   -1008.5194    143210.23   -40832.174    4091.0337   -44923.208    288.13648   0.96254657 
   27500    294.81617   -693.58163    142898.69   -40932.951    4048.5901   -44981.541    288.29977   0.96464507 
   27600    294.72387   -916.50396    143271.65   -40850.639    4047.3226   -44897.961    290.14549   0.96213393 
   27700    301.02744   -1127.7282     143274.5   -40877.196    4133.8869   -45011.083    291.95669   0.96211478 
   27800    294.96505   -1191.2342    142835.46   -40858.344    4050.6346   -44908.979    292.78757   0.96507207 
   27900     301.8583   -1048.7238    142779.43   -40871.294    4145.2969   -45016.591    293.61851   0.96545084 
   28000    298.71906   -865.92022    142993.66   -40820.262    4102.1869   -44922.449    295.43041   0.96400441 
   28100    302.46662    -979.2087    143238.19   -40871.882    4153.6506   -45025.533    296.86378   0.96235866 
   28200    292.22151   -1311.0644    143059.42    -41047.65    4012.9587   -45060.609    297.55339   0.96356126 
   28300    289.26403   -1154.2301    142822.39   -41061.752    3972.3449   -45034.096    297.90705   0.96516039 
   28400    300.29054   -844.51768    143166.88   -40912.562    4123.7674    -45036.33    299.27631   0.96283803 
   28500    292.62741      -1121.7    143186.68   -40949.893    4018.5328   -44968.426    300.69174   0.96270486 
   28600    291.02975   -1073.3543    142974.52   -41034.341    3996.5928   -45030.934    301.70368   0.96413345 
   28700    290.74652   -1175.0617    143015.98   -41115.923    3992.7033   -45108.627    303.05133   0.96385397 
   28800     289.4999   -1034.9324    142918.95   -41046.314     3975.584   -45021.898    303.76247   0.96450834 
   28900    296.07634   -1010.5302     142688.7   -41044.699    4065.8956   -45110.594    305.04891   0.96606471 
   29000    291.60478   -1131.3797    142739.24   -41009.229    4004.4894   -45013.719    306.91014   0.96572262 
   29100     290.8868   -1214.1472    142889.26   -40978.076    3994.6297   -44972.706    308.14573   0.96470876 
   29200    290.78576   -1099.4291    142902.25    -41027.85    3993.2422   -45021.092    308.76881   0.96462107 
   29300    291.25529   -897.18804    142910.81   -41027.667      3999.69   -45027.357    309.07975   0.96456325 
   29400    291.29529   -993.24964    143223.22   -41045.855    4000.2394   -45046.094    310.86772   0.96245926 
   29500    288.15421   -766.55294    143538.11   -41002.695    3957.1041   -44959.799    312.53203   0.96034783 
   29600    286.35255   -1015.1494    143577.79   -40997.442    3932.3628   -44929.804     314.6132   0.96008242 
   29700    293.00922   -1213.8624    143586.73   -40942.415     4023.776   -44966.191    316.13601   0.96002268 
   29800    294.20028   -1160.6873     143190.5   -40885.444    4040.1324   -44925.577    316.31409    0.9626792 
   29900    287.55312   -1059.6776     143234.7   -40862.604    3948.8496   -44811.453     317.8911   0.96238214 
   30000    289.70504   -1104.2169    142932.02   -40881.379    3978.4011    -44859.78    319.45999   0.96442015 
   30100     295.7537   -1190.5188    142861.73   -40835.843    4061.4648   -44897.308    320.57276   0.96489466 
   30200    291.77565   -924.10584    142769.75   -40920.638    4006.8359   -44927.474    321.60265   0.96551625 
   30300     295.6985   -803.88141    142874.69   -40816.859    4060.7068   -44877.566    323.32248   0.96480711 
   30400    291.49493   -851.05971    142678.51    -40978.48    4002.9809   -44981.461    324.09974   0.96613369 
   30500    292.59559   -1108.8084    142709.05   -41008.465    4018.0958   -45026.561    325.13602   0.96592697 
   30600    289.14057    -967.0083    142721.52   -41039.694    3970.6495   -45010.343    325.84901   0.96584254 
   30700    290.10104   -1332.6223    142971.55   -41016.287    3983.8392   -45000.126    327.65438    0.9641535 
   30800    291.62977   -848.95017    143046.85   -40959.045    4004.8327   -44963.878    328.62074   0.96364593 
   30900    290.61583   -1054.1763    143106.68   -40952.878    3990.9086   -44943.786    329.59282   0.96324308 
   31000    293.60098   -1069.2744     143073.1   -40923.166    4031.9024   -44955.069    330.45373   0.96346917 
   31100    284.12661   -1196.9631    142775.34   -41073.817    3901.7948   -44975.611    331.06997   0.96547849 
   31200    289.91001    -1037.831    142743.46   -41093.261    3981.2159   -45074.477    332.00234   0.96569407 
   31300    289.55938   -1165.7059    143019.41   -41038.243    3976.4008   -45014.644    332.87725    0.9638308 
   31400    290.89341   -1212.5112    142665.78   -41051.722    3994.7205   -45046.442    333.10239   0.96621988 
   31500    292.32956    -825.7951    142586.06   -40927.625    4014.4426   -44942.068    333.97375   0.96676012 
   31600    292.85614   -816.09508    142966.47   -40968.638    4021.6738   -44990.312    335.15352   0.96418776 
   31700    289.10581   -1192.2175    142847.97   -40979.142    3970.1721   -44949.314    336.45559   0.96498757 
   31800    289.36598   -657.70696    142526.99   -40955.685     3973.745    -44929.43    337.66522   0.96716076 
   31900    290.67669   -1039.6144    142677.51   -40904.718    3991.7443   -44896.462     338.5687   0.96614046 
   32000    293.13839   -1222.2504    142752.28   -40881.299    4025.5499   -44906.849     340.1983   0.96563446 
   32100    296.28544   -947.67868    142324.55   -40943.892    4068.7671   -45012.659    340.65974    0.9685365 
   32200    290.37147   -1279.0567    142159.48   -40935.251    3987.5528   -44922.804    340.74086   0.96966109 
   32300     288.0148   -740.74665    142225.51   -40965.065    3955.1897   -44920.255    341.47128   0.96921092 
   32400    292.93422   -1165.7827    142123.13   -40843.604    4022.7461    -44866.35    342.65914   0.96990908 
   32500    290.89911   -988.37971    142135.19   -40921.854    3994.7988   -44916.653     343.4755   0.96982681 
   32600    293.49216   -1473.4451     141968.6   -40950.944    4030.4081   -44981.353    345.31328   0.97096479 
   32700    294.82142   -1150.9974    141899.44   -40938.047    4048.6623   -44986.709    346.50179   0.97143809 
   32800    288.65865   -804.12584    142052.86   -41006.466    3964.0314   -44970.497     348.1618   0.97038886 
   32900    289.11139   -1297.8544     142495.6   -41078.856    3970.2487   -45049.105    349.91674   0.96737386 
   33000    290.92679   -950.19099    142294.19   -41078.429    3995.1789   -45073.608    350.43159   0.96874309 
   33100    292.75648   -1042.8837    142565.57   -41058.041    4020.3053   -45078.346    352.42877   0.96689909 
   33200    288.15593   -1253.8426    142682.46   -40969.218    3957.1278   -44926.346    354.38008   0.96610697 
   33300    292.68632   -1139.1916    142423.99    -40883.14    4019.3418   -44902.482    354.81553   0.96786026 
   33400    295.15707   -1025.5828     142462.4   -40931.302    4053.2716   -44984.574    356.91164   0.96759932 
   33500    294.12524   -1232.9245    142604.81    -40856.86    4039.1019   -44895.962     358.5268   0.96663298 
   33600     295.7685    -1185.376    142950.59   -40876.645    4061.6681   -44938.314    360.46485   0.96429487 
   33700    290.81021    -948.8228    143112.75   -40936.024     3993.578   -44929.602    362.05451   0.96320221 
   33800    291.53547   -997.86362    143292.64    -40898.41    4003.5376   -44901.947    363.30033     0.961993 
   33900    287.35196   -1085.0914    143423.68   -40934.218    3946.0872   -44880.305    364.44672   0.96111409 
   34000    293.47293    -1138.035    143385.75   -40907.256    4030.1439     -44937.4    366.09788   0.96136833 
   34100    291.09973   -988.47676       143300   -40999.346    3997.5538     -44996.9    366.97834    0.9619436 
   34200    293.49661   -1343.3498    143179.45   -40989.967    4030.4692   -45020.436    368.57807   0.96275348 
   34300     291.7408   -921.86053    143025.03   -40985.466    4006.3573   -44991.823    369.07525   0.96379298 
   34400     292.7922   -1104.2995    142887.42   -40885.647    4020.7958   -44906.443    369.97965   0.96472118 
   34500    297.37905   -850.15022     142727.9   -40854.218    4083.7852   -44938.003    370.91069    0.9657994 
   34600    292.71114   -975.68361    142684.63   -40893.187    4019.6826    -44912.87    371.91255   0.96609229 
   34700    294.42709   -1069.8325    142467.03   -40984.272     4043.247   -45027.519    372.04994   0.96756782 
   34800    293.45728   -983.01451    142659.88   -41049.447     4029.929   -45079.376    372.91136   0.96625984 
   34900    291.11633   -935.46438    142476.81   -41047.046    3997.7817   -45044.828    374.00102   0.96750144 
   35000    289.35886   -957.53497    142659.02   -41065.456    3973.6472   -45039.103       376.29   0.96626572 
   35100    293.41617    -938.2232    142624.63   -41040.228    4029.3645   -45069.592    377.06468   0.96649869 
   35200    296.15741   -1197.3767    142869.13   -40860.749    4067.0088   -44927.758    378.34091   0.96484463 
   35300    294.09114   -993.06018    142943.99   -40941.903    4038.6336   -44980.536    378.79293   0.96433935 
   35400    294.68095    -882.0233    142747.27   -41079.569    4046.7332   -45126.302    379.56566   0.96566829 
   35500    292.67538   -1083.2566    143065.91   -41061.191    4019.1916   -45080.383    381.84326   0.96351754 
   35600    292.70868   -1226.0631    143155.26   -41038.977    4019.6488   -45058.625    382.62321    0.9629162 
   35700    288.33588    -900.2086    143026.43   -40997.268    3959.5989   -44956.867    383.95336    0.9637835 
   35800    293.58877   -1199.1113    142921.29   -41010.147    4031.7348   -45041.882    384.32927   0.96449255 
   35900    296.66679   -940.31492    142896.24   -40980.604    4074.0039   -45054.607    385.74031    0.9646616 
   36000    289.04421   -1141.6291    142436.92    -41027.72    3969.3262   -44997.047     386.6403   0.96777237 
   36100    287.76042   -866.75686     142524.7    -41054.74    3951.6964   -45006.436     388.2917   0.96717634 
   36200     291.1441   -911.10825    142557.86   -40983.566    3998.1631   -44981.729    389.43268   0.96695139 
   36300    287.46934   -934.05345    142357.83   -41020.607    3947.6991   -44968.306    390.92321   0.96831006 
   36400    297.10358   -1035.6244    142584.12   -40905.147    4080.0022   -44985.149    392.09852   0.96677329 
   36500    293.39629   -942.73631     142759.5   -40829.572    4029.0915   -44858.663    394.28505   0.96558556 
   36600    290.69552   -1241.7229    142701.78   -40957.372     3992.003   -44949.375    395.43666   0.96597612 
   36700    289.43471   -947.54068    142859.64   -40936.878    3974.6888   -44911.567    396.31955   0.96490878 
   36800    291.72226   -979.73339    142724.91   -40993.473    4006.1028   -44999.576    396.39807   0.96581958 
   36900    286.53609   -971.12862    142730.91   -41076.148    3934.8832   -45011.031     397.3751   0.96577904 
   37000    287.63614   -1233.0975    142420.36   -41033.079    3949.9897   -44983.069    397.65919   0.96788492 
   37100    292.27816   -849.15135       142718   -41036.092    4013.7367   -45049.829    398.92955   0.96586637 
   37200    286.38372   -1362.3101    142368.73   -41035.211    3932.7907   -44968.001    400.06051   0.96823592 
   37300    289.90612    -864.4796    142498.14    -41034.12    3981.1625   -45015.283    400.31874   0.96735663 
   37400    288.37653   -1199.2262    142558.03   -41123.715    3960.1572   -45083.872    401.80751   0.96695021 
   37500     290.8001   -911.08606    142723.71   -41166.928    3993.4391   -45160.367     402.8641   0.96582772 
   37600    290.38013   -1028.9361     143156.9   -41112.346    3987.6718   -45100.018    404.10565   0.96290514 
   37700    293.43235   -1181.2215    143215.07   -41141.105    4029.5868   -45170.692    405.89179   0.96251408 
   37800    288.98191   -1119.6996     142755.8   -41127.376    3968.4707   -45095.847    406.49624   0.96561061 
   37900     286.9634   -1072.2827    142348.09   -41215.631    3940.7512   -45156.382    405.95382   0.96837627 
   38000    291.10881   -1147.6869    142614.69   -41148.118    3997.6785   -45145.797    408.05291   0.96656604 
   38100    296.11953   -1009.4438    142409.28   -41174.412    4066.4887   -45240.901    408.39523   0.96796021 
   38200    293.22064   -895.79457    142601.27   -41156.507    4026.6794   -45183.187    410.48307   0.96665701 
   38300     287.6887   -1093.0685    142477.84   -41267.758    3950.7115    -45218.47    411.61341   0.96749441 
   38400    287.18727   -989.93241    142591.42   -41257.123    3943.8255   -45200.948    413.12882   0.96672376 
   38500    279.33904   -749.61336    142448.35   -41285.079    3836.0491   -45121.128    412.96762   0.96769475 
   38600    291.96182   -1026.9164    142657.03   -41126.012    4009.3925   -45135.405    414.40822    0.9662792 
   38700    286.32468   -983.69888    142851.13   -41147.995      3931.98   -45079.975    415.65989   0.96496622 
   38800    290.12865   -1080.5764    143000.85   -41002.777    3984.2183   -44986.996    417.68662   0.96395593 
   38900    297.18337   -1025.4538    143042.69   -40954.834    4081.0979   -45035.932      418.795     0.963674 
   39000    289.34784   -1206.5837    143052.55   -41005.442    3973.4958   -44978.938    420.56979   0.96360753 
   39100    287.29572   -884.48311     142728.3    -40987.13    3945.3149   -44932.445    420.65876   0.96579665 
   39200    295.06593   -756.83141    142781.83   -40944.788      4052.02   -44996.808    421.64043   0.96543458 
   39300    296.55779   -1273.9611    142730.48   -40953.426    4072.5072   -45025.933    422.25256    0.9657819 
   39400    292.56928   -868.71256    142696.14    -40962.36    4017.7345   -44980.094    422.38935   0.96601437 
   39500    293.66827   -1049.8991    142577.32   -40881.911    4032.8265   -44914.737    423.46963   0.96681942 
   39600    290.06927   -1086.2965    142872.96   -40838.986     3983.403   -44822.389    424.96199   0.96481877 
   39700    292.56393   -906.51388    142643.73    -40943.05    4017.6611   -44960.712     425.7574   0.96636925 
   39800    294.21046   -873.21126       142710   -40905.199    4040.2722   -44945.472    426.47456   0.96592055 
   39900    284.12889   -1171.0277    142663.84   -41106.758    3901.8261   -45008.584    427.71958   0.96623302 
   40000    291.69481   -1096.0391    142272.25   -41001.939    4005.7258   -45007.665    427.92697   0.96889248 
   40100    296.40465   -880.13274    142238.01   -40981.389    4070.4041   -45051.793    428.62262   0.96912577 
   40200    298.82304   -930.21889    142801.87   -40921.641    4103.6149   -45025.256    430.82299   0.96529908 
   40300    292.33082   -772.99498    142930.32   -40924.026    4014.4598   -44938.486    431.78899   0.96443157 
   40400    291.41141   -764.71502    143086.89   -40950.107     4001.834   -44951.941    434.19994   0.96337629 
   40500    289.37674   -813.63034    143080.76   -40947.439    3973.8927   -44921.331    435.36668   0.96341755 
   40600    294.74747   -978.86482    143354.38    -40919.53    4047.6467   -44967.177    437.78267   0.96157868 
   40700    292.39653   -1018.7998    143641.93   -40951.942    4015.3622   -44967.304    439.97079   0.95965373 
   40800    295.20625   -1016.3746    143463.51   -40986.244    4053.9469   -45040.191    440.59716   0.96084725 
   40900    292.06918   -958.33228    143432.75   -41012.578    4010.8669   -45023.445    441.15184    0.9610533 
   41000    291.25671   -905.46135    143101.01   -41017.474    3999.7095   -45017.183    441.00043    0.9632812 
   41100    292.91859   -1008.1943       143270   -41018.111    4022.5314   -45040.643    441.64259   0.96214505 
   41200     298.8084   -1013.5186    143424.83    -40862.24    4103.4138   -44965.654     442.9535   0.96110638 
   41300    291.51474   -819.23341    143478.83   -41013.493    4003.2529   -45016.746     444.2875   0.96074464 
   41400    287.31767   -805.58996    143676.57   -41013.561    3945.6163   -44959.177    445.20306   0.95942237 
   41500    291.30154   -930.79959    143667.76    -41027.25    4000.3252   -45027.575    445.71431   0.95948123 
   41600    293.65311   -999.79035    143709.52   -40949.873    4032.6183   -44982.492    446.14554   0.95920238 
   41700    287.70719   -982.20927     143637.7   -41104.322    3950.9655   -45055.288    446.45011   0.95968199 
   41800    292.55154   -1021.5077    142981.46    -41008.87    4017.4909   -45026.361    446.19754   0.96408662 
   41900    293.38704   -1104.3691    143050.23    -40971.12    4028.9644   -45000.085    447.44007   0.96362318 
   42000    292.90922   -954.19586    143016.97   -40997.899    4022.4028   -45020.302    448.19448   0.96384728 
   42100    289.77139   -853.21386    142816.31   -41032.794    3979.3123   -45012.106    448.91992   0.96520152 
   42200    292.27962   -1039.8052    142731.83   -40991.354    4013.7567   -45005.111    450.39879   0.96577281 
   42300    291.70529    -1085.996     142867.4   -41073.845    4005.8698   -45079.715    451.99949   0.96485632 
   42400     291.7345   -1047.7581    142912.08   -41071.408    4006.2708   -45077.679    453.57703   0.96455469 
   42500    288.00182   -794.69326     143075.3   -41057.533    3955.0115   -45012.544    454.81308   0.96345435 
   42600    291.21204   -959.22725    143218.04   -41086.656    3999.0962   -45085.753    456.91379    0.9624941 
   42700    292.12485   -1133.1041       143065   -41122.106    4011.6313   -45133.737    457.38619   0.96352369 
   42800    287.42838   -728.16938     143151.4   -41192.782    3947.1367   -45139.918    458.55596   0.96294217 
   42900    288.88279   -1091.9131    143148.17   -41117.903    3967.1095   -45085.012    459.53833   0.96296386 
   43000    292.93108   -917.54217    142959.19   -41070.224     4022.703   -45092.927    460.31042   0.96423683 
   43100    288.45454   -1127.0371    143530.01   -41057.864    3961.2284   -45019.093     461.7536   0.96040207 
   43200    289.70122    -1035.738    143295.47   -41075.939    3978.3487   -45054.288    461.63101   0.96197403 
   43300    291.68886   -1048.9358    143177.51   -41058.318    4005.6441   -45063.962    462.75755   0.96276657 
   43400    288.64922   -1231.0587    142697.12    -41128.87    3963.9019   -45092.772    462.06596   0.96600771 
   43500    287.40979   -1020.9029     142591.2   -41043.504    3946.8814   -44990.386    461.92562   0.96672529 
   43600    289.53116   -745.32138    142534.77   -41055.861    3976.0133   -45031.875    461.81795   0.96710803 
   43700    291.51219   -999.58462    142529.61   -41032.245     4003.218   -45035.463    462.17268   0.96714299 
   43800     296.8071   -1190.8416     142482.4   -40929.755    4075.9307   -45005.686    463.32402   0.96746347 
   43900    293.36414   -960.65415    142215.53   -41053.333      4028.65   -45081.983    463.48148   0.96927892 
   44000    298.18248   -1045.3882    142348.74   -41014.174    4094.8184   -45108.993    464.19508   0.96837188 
   44100    293.28074    -1007.681    142375.76   -40938.176    4027.5047   -44965.681    465.29235   0.96818811 
   44200    293.27655    -1159.074    142133.11   -41023.228    4027.4472   -45050.675    465.50146   0.96984101 
   44300     282.6854   -813.78668    142511.28   -41143.263    3882.0033   -45025.266    466.51523   0.96726739 
   44400    288.39813    -920.0337    142693.06   -41107.682    3960.4538   -45068.135     468.6903   0.96603518 
   44500    283.47774   -1283.9513    142413.73   -41141.089    3892.8841   -45033.973    469.03271      0.96793 
   44600    290.64951    -1175.577    142462.54   -41090.124    3991.3711   -45081.495    470.84441   0.96759835 
   44700    282.22358   -990.90589    142260.97   -41135.652    3875.6612   -45011.313     472.0036   0.96896932 
   44800    286.90235   -1110.6416    142443.34   -41081.558    3939.9128   -45021.471     473.3615   0.96772876 
   44900    293.20595   -1130.4877    142383.99   -41084.835    4026.4777   -45111.313    473.89793   0.96813213 
   45000    288.78299   -1259.3294    142680.51   -41090.539     3965.739   -45056.278    475.92669   0.96612019 
   45100    290.76502   -895.05722    142753.83   -41021.177    3992.9574   -45014.134    477.87759   0.96562396 
   45200    294.55461    -911.4115    142682.78   -41079.778    4044.9983   -45124.777    479.19363   0.96610482 
   45300    295.24405   -972.70777    142730.47   -41108.974    4054.4661    -45163.44    480.24905   0.96578196 
   45400    289.21226   -939.42868    142727.75   -41125.576    3971.6339   -45097.209    481.30171   0.96580039 
   45500    292.97873   -1091.2666    142666.27   -41053.272    4023.3573    -45076.63    483.26185    0.9662166 
   45600    293.02383   -1226.5973    142402.14   -41105.931    4023.9766   -45129.907    483.44835   0.96800877 
   45700    293.63483   -892.37344     142102.6   -41062.071    4032.3673   -45094.439    484.03978   0.97004922 
   45800    293.37045   -952.92116    142255.35   -41006.199    4028.7367   -45034.936    484.77299   0.96900759 
   45900    295.66776   -937.71504    141897.25   -41042.925    4060.2848    -45103.21    484.72359   0.97145302 
   46000    289.75428   -1037.6271    141949.55   -41095.791    3979.0773   -45074.868    486.62418   0.97109516 
   46100    293.78136   -999.77554     142356.9   -41059.342    4034.3795   -45093.722    487.80526   0.96831637 
   46200    292.52348   -991.34456    142640.77   -41036.065    4017.1056   -45053.171    489.45707   0.96638932 
   46300    295.45097    -991.4015     142887.5   -41037.687    4057.3076   -45094.994    490.96445   0.96472064 
   46400    292.48226   -967.50888    142626.41   -41029.907    4016.5395   -45046.447    492.06508   0.96648661 
   46500    291.84711   -1008.1448    142321.95   -40986.974    4007.8172   -44994.791    493.22016   0.96855418 
   46600    297.72607   -993.81661       142252   -40941.442    4088.5507   -45029.992    493.42564   0.96903046 
   46700    301.98652   -815.15375    142544.32   -40922.268    4147.0576   -45069.326    495.90631    0.9670432 
   46800    291.51562   -766.62414    143034.69    -40884.45     4003.265   -44887.715    497.56243   0.96372788 
   46900    294.57454   -1176.8781    142949.07   -40904.259    4045.2719   -44949.531    498.22825    0.9643051 
   47000     289.4679   -1032.6531    142682.21   -40966.984    3975.1446   -44942.128    498.42933   0.96610865 
   47100    293.48516   -932.29815    142660.12   -40933.971    4030.3119   -44964.283     499.2277   0.96625827 
   47200     287.5864   -817.37826    143091.77   -40968.368    3949.3067   -44917.675    501.52614   0.96334346 
   47300    290.80291   -765.68671    143124.68   -40926.332    3993.4777    -44919.81    503.14712   0.96312189 
   47400    294.58446   -959.55238    143043.25   -40857.937    4045.4081   -44903.345    503.51258   0.96367022 
   47500    287.24616    -784.0792     143156.1    -40949.76    3944.6343   -44894.394    505.02269   0.96291051 
   47600    289.95882   -960.03933    143506.35   -40866.131    3981.8861   -44848.017    506.76965   0.96056041 
   47700    291.23723    -1043.033     143338.5   -40948.468     3999.442    -44947.91    507.47481   0.96168522 
   47800     293.0353   -1088.7479    142923.85    -40989.43    4024.1342   -45013.564    507.22612   0.96447528 
   47900    293.68989   -891.44242    142832.56   -40979.167    4033.1233    -45012.29    508.44864   0.96509169 
   48000    290.79798    -904.9725    142653.66   -41016.084      3993.41   -45009.494    508.96413   0.96630197 
   48100    284.12903   -1287.4773    142761.22   -41050.718     3901.828   -44952.546    510.12964   0.96557399 
   48200    292.21646   -1153.0113    142316.95   -40985.428    4012.8894   -44998.318    510.76488   0.96858821 
   48300    295.64805   -1020.7056    142274.74   -40953.753     4060.014   -45013.767    511.45888   0.96887556 
   48400    288.93183   -871.77964    142439.15   -40907.235    3967.7829   -44875.018    512.57899   0.96775725 
   48500     290.2297   -1078.3454    142361.92   -40986.231     3985.606   -44971.837    514.36158   0.96828224 
   48600    294.02045   -847.03375    142457.73    -40986.58    4037.6628   -45024.243    515.06007   0.96763098 
   48700    294.23918   -884.59543    142380.23    -41046.06    4040.6666   -45086.727    516.11911   0.96815773 
   48800    293.76992   -940.42411    142989.56   -41039.844    4034.2224   -45074.066     519.5462   0.96403206 
   48900    286.74943   -1208.8299    142644.82   -40998.862    3937.8129   -44936.675    519.11524   0.96636191 
   49000    292.70058   -768.93179    142544.43   -41000.316    4019.5376   -45019.854    519.69233   0.96704244 
   49100    292.84924   -654.70764    142449.56   -41048.173     4021.579   -45069.752    520.39725   0.96768649 
   49200    288.39944   -1468.8064    142684.41   -41115.695    3960.4719   -45076.166    521.59491   0.96609375 
   49300    286.50861    -934.5635    142475.27   -41122.832    3934.5058   -45057.338    522.56852   0.96751187 
   49400     286.9107     -986.048    142603.59   -41064.042    3940.0275   -45004.069    523.81754   0.96664129 
   49500    291.07102   -1079.1455    142441.02   -41017.082    3997.1595   -45014.242    523.82161   0.96774451 
   49600    289.59162    -1155.391     142346.7   -41025.647    3976.8435   -45002.491     523.8081   0.96838579 
   49700    295.49509   -835.22567    142475.02   -40952.358    4057.9135   -45010.272    524.86216    0.9675136 
   49800    291.01381   -980.14848    142583.56   -40883.951    3996.3738   -44880.325    526.22307   0.96677708 
   49900    290.39685   -791.33335    142341.68   -40988.765    3987.9015   -44976.667    526.39457    0.9684199 
   50000    291.70229   -997.07169    142635.79   -41029.562    4005.8285   -45035.391    528.37803   0.96642304 
   50100    290.20008    -899.1793    143031.55   -41057.047    3985.1992   -45042.246    531.21735   0.96374902 
   50200    291.66274   -943.78041    143051.15   -41024.513    4005.2853   -45029.799    532.17018   0.96361699 
   50300    292.25927   -987.99622    142990.83   -40995.361    4013.4773   -45008.839    532.70401   0.96402345 
   50400     291.5303   -1151.4911     142959.5   -41037.916    4003.4666   -45041.382    533.43712   0.96423473 
   50500    292.59891   -1033.1415    142829.13   -41055.951    4018.1415   -45074.093    533.45294   0.96511489 
   50600    291.32122   -949.77286    142920.61   -41101.135    4000.5955    -45101.73    535.26111   0.96449712 
   50700    292.26775    -972.9739    143275.78   -40970.756    4013.5937    -44984.35    536.79625   0.96210623 
   50800    290.47516   -910.97522    143436.22   -40948.169    3988.9768   -44937.146    537.32506   0.96103004 
   50900    291.56642   -1083.6857    143194.76   -40942.321    4003.9626   -44946.284    538.33453   0.96265059 
   51000    288.43651   -853.96444     143099.9   -41008.344    3960.9808   -44969.325    538.98491   0.96328869 
   51100    294.87501     -913.211    143375.18   -40991.043    4049.3981   -45040.441    541.13235   0.96143922 
   51200    294.46641   -1157.7253    143147.57   -40909.723     4043.787    -44953.51    541.65881   0.96296794 
   51300    294.59064   -1168.8316    142768.08   -40857.858     4045.493   -44903.351    541.72338   0.96552753 
   51400    291.02066    -1098.078    142601.35   -41067.252     3996.468    -45063.72    542.63932   0.96665648 
   51500    285.50995   -1163.1176    142560.66   -41115.804    3920.7917   -45036.595    542.68073   0.96693239 
   51600     284.8812   -906.35504    142320.92   -41088.848    3912.1573   -45001.005    542.82464   0.96856116 
   51700    289.90102   -1062.7165    142603.32   -41031.665    3981.0924   -45012.757    544.61647   0.96664312 
   51800    294.85186    -943.0966    142400.21   -41141.959    4049.0803    -45191.04    545.29474   0.96802186 
   51900    283.69398   -816.70685     142532.6   -41167.479    3895.8536   -45063.332    546.78386   0.96712272 
   52000    289.76892    -1011.045    142406.03   -41125.076    3979.2784   -45104.355    546.93151   0.96798233 
   52100    291.22175   -838.97858    142415.34   -41141.722    3999.2295   -45140.951     547.5833   0.96791901 
   52200    291.14766   -1018.0808    142251.58   -41119.065     3998.212   -45117.277    548.61715   0.96903332 
   52300     290.6832   -1031.7848    142115.39   -41072.153    3991.8337   -45063.987    549.12123    0.9699619 
   52400    292.68292   -1550.1423    142107.37   -40973.688    4019.2951   -44992.984    549.98028   0.97001669 
   52500    289.95345   -821.82756    142066.33   -40961.106    3981.8124   -44942.918     551.1354   0.97029689 
   52600    288.14516   -853.48579    142453.62    -41064.72      3956.98     -45021.7     553.1394   0.96765896 
   52700    287.12179   -915.70892     142635.4   -41080.398    3942.9264   -45023.325    555.49817   0.96642572 
   52800    293.93846   -1073.8238    142721.78   -41111.942    4036.5369   -45148.479    557.43703   0.96584076 
   52900    288.08638   -919.52824    142944.27   -41161.882    3956.1727   -45118.055    559.21664   0.96433748 
   53000    286.60884   -1043.8338    143198.21   -41219.186    3935.8822   -45155.068    560.23168   0.96262739 
   53100    289.86334   -1006.0413     143017.8   -41214.147     3980.575   -45194.722    560.38074   0.96384166 
   53200    289.17562   -927.32503     142896.8   -41095.987    3971.1308   -45067.118      561.402    0.9646578 
   53300    292.44462   -1241.9832    142798.08   -41114.992    4016.0227   -45131.015    562.13377    0.9653247 
   53400    298.28375   -967.41994    142959.71    -41002.99    4096.2091   -45099.199    562.55738    0.9642333 
   53500    291.41282   -949.99042    142872.65   -40980.095    4001.8533   -44981.949     563.2118   0.96482086 
   53600    294.28387   -1006.1099    142796.45   -40977.018    4041.2803   -45018.298    564.23712   0.96533575 
   53700    290.56888   -1267.6316    142446.22   -41037.719    3990.2638   -45027.983    564.08078   0.96770919 
   53800     285.2549   -897.40866    142327.54   -41121.615    3917.2892   -45038.904     565.5207   0.96851609 
   53900    288.91889   -777.34957    142710.12   -41135.562    3967.6052   -45103.168    567.31966   0.96591971 
   54000    287.06752   -1143.6257    142793.02   -41037.873    3942.1812   -44980.054    567.83021   0.96535893 
   54100    290.30636   -821.19582    142711.77   -41013.859    3986.6587   -45000.518    568.09039    0.9659085 
   54200    285.89844   -796.99564    142606.19   -41025.542    3926.1265   -44951.668    568.81598   0.96662368 
   54300    292.62959   -916.58269     142511.9    -40940.09    4018.5627   -44958.653    569.44164   0.96726319 
   54400    290.24892   -889.56266    142584.15   -41017.533      3985.87   -45003.403     570.6094    0.9667731 
   54500    290.85678   -1258.5249    142517.83   -40973.852    3994.2174   -44968.069    571.15027   0.96722296 
   54600     287.1789    -837.9676    142372.66   -41011.077    3943.7106   -44954.788    571.68754   0.96820916 
   54700    292.37181   -969.08713    142318.69   -41039.556    4015.0227   -45054.579    572.30395   0.96857634 
   54800    286.92068   -1266.4312    142135.79   -41043.041    3940.1647   -44983.206    572.84814   0.96982268 
   54900    296.58174   -1035.7934    142544.63   -40931.942    4072.8359   -45004.778    575.33119   0.96704112 
   55000    295.30674    -1250.829    142522.14   -40943.012    4055.3269   -44998.339    576.81136   0.96719374 
   55100    291.36553   -933.59063    142467.05   -40927.133    4001.2039   -44928.337    577.73276   0.96756769 
   55200    295.10971   -952.70833    142758.19   -40969.319    4052.6213    -45021.94    580.16929   0.96559449 
   55300    295.40788   -1076.9835     142837.7   -40939.527    4056.7159   -44996.243     581.6839   0.96505693 
   55400     294.2203   -1096.1219    142325.07   -40933.121    4040.4073   -44973.528    581.25856   0.96853293 
   55500    294.08005    -745.1555    142657.67   -40954.579    4038.4814    -44993.06    583.53373   0.96627486 
   55600    291.29261   -1029.3878    142799.63   -40901.844    4000.2025   -44902.047    584.14768   0.96531426 
   55700    293.10507   -961.54629    142917.29   -40929.004    4025.0923   -44954.096    585.41987   0.96451953 
   55800    288.89029   -985.10363    142845.22   -41026.927    3967.2124   -44994.139    585.32852   0.96500619 
   55900    283.27102   -920.25678    142734.02   -41116.938    3890.0454   -45006.984    585.55004   0.96575798 
   56000    281.12256   -1011.8602    142691.22   -41182.145    3860.5414   -45042.686    587.07637   0.96604764 
   56100    287.93756    -764.2344    142660.32   -41074.914     3954.129   -45029.043    588.13531   0.96625691 
   56200    283.02105   -875.47049     142801.8   -41050.389    3886.6125   -44937.001    590.82509   0.96529957 
   56300    293.78859   -884.99697    142765.51   -40966.894    4034.4788   -45001.372    592.02748   0.96554497 
   56400     293.0865   -887.07898    142699.91   -40904.888    4024.8373   -44929.725    593.16106    0.9659888 
   56500    294.07122   -981.64638    142559.63   -40932.185      4038.36   -44970.545    593.83631   0.96693935 
   56600    294.32878   -866.57136    142512.71   -40858.505     4041.897   -44900.402    594.31048   0.96725769 
   56700     298.9971   -754.25042    142680.75   -40882.422    4106.0051   -44988.427     596.7124   0.96611851 
   56800    293.77344   -911.55835    142603.65    -40860.18    4034.2708    -44894.45    598.14187   0.96664085 
   56900    295.23523   -802.57743    142281.29   -40976.552    4054.3449   -45030.897    598.34299   0.96883094 
   57000    288.63212   -1212.4176    142297.47   -40992.958    3963.6671   -44956.625    599.48272   0.96872076 
   57100    291.30971   -1077.2366    142231.47   -41082.958    4000.4373   -45083.395    599.40675   0.96917031 
   57200    288.71181   -1141.3309    142572.43   -41192.341    3964.7614   -45157.103    602.24446   0.96685253 
   57300    286.93993   -872.74854    142680.47   -41140.716    3940.4289   -45081.145    603.21046   0.96612041 
   57400    286.85893   -946.11581    142709.71   -41172.042    3939.3166   -45111.358     604.6002   0.96592249 
   57500    286.82931   -755.19612    142913.73   -41100.951    3938.9098   -45039.861    606.01207   0.96454356 
   57600    286.66631   -1081.8422    142740.52    -41135.42    3936.6714   -45072.091    606.83372   0.96571399 
   57700    283.23065   -1072.7293    142744.87   -41140.996    3889.4909   -45030.487    607.28266   0.96568458 
   57800    291.87746   -976.07998    142733.78   -41007.666    4008.2341     -45015.9    607.75608   0.96575957 
   57900    285.58821   -1104.2492    142375.48   -41110.845    3921.8663   -45032.712    607.17099   0.96819004 
   58000    291.94595   -953.98515    142436.93   -41154.233    4009.1746   -45163.408    609.21585   0.96777228 
   58100    294.36079   -915.76819    142442.51   -41006.369    4042.3366   -45048.706     610.5285   0.96773437 
   58200    288.53422   -1127.1575    142613.46   -41111.091    3962.3226   -45073.414    611.67408   0.96657436 
   58300    286.38599   -917.42854    142889.57   -41144.374    3932.8219   -45077.195     613.4927   0.96470666 
   58400    294.91827   -843.56784    143060.28   -41032.576    4049.9923   -45082.568      614.576   0.96355548 
   58500    298.24518   -1257.6417     143331.4   -40962.252    4095.6794   -45057.931    615.70192   0.96173284 
   58600    288.14305   -1144.5563    143015.44   -41058.442    3956.9509   -45015.393    615.92837   0.96385756 
   58700    293.12635   -1173.5574    142883.44   -41044.623    4025.3845   -45070.008    616.79801     0.964748 
   58800    290.58856   -1270.8334    142867.88   -41021.074    3990.5341   -45011.609    618.21698   0.96485308 
   58900    293.15497   -1142.1809    142829.75    -40992.47    4025.7776   -45018.247    618.56515    0.9651107 
   59000     286.0613   -856.20909    143033.64   -41049.785     3928.363   -44978.148    620.83143   0.96373496 
   59100    292.82973   -1115.1835    143015.31   -41014.222    4021.3112   -45035.533    621.58367   0.96385845 
   59200    289.47584   -1005.4633    142636.36    -41067.35    3975.2536   -45042.604    621.78896   0.96641921 
   59300    285.20584   -898.16149     142593.7   -41059.629    3916.6154   -44976.245    622.66843   0.96670835 
   59400    292.93934   -1053.2846    142640.92   -40975.573    4022.8164   -44998.389    623.11493   0.96638831 
   59500    292.55665   -1032.1719     142787.8   -40972.579    4017.5611    -44990.14    624.67882   0.96539422 
   59600    296.75582   -1009.8201    142796.03    -40864.02    4075.2266   -44939.247    626.13585   0.96533856 
   59700    295.20114   -1209.4262    142665.43   -40930.476    4053.8767   -44984.353    626.75748   0.96622225 
   59800    294.64121   -1105.3414    142881.74   -40905.925    4046.1875   -44952.112    628.62366   0.96475953 
   59900    288.93589   -994.46293    142884.07   -40989.377    3967.8386   -44957.215    630.09567   0.96474375 
   60000    295.43457   -1132.9707    142455.23   -40994.229    4057.0823   -45051.311    630.12954   0.96764801 
   60100    287.59342   -798.49884    142633.29   -40994.846     3949.403   -44944.249    631.45521   0.96643997 
   60200    287.65901   -1054.5884    142459.77   -41121.573    3950.3038   -45071.877    631.77006   0.96761717 
   60300    290.03858   -1275.5086    142404.11   -41082.614    3982.9814   -45065.595    633.32502   0.96799536 
   60400    291.86684   -929.61016    142411.14   -41072.462    4008.0882    -45080.55    634.86944   0.96794757 
   60500    282.61384   -1129.8777    142475.57   -41121.651    3881.0206   -45002.671    636.05138   0.96750984 
   60600    290.88297   -1069.6986    142384.36    -41086.07    3994.5771   -45080.647    636.61219   0.96812962 
   60700    292.29657   -840.20214    142624.14   -41067.031    4013.9895    -45081.02    638.78956   0.96650199 
   60800    287.79623   -897.77131    142702.84   -41038.059    3952.1882   -44990.248    640.38581   0.96596898 
   60900    293.05642   -908.11235    142590.35   -40987.633    4024.4242   -45012.057    640.82579   0.96673101 
   61000    295.75377     -960.816    142642.72   -40905.973    4061.4658   -44967.438    641.88954   0.96637614 
   61100    300.90807   -1008.1675    142637.76   -40868.094    4132.2477   -45000.341    643.27347   0.96640975 
   61200    296.20927   -1029.7521    142762.39   -40945.572     4067.721   -45013.293    644.70705   0.96556604 
   61300    295.95544   -855.75651    143114.38   -40902.169    4064.2352   -44966.404     647.0639   0.96319123 
   61400    297.47143   -737.39633    143152.87   -40802.428    4085.0537   -44887.481     649.5647   0.96293224 
   61500    292.57648   -1086.4066    143501.91   -40851.077    4017.8334    -44868.91    651.74049   0.96059009 
   61600    294.54803   -745.86491    143210.91   -40936.289    4044.9079   -44981.196    652.79554     0.962542 
   61700     295.4722   -1084.5406    143231.81   -40983.945    4057.5992   -45041.544    654.12114   0.96240153 
   61800    294.83522    -782.8223    142869.99   -41023.195    4048.8517   -45072.047     653.2343   0.96483888 
   61900    293.93789   -1070.2622    142773.27   -40965.978    4036.5291   -45002.507     654.6957   0.96549247 
   62000    291.08223   -998.60052    143081.98    -41003.99    3997.3135   -45001.304    656.42921   0.96340934 
   62100    289.39304    -826.5526    143107.45   -41011.859    3974.1165   -44985.976    657.18508   0.96323785 
   62200    291.16367   -827.74061    143342.54   -41005.661    3998.4318   -45004.092    659.01169   0.96165809 
   62300    290.17459   -970.49363    143172.05   -41009.831    3984.8492    -44994.68    659.53557   0.96280329 
   62400    290.59338   -906.62038    142733.83   -41078.865    3990.6003   -45069.466    659.15949   0.96575926 
   62500    291.79931   -957.45804    142782.77    -41062.36    4007.1608   -45069.521    660.16451   0.96542822 
   62600    290.31704    -1149.558    142830.75   -41030.344    3986.8055   -45017.149    660.96082   0.96510392 
   62700    292.48156   -712.04212    142928.82   -40991.668    4016.5298   -45008.197    662.41839   0.96444171 
   62800    292.23469   -963.92837    142931.74   -41044.683    4013.1398   -45057.823    663.40117   0.96442205 
   62900    286.69517   -972.89772    143184.05    -40989.17    3937.0678   -44926.238    665.38333   0.96272255 
   63000    293.44882   -1020.2622    143402.19   -40989.322    4029.8129   -45019.135    667.34266   0.96125813 
   63100    293.86647    -958.3899    143241.49       -41009    4035.5483   -45044.548    667.68207    0.9623365 
   63200    290.20671   -1050.8997    143299.94   -40980.412    3985.2903   -44965.703     668.9307   0.96194399 
   63300    290.83194   -805.70561    143601.97   -41078.492    3993.8763   -45072.368    671.24593    0.9599208 
   63400    281.77465   -1069.9306    142982.81   -41141.264    3869.4963    -45010.76     670.1329   0.96407753 
   63500    289.33808   -1242.2186    142720.64   -40982.123    3973.3618   -44955.485    670.25155   0.96584847 
   63600    289.81737    -986.8435    142757.14   -40973.447    3979.9437   -44953.391    670.85603   0.96560154 
   63700    285.27425    -1074.044    142556.67   -41047.951    3917.5548   -44965.506    671.69658   0.96695942 
   63800    294.68957   -958.25779    142555.84    -41061.66    4046.8516   -45108.512    673.02161   0.96696507 
   63900    286.02631   -970.83281    142661.61   -41026.075    3927.8826   -44953.958    674.61831   0.96624814 
   64000    290.73016   -1103.6151    142853.77   -41087.015    3992.4787   -45079.494    675.19305   0.96494838 
   64100    287.72144   -938.69794    142933.85   -41070.816    3951.1611   -45021.977    676.27722   0.96440776 
   64200     288.8978   -1044.3952    143129.67   -41080.239    3967.3156   -45047.555    677.03018   0.96308833 
   64300     287.4917   -856.78091    143113.52   -41130.518    3948.0062   -45078.524    677.39121   0.96319703 
   64400    286.57583   -1054.2842     142702.8   -41148.943     3935.429   -45084.372    676.87324   0.96596923 
   64500     287.9534   -873.10479    142791.39   -41183.337    3954.3466   -45137.684     677.4022   0.96536998 
   64600    289.09631   -900.95006    142624.01   -41119.176    3970.0417   -45089.217    677.46929   0.96650287 
   64700    293.01535    -704.1801    142692.37   -41017.322    4023.8602   -45041.182    678.27122   0.96603989 
   64800    296.15593   -947.57335    142766.14   -40932.471    4066.9885    -44999.46    679.63642   0.96554065 
   64900    292.11955   -1058.9191     142612.2    -40976.71    4011.5586   -44988.269    679.84794    0.9665829 
   65000    295.13526   -925.44231    142672.75   -41015.157    4052.9721   -45068.129    681.61828   0.96617272 
   65100    288.52086   -1136.9013    142682.77   -41129.116    3962.1393   -45091.255    682.30622   0.96610489 
   65200     292.5636   -1090.2657    142751.99   -41064.556    4017.6565   -45082.212    684.08363   0.96563641 
   65300    289.64246   -1072.3845    142952.36   -41076.275    3977.5417   -45053.816    684.47946   0.96428293 
   65400    288.10693   -1095.4141    143087.13   -41141.675    3956.4549    -45098.13    684.83882   0.96337468 
   65500    293.08719   -1110.5115    142736.67   -41060.929    4024.8467   -45085.776    685.53683   0.96574003 
   65600    292.53058   -1194.8591    142869.86   -41002.726    4017.2031   -45019.929    686.13924   0.96483975 
   65700    292.13261    -1289.069    142828.15   -41001.847    4011.7379   -45013.585    686.22064   0.96512149 
   65800    284.16352    -850.6498    142742.68   -41060.255    3902.3016   -44962.557    687.44533   0.96569935 
   65900    292.05421   -1156.7193    143115.16   -41003.203    4010.6613   -45013.864    689.69076   0.96318598 
   66000    291.37154    -994.4254    142943.13   -41024.164    4001.2864   -45025.451    690.49831   0.96434515 
   66100    293.56727   -978.79728    143139.61   -41031.157    4031.4394   -45062.596    692.53406   0.96302143 
   66200    297.02055   -1187.8974    143042.32   -40975.409     4078.862   -45054.271    692.62244   0.96367643 
[...]
   84600     286.7343   -847.19886    142977.05   -41050.946    3937.6051   -44988.551     893.0294   0.96411636 
   84700    290.76475   -1266.3239     143174.3   -41089.379    3992.9537   -45082.333    894.09469   0.96278811 
   84800    291.35566   -1088.8546    143103.21   -41049.992    4001.0684    -45051.06    895.09346   0.96326639 
   84900    294.94367   -1252.3482    143466.19   -41017.827     4050.341   -45068.168    897.11836   0.96082926 
   85000    284.87568   -1034.2255    143215.32   -41028.587    3912.0815   -44940.669    897.09422   0.96251237 
   85100    290.97312   -1013.0564    143039.85   -41014.369    3995.8151   -45010.184    896.73465   0.96369311 
   85200    297.55737   -1020.8332    142884.85    -41001.64    4086.2339   -45087.874    897.26361    0.9647385 
   85300    292.56954   -1170.3568    143032.38   -41004.259    4017.7381   -45021.998    898.04824    0.9637434 
   85400    285.20427   -1064.1382    143139.23   -40975.061    3916.5939   -44891.655     899.3018     0.963024 
   85500    291.12732   -1067.8303    143160.32   -40978.074    3997.9327   -44976.007    900.60477   0.96288217 
   85600    289.62991   -814.71242    143013.17   -40933.303    3977.3693   -44910.672     900.3824   0.96387287 
   85700    289.35264   -1092.7401    143057.02   -40914.643    3973.5617   -44888.204    901.75097   0.96357744 
   85800    292.65477     -757.047     142817.9   -40942.741    4018.9085    -44961.65    901.05693   0.96519075 
   85900    291.73071   -1068.2974    142911.52   -41000.077    4006.2188   -45006.295    902.60791   0.96455846 
   86000    289.85705   -1109.3298    142890.74   -40979.841    3980.4886    -44960.33    902.90308   0.96469873 
   86100    288.47812   -911.28109    142672.08   -41030.206    3961.5523   -44991.759    902.53701   0.96617725 
   86200    293.20944   -1189.8754    142831.81   -41011.874    4026.5256     -45038.4    904.58279   0.96509678 
   86300    295.49171   -981.22351     142648.1       -41050    4057.8671   -45107.867     905.1942   0.96633963 
   86400    293.66866   -840.25157    142601.11   -41026.214    4032.8318   -45059.046     906.1396   0.96665812 
   86500    292.75782   -1006.5385    142639.22   -40989.534    4020.3236   -45009.858    908.11312   0.96639984 
   86600    294.04556   -1225.4994    142778.05   -41027.915    4038.0076   -45065.922    908.99557   0.96546018 
   86700    289.19894   -1119.2305    142736.87   -41040.769     3971.451    -45012.22    911.26642   0.96573872 
   86800    295.02492   -648.07349    142774.25   -40968.235    4051.4568   -45019.691     912.4171   0.96548587 
   86900    286.38309   -1040.4362    142825.07   -40995.182    3932.7821   -44927.964    913.91507   0.96514227 
   87000    289.27172   -978.93285    142789.61   -40990.752    3972.4504   -44963.203     914.7376   0.96538198 
   87100    290.66672   -811.71901     142997.8   -41030.357    3991.6074   -45021.964    916.68911   0.96397649 
   87200    290.11087   -960.83446    143016.35   -41056.196    3983.9742    -45040.17    916.63084   0.96385144 
   87300    294.34668   -748.03391    143139.21   -40910.808    4042.1428    -44952.95    918.58292   0.96302416 
   87400     289.0901   -949.16234    143188.16   -40975.507    3969.9564   -44945.463    918.64765   0.96269491 
   87500    288.63615   -1262.9917    143241.32   -41026.398    3963.7225    -44990.12    919.74691   0.96233766 
   87600    290.14633   -828.59831    143407.72   -41026.097    3984.4612   -45010.559    921.68345   0.96122104 
   87700    288.54942   -1042.1148    143243.14   -41017.292    3962.5314   -44979.823      922.042   0.96232545 
   87800    291.60392   -1245.7729    143255.43   -40886.322    4004.4776   -44890.799    923.20589   0.96224287 
   87900    297.66554   -975.65202    143692.67   -40883.176    4087.7194   -44970.895     924.8561   0.95931487 
   88000    289.57295   -1054.5684    143837.12   -40856.362    3976.5872   -44832.949    926.48996   0.95835149 
   88100     296.7081   -1431.1619    143638.99   -40878.428    4074.5712   -44952.999    927.20873   0.95967338 
   88200     301.9625   -1034.7313    143347.03   -40821.382    4146.7278   -44968.109    926.70113   0.96162802 
   88300    295.15123   -934.76217    143175.65   -40854.751    4053.1914   -44907.943    927.19434   0.96277903 
   88400     292.6386   -970.37306    142797.63   -40946.587    4018.6864   -44965.273    926.23513   0.96532774 
   88500    291.49549   -1058.3239    142649.54   -40950.905    4002.9886   -44953.893    925.70555   0.96632988 
   88600    295.26472   -1164.8973    142749.48   -40942.035    4054.7499   -44996.785    927.76031    0.9656534 
   88700    292.53498   -814.58398    142598.74   -40958.145    4017.2634   -44975.409    927.21742   0.96667417 
   88800    295.11083   -678.72514    142881.88    -40958.94    4052.6366   -45011.576    929.13313   0.96475855 
   88900    293.86106   -1204.6584    142993.88   -41017.601     4035.474   -45053.075    930.30825   0.96400289 
   89000    287.71678   -882.58189    142820.81   -40984.248    3951.0971   -44935.345    930.13049   0.96517107 
   89100    293.12064   -930.88338    142908.36   -40953.777    4025.3062   -44979.083    931.75385   0.96457978 
   89200    290.78906   -1029.1734    142822.74   -41084.466    3993.2875   -45077.753    930.81281   0.96515804 
   89300    291.16022   -1012.2822    142728.81   -41064.525    3998.3845    -45062.91    930.81521   0.96579323 
   89400    285.01884   -1290.6998    142478.58    -40998.39    3914.0475   -44912.437    931.55995   0.96748937 
   89500    289.09481   -1206.7863    142660.77   -41086.631     3970.021   -45056.652     933.2082   0.96625384 
   89600    290.49636   -715.34077    142950.33   -41000.607     3989.268   -44989.875    935.37058    0.9642966 
   89700    288.94569   -1040.9568    143384.19   -40955.235    3967.9732   -44923.208    936.83244   0.96137876 
   89800    287.61138   -896.08526    143408.39    -40994.31    3949.6497    -44943.96    938.04687   0.96121654 
   89900     291.4906    -915.6707    143184.83   -41011.888    4002.9215   -45014.809    938.39218   0.96271736 
   90000    290.76081   -1151.8189    143389.74   -41017.668    3992.8996   -45010.568    940.52266   0.96134159 
   90100    294.91084   -1041.1266       143534   -40978.359    4049.8902   -45028.249    941.31849   0.96037538 
   90200    288.50126   -942.64629    143356.45   -41148.546    3961.8701   -45110.417    942.36797   0.96156483 
   90300    289.31001   -948.60784     143496.9   -41136.028    3972.9763   -45109.004    944.63076   0.96062366 
   90400    288.39687   -868.29694    143514.51   -41057.347    3960.4365   -45017.784    945.63173   0.96050577 
   90500     292.6185   -821.04278    143391.66    -40974.34    4018.4105    -44992.75    945.51204   0.96132866 
   90600    291.78351   -1124.0372    142940.05   -41039.813    4006.9439   -45046.757    944.85299   0.96436595 
   90700    297.87664   -1022.9452    142934.85    -41047.95    4090.6184   -45138.569    945.44714   0.96440104 
   90800    294.35577   -1110.2886    142678.29   -40992.679    4042.2677   -45034.947    945.41223   0.96613519 
   90900    288.53064   -1093.1817    142658.27   -41132.741    3962.2735   -45095.014    945.82523   0.96627076 
   91000     289.6863   -901.32006    142454.39   -41086.397    3978.1437   -45064.541    946.35447   0.96765367 
   91100    289.48808    -809.5309    142529.68   -41004.131    3975.4217   -44979.552    947.32294   0.96714253 
   91200    291.12426   -1190.2818    142511.53   -41030.597    3997.8907   -45028.488    948.34061   0.96726569 
   91300    291.86761   -988.13971    142408.91   -41045.014    4008.0988   -45053.113     949.1413   0.96796272 
   91400    294.42561   -1011.4442     142638.2   -41088.337    4043.2268   -45131.564    950.52567   0.96640671 
   91500    286.46967   -1159.9311    142935.64   -41062.434    3933.9711   -44996.405    951.64854    0.9643957 
   91600    292.08384   -1079.9984    142726.29   -41013.591    4011.0682   -45024.659    951.61957   0.96581026 
   91700    284.83778   -1282.3543    142496.14   -41107.063     3911.561   -45018.624    950.74397   0.96737019 
   91800    281.98928   -1074.1973    142459.79   -41175.174    3872.4437   -45047.618    950.61624   0.96761702 
   91900    285.46912   -792.69882     142310.8   -41091.382     3920.231   -45011.613    950.81843   0.96863006 
   92000    285.67527   -841.89792    142116.56   -41003.772    3923.0619   -44926.834    950.88756   0.96995394 
   92100     292.8466   -1101.9179    142069.18   -40967.198    4021.5429   -44988.741    951.79939   0.97027744 
   92200     294.7229   -1005.9647    142114.41   -40898.953    4047.3093   -44946.262    953.15577   0.96996862 
   92300    286.24325   -1130.2859    142324.71   -40902.227    3930.8618   -44833.088    955.32531   0.96853537 
   92400    297.96028   -869.95435    142655.57   -40936.459     4091.767   -45028.226    958.30614   0.96628906 
   92500    293.18747   -1133.6337    142647.08   -40883.148    4026.2239   -44909.372    959.29795   0.96634658 
   92600     290.2392   -942.21475    142419.77   -40921.357    3985.7365   -44907.094    959.68405   0.96788889 
   92700    287.56955   -1198.9567    142371.51   -40972.142    3949.0753   -44921.217    961.75535   0.96821703 
   92800    291.40827   -828.15955    142439.41   -40968.053    4001.7909   -44969.844     963.8838   0.96775543 
   92900    292.26794   -884.80639    142669.71    -40941.94    4013.5964   -44955.537    965.41888   0.96619326 
   93000    292.38918   -823.20287    142173.83    -40978.14    4015.2612   -44993.401    964.71551    0.9695632 
   93100    296.60274   -1063.7196    142249.48   -40971.603    4073.1243   -45044.727    965.96312   0.96904759 
   93200    295.54649   -1225.8138    142457.44   -40953.665    4058.6193   -45012.284    968.95032   0.96763301 
   93300    297.39186   -1092.2833    142253.94   -40852.339     4083.961     -44936.3    969.02014   0.96901723 
   93400    290.82779   -972.11769    142464.97   -40965.245    3993.8194   -44959.064    969.35218   0.96758182 
   93500      292.693   -864.07045    142615.59   -41022.735    4019.4336   -45042.168    970.81545   0.96655998 
   93600    294.08894   -971.12647    142852.12   -41034.003    4038.6034   -45072.606     973.1174   0.96495951 
   93700    288.93191   -842.60736    142501.45    -41037.97     3967.784   -45005.754    972.10163   0.96733412 
   93800    295.43649   -1146.7369    142455.54   -40910.321    4057.1088    -44967.43    973.97389   0.96764587 
   93900    289.01513   -1027.0381    142363.57   -41032.857    3968.9268   -45001.784    974.31589   0.96827101 
   94000    288.46607   -1030.2424    142227.74    -41047.09    3961.3868   -45008.477    974.01534   0.96919574 
   94100     293.3455    -1041.207    142068.03   -41092.735     4028.394   -45121.129    974.10399   0.97028528 
   94200    288.62591   -873.37821    142382.72   -41090.838    3963.5819    -45054.42    976.61128   0.96814079 
   94300    291.15629   -1067.4657    142313.99   -41028.849    3998.3306   -45027.179    977.57972   0.96860831 
   94400    288.26769   -1012.3599    142143.66   -41030.275    3958.6625   -44988.937    978.48293     0.969769 
   94500    286.76585   -1067.6624    142202.75   -41043.214    3938.0384   -44981.253    978.93367   0.96936603 
   94600    288.21324   -852.13512    142491.97   -41105.936    3957.9149   -45063.851    981.44622   0.96739848 
   94700    292.71502   -1119.3777    142631.21    -41002.27    4019.7359   -45022.006    982.69891   0.96645409 
   94800    290.26374   -1093.4625    142627.77   -40965.519    3986.0735   -44951.593    983.83864   0.96647738 
   94900    288.23776   -1136.3003    142557.56   -40964.517    3958.2515   -44922.769     985.8286    0.9669534 
   95000     289.4691   -1007.5638    142794.33   -40951.529     3975.161    -44926.69    987.43333   0.96535004 
   95100    292.78818   -1026.0202    143252.47   -40929.716    4020.7406   -44950.457    990.42624   0.96226277 
   95200    295.38731   -1057.8522    143115.65   -40944.066    4056.4334   -45000.499    989.13045   0.96318268 
   95300    291.07523    -1040.823    142859.37   -41009.512    3997.2173   -45006.729    989.11923   0.96491058 
   95400    291.41989   -1059.4243     142651.7   -41025.093    4001.9504   -45027.043    989.48418    0.9663153 
   95500    288.28759   -996.67884     142658.9   -41040.779    3958.9358   -44999.715    990.07979   0.96626648 
   95600    285.57872   -1203.9596    142762.11   -41119.705    3921.7361   -45041.441    991.21821   0.96556793 
   95700    292.25464    -1289.289    143019.16   -41068.414    4013.4137   -45081.828      993.166   0.96383248 
   95800    290.78749   -970.44308    142911.87   -41038.123    3993.2659   -45031.389    993.92126   0.96455608 
   95900    292.23221   -850.07814    142891.44   -41046.764    4013.1057   -45059.869    994.25991   0.96469399 
   96000    293.74502   -1091.1144     142552.2   -41031.251    4033.8805   -45065.132    993.06954   0.96698974 
   96100    290.79805   -973.36374    142581.79   -41012.376     3993.411   -45005.787    994.37359   0.96678906 
   96200    289.27666   -958.83245    142676.96    -41024.34    3972.5183   -44996.859    995.32963   0.96614418 
   96300    289.51109   -1121.1968    142936.55   -40949.882    3975.7377    -44925.62    997.27501   0.96438959 
   96400    292.32034   -901.71665    142789.04   -41021.919    4014.3159   -45036.235    997.37194   0.96538586 
   96500    290.01325   -1196.7115    142754.51   -40998.653    3982.6336   -44981.286    997.76632   0.96561933 
   96600    295.74651   -976.94503    142684.15   -40936.239    4061.3662   -44997.605    999.00961   0.96609552 
   96700    295.94522   -886.87522    142549.68   -40921.251    4064.0949   -44985.346    999.01687   0.96700688 
   96800    293.76429   -1282.5747    142503.56    -40898.16    4034.1452   -44932.305    999.50927   0.96731982 
   96900    293.46461   -1183.1568    142500.18   -40962.335    4030.0297   -44992.364    1000.1291   0.96734278 
   97000     294.7138   -665.55625    142498.62   -40978.233    4047.1843   -45025.417    1000.1238   0.96735336 
   97100    295.98701   -914.72603    142765.15   -40989.375    4064.6688   -45054.044    1002.6589   0.96554735 
   97200    296.53807   -1108.0257    142779.71   -41004.899    4072.2363   -45077.136    1003.2105   0.96544893 
   97300     289.0954   -931.33891    142689.63   -41025.263    3970.0292   -44995.292    1003.3922    0.9660584 
   97400    289.40206   -1108.1778    142634.96   -41013.907    3974.2403   -44988.147    1005.1259   0.96642866 
   97500    287.99757   -846.75062    143008.39   -41021.337    3954.9531    -44976.29    1006.4999   0.96390507 
   97600    291.54997    -1044.502    142963.14   -40982.021    4003.7368   -44985.758    1007.2119    0.9642102 
   97700    288.17873   -1229.1502    142589.98    -41047.38    3957.4409   -45004.821    1006.6521   0.96673352 
   97800    286.07568   -881.62072    142450.74   -41023.101    3928.5606   -44951.662    1006.7987   0.96767846 
   97900    292.16382   -997.38164    142711.79   -40939.997    4012.1665   -44952.164    1008.4896   0.96590841 
   98000    292.34467   -1209.7207    142845.47   -40869.969    4014.6501   -44884.619    1010.6603   0.96500447 
   98100    292.16681   -1031.3364    142861.52   -40941.379    4012.2076   -44953.586    1012.0693   0.96489603 
   98200    290.17016   -980.44211    142760.28   -40908.592    3984.7884    -44893.38    1012.5745   0.96558031 
   98300    290.92505   -1141.0253    142687.48   -40844.218     3995.155   -44839.373    1012.9426   0.96607294 
   98400     294.1479   -996.11566    142683.17   -40873.951    4039.4131   -44913.364    1014.8127   0.96610215 
   98500     293.3749   -995.35382    142368.23    -40915.12    4028.7978   -44943.918    1013.4228   0.96823928 
   98600    290.49075   -1012.4623    142618.04   -40940.317     3989.191   -44929.508    1015.6396   0.96654336 
   98700    290.79088   -1209.7799    142586.48    -40965.72    3993.3125   -44959.032    1016.6767   0.96675728 
   98800    288.50383   -1303.5757    142552.76   -40935.185    3961.9053    -44897.09    1018.2331   0.96698599 
   98900     294.1085   -1104.4008    142574.66   -40921.876    4038.8721   -44960.748    1018.9244   0.96683745 
   99000    293.76633   -898.34298    142286.76   -40840.423    4034.1732   -44874.596    1018.8424   0.96879369 
   99100    293.68841   -742.19142    142413.02   -40905.032    4033.1031   -44938.135    1020.1083   0.96793482 
   99200    290.55839   -931.99828    142487.99   -40937.917    3990.1199   -44928.037     1021.239    0.9674255 
   99300    290.67038   -1117.6449    142435.71   -40973.689    3991.6577   -44965.347    1021.5116   0.96778059 
   99400    298.41853     -849.736    142738.49   -40886.491    4098.0599   -44984.551     1024.144   0.96572774 
   99500    287.37073   -1217.4637    142553.69   -40956.039    3946.3449   -44902.383    1023.8892   0.96697962 
   99600    289.01152   -818.77981    142516.71   -40979.118    3968.8772   -44947.995    1026.1821   0.96723056 
   99700     289.7802   -884.76415    142636.91   -40925.992    3979.4333   -44905.425    1029.3651   0.96641547 
   99800    294.19371   -1158.7783    142101.23   -40959.064    4040.0422   -44999.106    1028.1068   0.97005857 
   99900    296.43057   -1087.6523     142134.9   -40951.722      4070.76   -45022.482    1028.4923   0.96982877 
  100000    294.68814   -971.26813    142124.93   -41020.248     4046.832    -45067.08     1029.257   0.96989684 
  100100    289.26736   -825.88593    142231.64   -41031.691    3972.3906   -45004.082    1029.8317   0.96916917 
  100200    290.07945   -966.13001    141769.76   -40989.798    3983.5427    -44973.34    1029.8107   0.97232664 
  100300    298.02818   -1043.0491    141826.77   -40994.656    4092.6994   -45087.355     1031.467   0.97193584 
  100400    289.32843    -869.8006    142064.06   -41048.558    3973.2293   -45021.787    1033.0391   0.97031238 
  100500    290.89482   -720.32133    142351.22   -41045.991    3994.7398   -45040.731     1035.095   0.96835504 
  100600    289.66649   -1069.0194    142829.95   -41093.659    3977.8716    -45071.53    1038.0678   0.96510931 
  100671    292.82255   -1106.1529    142751.51    -41019.56    4021.2125   -45040.772    1038.6336   0.96563966 
Loop time of 111.831 on 6 procs for 100000 steps with 4608 atoms

Performance: 386.297 ns/day, 0.062 hours/ns, 894.207 timesteps/s
99.0% CPU use with 6 MPI tasks x no OpenMP threads

MPI task timing breakdown:
Section |  min time  |  avg time  |  max time  |%varavg| %total
---------------------------------------------------------------
Pair    | 92.829     | 93.379     | 94.387     |   5.5 | 83.50
Neigh   | 7.0393     | 7.1085     | 7.3126     |   3.5 |  6.36
Comm    | 7.3371     | 8.5572     | 9.2017     |  21.7 |  7.65
Output  | 0.17889    | 0.18005    | 0.18544    |   0.6 |  0.16
Modify  | 1.8974     | 1.9513     | 1.9844     |   2.2 |  1.74
Other   |            | 0.6551     |            |       |  0.59

Nlocal:        768.000 ave         781 max         756 min
Histogram: 2 0 0 1 0 1 0 0 0 2
Nghost:        1555.00 ave        1567 max        1546 min
Histogram: 1 1 0 1 1 0 1 0 0 1
Neighs:        0.00000 ave           0 max           0 min
Histogram: 6 0 0 0 0 0 0 0 0 0
FullNghs:      21547.3 ave       22009 max       21107 min
Histogram: 1 1 0 1 0 1 0 0 1 1

Total # of neighbors = 129284
Ave neighs/atom = 28.056424
Neighbor list builds = 7071
Dangerous builds = 0

undump              1
unfix               2
unfix               3
unfix               4


################################################
#######         Run Simulation         #########
################################################

reset_timestep      0
log                 log.run_${NAME}
log                 log.run_liq_292K_-1000atm_ML
