

read_data data.ice_${TEMP}K_${PRES}atm_ML group ice
read_data data.ice_292K_${PRES}atm_ML group ice
read_data data.ice_292K_-1000atm_ML group ice
Reading data file ...
  orthogonal box = (-0.087768021 -0.078016019 -0.078016019) to (57.358278 50.985136 50.985136)
  3 by 1 by 2 MPI processor grid
  reading atoms ...
  4608 atoms
  reading velocities ...
  4608 velocities
  read_data CPU = 0.021 seconds
read_data data.liq_${TEMP}K_${PRES}atm_ML add append shift ${X_HI} ${YZ_LO} ${YZ_LO} group water
read_data data.liq_292K_${PRES}atm_ML add append shift ${X_HI} ${YZ_LO} ${YZ_LO} group water
read_data data.liq_292K_-1000atm_ML add append shift ${X_HI} ${YZ_LO} ${YZ_LO} group water
read_data data.liq_292K_-1000atm_ML add append shift 50.9851360188979 ${YZ_LO} ${YZ_LO} group water
read_data data.liq_292K_-1000atm_ML add append shift 50.9851360188979 0.0780160188983707 ${YZ_LO} group water
read_data data.liq_292K_-1000atm_ML add append shift 50.9851360188979 0.0780160188983707 0.0780160188983707 group water
Reading data file ...
  orthogonal box = (-0.087768021 -0.21299695 -0.21299695) to (104.59961 51.276149 51.276149)
  3 by 1 by 2 MPI processor grid
  reading atoms ...
  4608 atoms
  reading velocities ...
  4608 velocities
  read_data CPU = 0.021 seconds

write_data data.icewater_test
System init for write_data ...
WARNING: Communication cutoff is 0.0. No ghost atoms will be generated. Atoms may get lost. (../comm_brick.cpp:167)

# Define potential
#
pair_style sw
pair_coeff * * /data/emrosky-sim/Freezing_Simulations/Melting/MLmW_fancy/ML_mW.sw mW
Reading sw potential file /data/emrosky-sim/Freezing_Simulations/Melting/MLmW_fancy/ML_mW.sw with DATE: 2019-02-27

# Delete water and ice atoms that are overlapping
#
delete_atoms overlap 2.5 water ice
System init for delete_atoms ...
Neighbor list info ...
  update every 1 steps, delay 10 steps, check yes
  max neighbors/atom: 2000, page size: 100000
  master list distance cutoff = 6.0032907
  ghost atom cutoff = 6.0032907
  binsize = 3.0016454, bins = 35 18 18
  2 neighbor lists, perpetual/occasional/extra = 1 1 0
  (1) command delete_atoms, occasional, copy from (2)
      attributes: full, newton on
      pair build: copy
      stencil: none
      bin: none
  (2) pair sw, perpetual
      attributes: full, newton on
      pair build: full/bin/atomonly
      stencil: full/bin/3d
      bin: standard
Deleted 696 atoms, new total = 8520

# set timestep
#
timestep 10.0

# Define output
#
compute 1 all msd
thermo 50
thermo_style custom step temp press vol etotal ke pe c_1[4]

# Neighbor lists
#
neigh_modify delay 0 every 1 check yes

# Set fixes
#
fix 1 all momentum 10 linear 1 1 1 rescale
fix 2 all nph iso ${PRES} ${PRES} ${PCOUPL}
fix 2 all nph iso -1000 ${PRES} ${PCOUPL}
fix 2 all nph iso -1000 -1000 ${PCOUPL}
fix 2 all nph iso -1000 -1000 10000.0
fix 3 all temp/csvr ${TEMP} ${TEMP} ${TCOUPL} 837492
fix 3 all temp/csvr 292 ${TEMP} ${TCOUPL} 837492
fix 3 all temp/csvr 292 292 ${TCOUPL} 837492
fix 3 all temp/csvr 292 292 5000.0 837492


# Fix ice atoms in place
#
velocity ice set 0.0 0.0 0.0
fix 4 ice setforce 0.0 0.0 0.0

# Run 1.0 ns equilibration of water
#
dump 1 all atom 1000 eq.all.${NAME}.dump
dump 1 all atom 1000 eq.all.coexist_292K_-1000atm_ML.dump
run 100000
Neighbor list info ...
  update every 1 steps, delay 0 steps, check yes
  max neighbors/atom: 2000, page size: 100000
  master list distance cutoff = 6.0032907
  ghost atom cutoff = 6.0032907
  binsize = 3.0016454, bins = 35 18 18
  1 neighbor lists, perpetual/occasional/extra = 1 0 0
  (1) pair sw, perpetual
      attributes: full, newton on
      pair build: full/bin/atomonly
      stencil: full/bin/3d
      bin: standard
Per MPI rank memory allocation (min/avg/max) = 4.589 | 4.598 | 4.605 Mbytes
Step Temp Press Volume TotEng KinEng PotEng c_1[4] 
       0    134.03986   -1884.3495    277540.08    -83336.92    3403.7439   -86740.664            0 
      50    160.70589   -1463.6402    275822.92   -83010.113    4080.8883   -87091.001   0.86045754 
     100    166.45533   -811.70637    272889.75   -82746.281     4226.887   -86973.168    1.8016068 
     150    173.93986   -551.15368    271762.28   -82432.585    4416.9453    -86849.53    2.8468626 
     200    174.39552   -845.67337    272454.71   -82121.446    4428.5163   -86549.962    3.8795701 
     250    182.61386   -1109.4152    273559.89   -81823.111    4637.2088    -86460.32    4.9674004 
     300    184.52846   -1112.1518    274165.65   -81519.103    4685.8272   -86204.931    6.1694421 
     350    195.20932   -1099.8021    274402.07   -81202.467    4957.0519   -86159.518    7.4315196 
     400    194.22941   -1178.1392     274177.1   -81010.095    4932.1685   -85942.264    8.8262257 
     450    201.46754   -886.83973    273689.39   -80792.721    5115.9701   -85908.691      10.3128 
     500    201.37849   -872.83624    274028.56   -80573.905    5113.7088   -85687.614    11.851259 
     550     208.7943    -830.8426    274591.89    -80375.92    5302.0223   -85677.942    13.508218 
     600    210.37628   -1132.3482    274946.86   -80159.932    5342.1944   -85502.127    15.147042 
     650     214.0924   -918.67384    275046.37   -79986.222    5436.5599   -85422.782    16.963359 
     700    215.99139   -1075.3485    275529.11   -79749.883    5484.7819   -85234.665    18.620858 
     750    223.33426   -956.25033    275778.75   -79585.154    5671.2431   -85256.397    20.436282 
     800    225.03574   -1154.0466    275591.82   -79412.354    5714.4496   -85126.804    22.333497 
     850    225.59568   -835.67113    275412.29    -79277.01    5728.6687   -85005.679    24.320017 
     900     229.1204   -980.61002    275538.56   -79128.788    5818.1736   -84946.961    26.669146 
     950    231.92338   -1157.2061    275932.23   -78980.956    5889.3512   -84870.307    28.751626 
    1000    236.86095   -841.31497    276372.88   -78791.612    6014.7334   -84806.345    30.852822 
    1050    239.08817    -1036.743    276928.95   -78667.202    6071.2904   -84738.492    33.013235 
    1100    243.78577    -702.3518    276889.32   -78506.379     6190.579   -84696.958    35.350303 
    1150    243.18425   -1039.9878    276738.75   -78341.765    6175.3043    -84517.07    37.866191 
    1200    244.83478    -968.7604     276457.9   -78262.659     6217.217   -84479.876    40.217532 
    1250    251.08642   -949.96861    276377.62   -78152.484    6375.9682   -84528.453    42.533405 
    1300     244.9626   -543.07866       276603   -78080.995    6220.4629   -84301.458    45.312803 
    1350    248.19794     -1142.72    277465.35   -77904.955    6302.6196   -84207.575    47.940723 
    1400    251.65704   -1149.5869     277889.3   -77787.018    6390.4582   -84177.476    50.719901 
    1450    251.67005   -1025.9386    277688.72   -77661.876    6390.7886   -84052.665     53.59268 
    1500    253.28102   -958.12395    277222.68   -77628.892     6431.697   -84060.589    56.548451 
    1550    257.97342   -1124.6299    277161.66   -77517.659    6550.8534   -84068.512    59.292327 
    1600    254.88394   -983.68713    277503.73   -77430.047    6472.4007   -83902.447    62.421306 
    1650    260.76723   -1007.4161    277851.41   -77365.645    6621.7981   -83987.443    65.581795 
    1700    261.17138   -1055.9289    277964.28   -77283.776    6632.0609   -83915.837    68.099894 
    1750    262.79733   -927.13006    277658.26   -77186.017    6673.3494   -83859.367    71.010931 
    1800    262.60225   -1002.6008    277729.11   -77142.707    6668.3958   -83811.103    74.088372 
    1850     267.1878   -985.43236     278053.4   -77033.376    6784.8389   -83818.215    77.081474 
    1900     265.8454   -1093.2201    278465.17   -76958.752    6750.7507   -83709.503    79.957715 
    1950    273.38104   -1222.5031    278664.79   -76885.662     6942.107   -83827.769    82.247372 
    2000    269.03538   -950.19184    278396.23   -76785.614    6831.7556    -83617.37    84.978784 
    2050    272.38131   -938.45895    278165.89   -76750.573    6916.7204   -83667.294    87.475341 
    2100    268.17409   -848.41252    278228.95   -76699.962    6809.8845   -83509.847    90.237928 
    2150    273.10029   -786.97294    278405.16   -76597.576    6934.9778   -83532.554    93.421023 
    2200    274.73789   -868.54507    278656.83   -76533.053    6976.5623   -83509.616     96.28502 
    2250    277.57644   -1060.2695    278933.09   -76503.771     7048.643   -83552.414    99.417174 
    2300    274.74094   -964.41352    279116.32   -76469.219    6976.6397   -83445.859    102.27289 
    2350     278.8331   -1138.8508    279166.33   -76392.124     7080.554   -83472.678    105.06145 
    2400    277.15101   -1132.0835     278791.7   -76401.025    7037.8399   -83438.865    107.93021 
    2450    281.01536   -691.61723    278273.25   -76428.991    7135.9695   -83564.961    110.73136 
    2500    277.56381   -792.97937    278390.05   -76432.122    7048.3224   -83480.445    113.40621 
    2550    280.04778   -1107.3202    278910.68   -76335.086    7111.3991   -83446.485    117.37204 
    2600    278.98938    -1164.116    279141.73   -76336.822    7084.5226   -83421.345    120.80423 
    2650    279.16156   -1372.8135    278993.48    -76339.81    7088.8949   -83428.705    123.90175 
    2700    279.69967   -786.66978    278335.65   -76300.333    7102.5595   -83402.892    127.04729 
    2750    281.11115   -813.72526    278338.03   -76265.384    7138.4018   -83403.785    130.71219 
    2800    277.54898   -992.24151    279022.33   -76280.292    7047.9458   -83328.237    133.53121 
    2850    287.53495   -1010.4746     279372.8   -76238.681    7301.5248   -83540.206    136.95064 
    2900    279.78705   -1234.2236    279342.83   -76190.204    7104.7784   -83294.982    140.18342 
    2950    284.01415   -956.42566    278886.66   -76190.289    7212.1192   -83402.408    143.52568 
    3000    290.57089   -776.83926    278406.02   -76201.513    7378.6181   -83580.131    146.75783 
    3050    289.69408    -859.2608    278530.84   -76177.737    7356.3526   -83534.089    149.89965 
    3100    284.56278   -1103.1525    279246.58   -76092.124    7226.0508   -83318.175    153.63097 
    3150    288.87027   -1314.9276    280043.99   -76036.943    7335.4333   -83372.376    157.32235 
    3200    284.87229   -1271.4139    280179.97   -75992.173    7233.9104   -83226.083    160.51506 
    3250    286.25446   -1099.4241    279698.43   -75969.259    7269.0086   -83238.268    163.26313 
    3300    286.34847   -899.61588    279012.74   -75995.942    7271.3958   -83267.338    166.33817 
    3350    285.74445   -1206.2421    278728.42   -76020.263    7256.0577   -83276.321     169.0909 
    3400    281.25691   -839.98792    278421.91   -76030.056    7142.1031   -83172.159    171.76571 
    3450    288.51429    -1265.886    278740.59   -76081.577    7326.3935    -83407.97    174.64112 
    3500    281.19891   -1191.7026    279268.28   -76070.719    7140.6304    -83211.35    178.38644 
    3550    283.24712   -1340.5792    279706.42   -76047.992    7192.6415   -83240.633     181.5853 
    3600    280.89557   -961.20107    279632.56   -76024.421    7132.9275   -83157.348    184.78931 
    3650    280.79289   -1412.6673    279398.55   -76003.474      7130.32   -83133.794    187.69773 
    3700    283.66971   -590.86814    278870.26   -75964.785    7203.3727   -83168.158    190.64544 
    3750    291.60497   -884.12385    278764.77   -75869.621     7404.877   -83274.498    193.99572 
    3800    286.94478   -914.92421    279291.64   -75858.688    7286.5383   -83145.226    197.87332 
    3850    289.34162    -976.1828    279586.24   -75804.534    7347.4023   -83151.936    201.55903 
    3900    290.03694    -647.1768    279393.28   -75776.475    7365.0592   -83141.534    205.43323 
    3950    293.01827    -926.8022    279570.41   -75771.206    7440.7656   -83211.972    208.91632 
    4000    294.63061   -933.54624    279614.63   -75831.747    7481.7086   -83313.455    212.05247 
    4050     285.9674   -882.94824    279561.04   -75832.085     7261.719   -83093.804    216.01966 
    4100    285.47443   -875.20611    279487.73   -75817.148     7249.201   -83066.349     219.0532 
    4150    287.45222   -905.43655    279342.37   -75861.832     7299.424   -83161.256     222.1685 
    4200    293.68077   -1005.1543    279247.22   -75830.501    7457.5888    -83288.09    225.86668 
    4250    288.90955   -1123.0769     279454.5   -75797.664    7336.4307   -83134.095    229.67669 
    4300    289.65343   -951.19326    279602.13    -75774.47    7355.3205   -83129.791    232.89157 
    4350    288.48797   -1058.1275    279555.96   -75775.429    7325.7254   -83101.155     235.3425 
    4400    290.07229    -1017.141    279309.31   -75802.906    7365.9568   -83168.863    237.66376 
    4450    292.69258   -1076.0285    279225.13   -75781.637     7432.495   -83214.132    240.35799 
    4500    295.18027   -1007.2631    279133.89   -75771.844    7495.6662    -83267.51    243.17872 
    4550    289.97129   -913.30826    279181.75   -75764.176    7363.3919   -83127.568    246.94638 
    4600    292.69828   -859.72357    279310.62   -75731.034    7432.6399   -83163.674    250.73944 
    4650    291.70145   -1227.2487     279599.3   -75735.042    7407.3268   -83142.369     253.4429 
    4700    290.34611   -1052.7968    279757.68   -75720.501    7372.9099   -83093.411    256.18798 
    4750    289.05189   -1016.7861    279565.03   -75749.461    7340.0451   -83089.506    258.27244 
    4800    290.75222   -985.87856    279682.28   -75716.739    7383.2225   -83099.961    261.88772 
    4850     292.6857   -1260.0355    279808.28   -75675.973    7432.3204   -83108.293    264.49763 
    4900    295.00597   -1063.6025    279614.69   -75684.844    7491.2401   -83176.084    266.76971 
    4950    292.09697   -920.05703    279451.25   -75696.634    7417.3705   -83114.005    268.75252 
    5000    296.00286   -1236.4716    279442.18   -75692.004    7516.5547   -83208.559      271.286 
    5050    289.43838   -1212.8962    279460.39   -75696.188    7349.8596   -83046.048    273.93696 
    5100    288.31348   -968.45511    279438.95   -75679.426    7321.2944    -83000.72     277.3029 
    5150    291.06071    -938.9311    279477.26   -75704.655    7391.0561   -83095.711    280.87621 
    5200    293.90747   -1066.0969    279522.17   -75652.798    7463.3454   -83116.144    284.09291 
    5250    288.67913   -857.77079    279645.21   -75622.538    7330.5796   -82953.118    287.65941 
    5300    294.79482   -1183.1953    279661.44   -75573.585    7485.8784   -83059.463    290.61289 
    5350    297.40392   -674.13229     279570.4    -75571.07    7552.1327   -83123.203    292.99949 
    5400    295.48196   -1286.3472    279738.63   -75580.782    7503.3272    -83084.11    296.78518 
    5450    293.90415   -916.78902    279541.75   -75570.167    7463.2612   -83033.429    299.48493 
    5500    292.38629   -885.51854    279659.43   -75580.532    7424.7174    -83005.25    302.08767 
    5550    293.57699   -1120.2562    279817.89   -75613.157    7454.9533    -83068.11    305.47132 
    5600    297.42512   -1225.9374    279902.32   -75579.814     7552.671   -83132.485    309.87969 
    5650    294.66826   -1151.5506    279680.86   -75576.083    7482.6645   -83058.748    313.30737 
    5700    294.61251    -805.1936    279249.26   -75532.934    7481.2489   -83014.183    315.82621 
    5750    300.43097   -976.30989    279225.96   -75572.916         7629   -83201.916    319.20013 
    5800     292.2909   -1209.4766     279494.3   -75592.141     7422.295   -83014.436    322.04107 
    5850    290.70126   -955.34943    279862.26    -75570.21    7381.9285   -82952.139    325.68739 
    5900     292.7961   -1234.3989    280409.44   -75522.462     7435.124   -82957.586    329.81899 
    5950     295.2405   -1007.3617    280438.68   -75491.658    7497.1958   -82988.854    333.56486 
    6000    293.38009   -881.84439    279930.23   -75545.202    7449.9534   -82995.155    335.79837 
    6050    292.08274   -1093.1263    279470.71   -75596.708    7417.0091   -83013.718    338.80366 
    6100    294.79391   -727.33489    279195.72   -75597.784    7485.8553   -83083.639    342.17309 
    6150    293.77726    -1048.788    279436.81   -75558.678     7460.039   -83018.717    345.73422 
    6200    299.54158   -1115.3869    279519.63   -75555.458    7606.4155   -83161.873    349.03693 
    6250    295.49612   -866.37226    279713.54   -75506.163    7503.6868   -83009.849    352.59698 
    6300    296.13023     -933.637     279855.3   -75505.272    7519.7892   -83025.061    355.90825 
    6350     293.1775   -1176.5984    280066.84   -75537.544    7444.8088   -82982.353    359.38303 
    6400     296.5267   -885.24815    279979.55   -75468.059     7529.857   -82997.916    363.10134 
    6450    295.09878     -869.104    280021.46   -75469.141    7493.5971   -82962.738    365.59525 
    6500    297.50002   -1180.3838    280115.04    -75460.63    7554.5728   -83015.202    368.63896 
    6550    296.83794   -1229.3331    280013.18   -75471.188    7537.7605   -83008.949    372.69444 
    6600    297.61152    -1026.448    279616.36   -75564.775    7557.4044    -83122.18    375.41144 
    6650    293.08931   -1004.4293    279393.42   -75596.359    7442.5694   -83038.928    377.93459 
    6700    298.07076   -1093.5203    279441.01    -75619.95    7569.0661   -83189.016     380.9607 
    6750    296.02861   -1214.5729    279812.36   -75643.858    7517.2086   -83161.067    384.19633 
    6800    289.97202   -939.83791    279808.09   -75643.802    7363.4105   -83007.213    386.34634 
    6850    290.60795   -906.62325    279463.84   -75660.601    7379.5591    -83040.16    388.58234 
    6900    294.29281   -992.93901    279162.37   -75685.636    7473.1306   -83158.766    392.10275 
    6950     294.0019   -782.83247    279069.11   -75666.737    7465.7433    -83132.48    395.87053 
    7000    294.21491     -885.601    279325.15   -75653.625    7471.1524   -83124.777    398.79777 
    7050    295.29574   -899.95325    279956.09   -75632.787    7498.5985   -83131.385    401.33616 
    7100    289.51706   -1400.4944    280713.06   -75567.738    7351.8576   -82919.596    405.88901 
    7150    295.06849        -1109    280524.53   -75581.973    7492.8278   -83074.801    408.18274 
    7200    297.32735   -938.96584    279956.67   -75561.007    7550.1883   -83111.195    410.08688 
    7250    290.86606   -900.95382    279289.25   -75523.742    7386.1133   -82909.855    411.53713 
    7300    292.52584   -655.69013    278955.96   -75525.518    7428.2609   -82953.779     413.6953 
    7350    293.05806   -860.48447     279490.1   -75540.698     7441.776   -82982.474    416.92265 
    7400    290.81158   -1193.7544    280078.77   -75534.808      7384.73   -82919.538    420.88388 
    7450    293.54198   -927.68913    280059.42   -75504.885    7454.0644   -82958.949    424.14093 
    7500    296.82074   -1281.5795    280088.57   -75536.803    7537.3236   -83074.127    428.57992 
    7550    297.15971   -1245.3192    280036.75   -75586.993    7545.9313   -83132.924    431.92223 
    7600    292.09904   -751.56737    279798.71     -75597.5     7417.423   -83014.923    434.50548 
    7650    293.34894   -1038.8673    279787.28   -75569.573    7449.1624   -83018.735    437.64803 
    7700    288.28403   -998.79789    279732.41   -75569.684    7320.5465   -82890.231     441.0984 
    7750    291.59232    -1019.002    279654.99   -75591.708    7404.5557   -82996.264      443.746 
    7800    292.93754   -1021.6222     279708.8   -75640.218    7438.7155   -83078.934    446.50741 
    7850    290.84322    -812.6391    279572.57   -75627.484    7385.5334   -83013.017    447.91622 
    7900    295.40983   -1147.8474     279872.5   -75582.435    7501.4958   -83083.931    450.89398 
    7950    292.61498   -1128.9919    279948.48   -75602.056    7430.5246   -83032.581    453.76004 
    8000    294.12137   -1194.7365     279628.4   -75598.362    7468.7772    -83067.14    455.79219 
    8050    297.52593    -1102.332    278939.94   -75627.491    7555.2309   -83182.722    457.33993 
    8100    295.04431   -843.25283    278527.61   -75669.933    7492.2138   -83162.147    459.49104 
    8150    289.05762   -824.82898    279062.79   -75711.238    7340.1906   -83051.429    461.98482 
    8200    290.15173   -1187.4399    279993.98   -75657.181    7367.9741   -83025.155     466.8343 
    8250    292.22183   -1208.2504    280337.23   -75652.482     7420.541   -83073.023    470.55362 
    8300    293.32699   -1098.1525    279896.89   -75633.054    7448.6051   -83081.659    472.00636 
    8350    292.85421    -869.6793    279074.98   -75718.218    7436.5996   -83154.818    474.70703 
    8400     292.1962   -692.91527     278587.2    -75739.83    7419.8903    -83159.72    477.36407 
    8450    291.86996   -755.32479    278773.36   -75731.444    7411.6058    -83143.05    480.20552 
    8500    294.41957   -1110.8366    279404.55   -75669.997    7476.3494   -83146.346    484.57458 
    8550    296.15373   -969.49931    280006.62    -75624.75    7520.3859   -83145.135    487.98397 
    8600    291.49991   -1118.7046    280225.48   -75616.586     7402.209   -83018.795    490.62835 
    8650    295.06795   -1082.9534    279769.31   -75571.085    7492.8142   -83063.899    492.50967 
    8700    291.65325    -930.8824    279196.02   -75550.058    7406.1029   -82956.161    495.19126 
    8750    289.75712   -783.65422    279312.66   -75527.412    7357.9533   -82885.365    498.91774 
    8800    293.10463   -902.81725    279762.17   -75505.434    7442.9584   -82948.392    502.18318 
    8850     292.9812    -817.5708    279993.23   -75479.041    7439.8241   -82918.865    506.23943 
    8900    292.83625   -886.59992    280319.34   -75477.827    7436.1434   -82913.971    509.74423 
    8950    293.37657   -1140.6452    280346.87   -75452.935    7449.8639   -82902.799    512.93945 
    9000    293.42081   -861.18157     279839.7   -75472.388    7450.9874   -82923.375     515.5824 
    9050     301.5567   -702.42207    279376.04   -75463.985    7657.5864   -83121.572    518.77405 
    9100     294.3704   -587.95216    279401.95   -75476.131    7475.1009   -82951.232    521.29026 
    9150    301.86481   -1037.9419    279668.98   -75500.617    7665.4102   -83166.027    523.70809 
    9200     294.2803   -928.98605    279731.53   -75448.358    7472.8129   -82921.171    526.19455 
    9250    295.60078   -1249.9267    279806.82   -75430.538    7506.3446   -82936.882     528.9164 
    9300    297.77599   -889.00132    279690.81   -75493.479    7561.5808    -83055.06    530.78383 
    9350    300.34782   -1087.2659    279464.79   -75506.576    7626.8887   -83133.465    532.66218 
    9400    291.67313   -846.96735    279387.57   -75551.983    7406.6077    -82958.59    535.44353 
    9450    293.04874   -1113.7772    279578.92   -75556.622    7441.5393   -82998.161    538.82541 
    9500    304.65676   -1265.9733    279734.63   -75557.431    7736.3077   -83293.739    541.63302 
    9550    290.99951   -965.81465    279774.12   -75557.996    7389.5021   -82947.498    544.06155 
    9600    288.66237   -836.46344    279959.82   -75550.807    7330.1539   -82880.961    545.36163 
    9650    291.38388   -1208.7043    280314.58   -75504.404    7399.2625   -82903.667    547.12381 
    9700    294.04291   -758.73789    279905.17   -75512.002    7466.7847   -82978.787    549.44511 
    9750    292.38557    -977.2832    279448.39    -75596.44    7424.6991   -83021.139    550.87432 
    9800    292.48927   -887.82897    279103.38    -75575.12    7427.3324   -83002.453    552.62146 
    9850    293.16235     -854.798    278938.27   -75571.999    7444.4243   -83016.423    554.86695 
    9900    296.41691   -688.20895     279178.7   -75529.461    7527.0689   -83056.529    559.15842 
    9950    290.23689   -1095.2232    279748.19    -75527.29    7370.1364   -82897.426     563.0322 
   10000    290.40598   -1074.0029    280223.71   -75535.542    7374.4303   -82909.972    566.36359 
   10050    294.70186   -925.55951    280125.98   -75539.114    7483.5179   -83022.632    569.25685 
   10100    292.93308   -835.94524    279678.37   -75532.948    7438.6024    -82971.55    572.18948 
   10150    293.33963   -844.63511    279321.36   -75534.628     7448.926   -82983.554    575.19124 
   10200    296.10809   -755.95112    279397.33   -75567.834    7519.2269    -83087.06    578.43695 
   10250    292.65647   -725.98373    279817.27   -75521.784    7431.5782   -82953.362    580.96825 
   10300    295.54783   -1274.4684    280103.67   -75481.375         7505   -82986.375    584.35379 
   10350    292.82258   -948.83416    279952.14   -75507.949    7435.7964   -82943.745    587.15378 
   10400    297.24426   -1029.5124    279655.19   -75540.012    7548.0783   -83088.091    589.11893 
   10450    296.93084   -1094.8074    279457.62   -75520.305    7540.1194   -83060.425    591.75519 
   10500    294.33839   -1050.9095    279354.69   -75498.996     7474.288   -82973.284    595.11644 
   10550    295.66117   -709.52073    279478.09   -75481.684    7507.8782   -82989.562    598.90302 
   10600    295.13341   -1036.5527     279936.6   -75465.696    7494.4763   -82960.172    602.10045 
   10650    288.73861   -871.79318    280276.29   -75489.197    7332.0899   -82821.287    605.74693 
   10700    288.85311    -1279.989    280331.83   -75536.658    7334.9975   -82871.655     610.4363 
   10750    294.05434   -931.33118    279566.68   -75545.665     7467.075   -83012.741     611.9334 
   10800    300.65098   -698.21644    278861.62   -75565.994     7634.587   -83200.581    615.28247 
   10850    292.66022   -565.87525    278938.88   -75574.235    7431.6733   -83005.909    618.99325 
   10900    294.71123   -1284.7651    279725.64   -75568.568    7483.7557   -83052.324    622.65833 
   10950    286.16019   -976.84036    280073.48   -75589.877    7266.6147   -82856.492      627.593 
   11000    290.47616   -1224.4563    279927.93   -75613.423    7376.2125   -82989.635     630.6966 
   11050    292.75061   -836.71318     279635.7   -75607.108    7433.9686   -83041.077    634.26776 
   11100    293.00271   -1120.3183    279694.24   -75646.096    7440.3703   -83086.467    637.21577 
   11150     293.6917   -1201.4324    279625.33   -75645.461    7457.8663   -83103.327    640.44007 
   11200    293.47119   -1103.9781    279288.63   -75662.235    7452.2668   -83114.502    643.05397 
   11250    291.34566   -1102.5537    279073.88   -75652.053    7398.2922   -83050.346    645.21628 
   11300    294.39016    -891.4176    279236.76   -75679.231    7475.6027   -83154.833    647.87097 
   11350     290.4866   -1081.3621    279678.17   -75681.876    7376.4774   -83058.353    651.55304 
   11400    291.23601   -773.87581    279686.24   -75695.937    7395.5076   -83091.445     655.7761 
   11450    293.67878   -901.62054    279469.82   -75656.006    7457.5383   -83113.544    659.02167 
   11500    291.32686    -861.3183    279535.15   -75582.394    7397.8147   -82980.208    661.23882 
   11550    294.79122   -980.91648     279841.4   -75569.289    7485.7869   -83055.076    663.55657 
   11600     295.7224   -745.43175    280197.49   -75601.932    7509.4328   -83111.364    666.95347 
   11650    290.15793   -1463.9611     280276.7   -75690.989    7368.1313    -83059.12    669.70546 
   11700    289.94627   -962.21545    279674.47   -75664.792    7362.7567   -83027.549    671.21238 
   11750    298.21261   -887.12893    278954.85   -75721.726    7572.6681   -83294.394    672.17096 
   11800    288.99656   -847.29046    278683.71   -75752.798    7338.6401   -83091.439    674.50531 
   11850    290.46054   -991.75565    279022.45   -75762.925    7375.8159   -83138.741    677.16162 
   11900    288.94114   -1259.2137    279492.38    -75742.55    7337.2328   -83079.782    679.68706 
   11950    289.79878   -865.34911    279611.97   -75718.865    7359.0114   -83077.877    682.19341 
   12000    287.98516   -1145.7772    279891.48   -75735.791    7312.9571   -83048.748    685.74991 
   12050    289.66428   -1032.5154    279689.64   -75768.432     7355.596   -83124.028    687.40662 
   12100    290.42777   -685.54562    279262.35   -75747.501    7374.9837   -83122.485    690.12749 
   12150     287.9189   -919.06708    278952.59   -75704.499    7311.2745   -83015.774    691.72217 
   12200    291.36107   -942.23295    279000.16   -75664.708    7398.6835   -83063.392    693.41407 
   12250    290.44054   -599.82975    279225.31   -75704.264    7375.3079   -83079.572     695.8016 
   12300    295.04163   -1312.8893    279852.49   -75600.316    7492.1457   -83092.461    699.10921 
   12350    295.57238   -820.45679    280032.55   -75647.211    7505.6233   -83152.835    701.78977 
   12400    297.60926   -1181.1893    279898.85   -75615.946     7557.347   -83173.293     705.2109 
   12450    296.63568   -1112.5241    279563.22   -75593.886    7532.6243    -83126.51    708.06676 
   12500    291.86631   -719.24763    279083.45   -75624.455    7411.5132   -83035.969    710.71188 
   12550    288.00329   -818.89325    279172.56   -75612.919    7313.4175   -82926.337    713.83353 
   12600    292.42238   -1132.8842    279736.87   -75627.435    7425.6337   -83053.069    717.85308 
   12650    291.51724   -949.04401    279901.31   -75638.713     7402.649   -83041.362    721.12337 
   12700    290.87204   -1093.0124    279857.54   -75645.019    7386.2652   -83031.284    723.73132 
   12750    294.81704   -933.99284    279633.76    -75649.16    7486.4426   -83135.602    726.83564 
   12800    293.70926   -1058.3832    279660.74   -75682.392    7458.3121   -83140.705    730.88549 
   12850    293.82413   -1284.0717    279724.31   -75705.371    7461.2292     -83166.6    733.71723 
   12900     292.4423   -905.72556    279687.35   -75682.592    7426.1395   -83108.731    737.21331 
   12950    289.30056    -690.2235    279771.65    -75678.79    7346.3597   -83025.149    740.02965 
   13000    292.76501   -1170.6852    279907.88    -75637.74    7434.3343   -83072.074     742.0067 
   13050    294.08837   -846.13294    279556.12   -75618.078    7467.9391   -83086.017    743.17398 
   13100    293.11692   -615.31776     279105.7   -75579.574    7443.2705   -83022.845    744.78901 
   13150    293.47151   -800.91827    279254.47   -75603.673    7452.2749   -83055.948    746.86973 
   13200    294.97657    -903.4796    279850.42   -75617.144    7490.4937   -83107.638    750.60701 
   13250    288.63324   -1193.1362    280316.55   -75587.377    7329.4142   -82916.791    754.28984 
   13300    292.78135   -976.64107    280048.17   -75595.942    7434.7494   -83030.691    754.47992 
   13350    293.56475   -711.71192    279318.59   -75606.143    7454.6425   -83060.785    756.37521 
   13400    294.27324   -1034.8766    279176.28   -75653.444    7472.6336   -83126.078    758.76979 
   13450    294.57432   -453.82092    279247.09   -75620.173    7480.2791   -83100.452    762.34258 
   13500    292.26506   -1042.3464    279888.49   -75593.776    7421.6388   -83015.415    766.59799 
   13550    297.88312   -1114.3311     280284.3   -75581.022    7564.3012   -83145.323    770.99208 
   13600    294.44421   -914.13201    280131.25   -75594.761    7476.9752   -83071.737    774.84128 
   13650    291.96217   -1156.7074     279721.3   -75620.254    7413.9475   -83034.202    775.97532 
   13700    289.42768   -815.02596    279092.83    -75641.78    7349.5879   -82991.367    777.39188 
   13750    296.22832   -826.62171    279047.85   -75635.026    7522.2801   -83157.306    778.95254 
   13800    293.40675   -1140.1744    279773.44   -75606.274    7450.6304   -83056.905    782.34636 
   13850    294.00115   -1008.9771    280226.02   -75592.751    7465.7244   -83058.476    784.51669 
   13900    289.04807   -1461.7191    280478.74   -75608.161    7339.9481   -82948.109    788.53311 
   13950    292.33245   -1215.1285    279965.68   -75631.434    7423.3501   -83054.784    791.10702 
   14000    292.90854     -941.453    279105.54   -75654.656     7437.979   -83092.635    791.57373 
   14050    295.10227   -735.01893    278756.51   -75673.569    7493.6855   -83167.254    792.43427 
   14100    297.01621   -1273.1247    279138.59   -75642.416    7542.2873   -83184.704    797.50383 
   14150    292.91851   -1048.1205    279617.26   -75648.803    7438.2322   -83087.036    800.99433 
   14200    288.19013   -1166.0426    280148.91   -75673.974    7318.1622   -82992.136     804.8927 
   14250    286.61398   -1259.2727    279959.95   -75711.012    7278.1381    -82989.15      807.343 
   14300     292.0616   -878.89109     279237.3   -75721.258    7416.4724    -83137.73    809.31865 
   14350    291.61346   -829.46315    279151.58   -75751.166    7405.0923   -83156.258    810.41388 
   14400    291.94528   -951.02672     279680.1   -75737.049    7413.5184   -83150.568    813.02683 
   14450    290.27434   -897.14291    279891.47   -75716.438    7371.0875   -83087.526    816.99087 
   14500    291.48703   -1120.6185     279741.6   -75674.314     7401.882   -83076.196    819.92471 
   14550    295.64438   -1014.6519    279486.98   -75699.958    7507.4518   -83207.409    820.06748 
   14600    294.10552   -1032.8271    279476.89   -75714.127    7468.3747   -83182.502    821.87365 
   14650    294.45758   -1088.5276    279928.67    -75691.05    7477.3147   -83168.364    826.12521 
   14700    286.00494   -1282.6193    280062.38   -75632.547    7262.6724    -82895.22    829.93496 
   14750    292.85794   -1028.9706    279416.56   -75665.018    7436.6942   -83101.712     830.7187 
   14800    289.83417   -808.53754    278898.18   -75663.768      7359.91   -83023.678     831.6038 
   14850    292.79589   -1098.8758     278874.7   -75674.599    7435.1184   -83109.718    833.54076 
   14900    293.86641   -754.75926    278871.55   -75676.527    7462.3028    -83138.83    834.85573 
   14950    293.64751   -1290.5116    279563.32   -75737.142    7456.7442   -83193.886    838.55161 
   15000    289.29788    -1305.195    280282.96   -75722.289    7346.2917    -83068.58    843.82318 
   15050    287.62882   -1287.3213    280116.48   -75757.121    7303.9083   -83061.029    846.28963 
   15100    290.11215   -1092.3533    279352.26   -75776.015    7366.9689   -83142.984    847.78689 
   15150    291.07751    -922.4434    278836.08   -75814.509    7391.4829   -83205.992    848.71326 
   15200    290.74508   -1090.9686    279065.16   -75844.296    7383.0412   -83227.337    851.62257 
   15250    287.09847   -920.31686    279558.76   -75817.967     7290.441   -83108.408    855.79171 
   15300    288.79764    -1107.218    279875.86   -75811.573    7333.5888   -83145.162    858.48795 
   15350    291.06557   -1311.8859    279639.35   -75817.475    7391.1797   -83208.654    859.11778 
   15400    288.24727   -1029.5868    278956.53   -75846.931    7319.6131   -83166.544    859.12714 
   15450    285.90123   -949.35106    278584.88   -75946.704    7260.0388   -83206.743    860.63673 
   15500    285.59232   -801.30444     278732.7   -75954.194    7252.1946   -83206.388    862.97844 
   15550    285.56548    -945.5927    278989.32   -75975.755    7251.5129   -83227.268    866.18986 
   15600    283.73993   -747.04871    279282.22   -75912.981    7205.1558   -83118.137    868.47759 
   15650    288.88947   -1241.8261    279740.75   -75860.711    7335.9207   -83196.632    871.87404 
   15700    291.01226   -1080.5171    279750.61   -75807.571    7389.8259   -83197.397    874.62623 
   15750    293.87143   -1173.2133    279493.83   -75773.095    7462.4303   -83235.526    876.89183 
   15800    290.04844   -672.21859    278975.09   -75789.134    7365.3511   -83154.485      880.075 
   15850    288.96764   -694.54917    278698.82   -75800.905    7337.9058   -83138.811    881.97741 
   15900    293.10838   -876.36818    278813.34   -75811.204    7443.0537   -83254.257    883.76291 
   15950    289.17788   -839.99738    279295.94   -75817.918    7343.2444   -83161.163    887.64592 
   16000    290.59388   -1081.6941     279673.6   -75778.739    7379.2019   -83157.941    890.34111 
   16050    289.43174   -900.99558    279615.28   -75801.217     7349.691   -83150.908    891.94175 
   16100    287.22647   -1102.3689    279576.22   -75806.525    7293.6914   -83100.216    893.00705 
   16150    291.59373   -967.77599    279154.84   -75798.455    7404.5915   -83203.047    894.05741 
   16200     290.4194   -618.59175    278896.14   -75710.077     7374.771   -83084.848      897.775 
   16250        291.7   -1024.0432    279207.56   -75701.975    7407.2899   -83109.264     901.1321 
   16300    290.88713   -1063.2053    279763.45   -75677.611    7386.6483   -83064.259    905.70329 
   16350    291.96591   -1010.9436    280007.95   -75623.846    7414.0424   -83037.889    907.56866 
   16400    290.21729   -656.30539     279564.5   -75671.754    7369.6387   -83041.393    909.07981 
   16450    294.00066   -608.75486    279050.22   -75665.813    7465.7118   -83131.525    908.64362 
   16500    289.40445   -686.88222    278994.48   -75677.472    7348.9979    -83026.47    911.60435 
   16550    291.44729   -854.90703    279424.46   -75747.169    7400.8728   -83148.042     915.4476 
   16600    291.41332   -1297.5265    279794.83   -75724.983    7400.0101   -83124.993    918.76408 
   16650    290.83623   -1082.8047    279922.89    -75767.43    7385.3559   -83152.786    919.78561 
   16700    290.56462   -1065.3866    279994.14   -75739.079    7378.4586   -83117.537     922.6341 
   16750    288.42962   -1054.6276    279901.23   -75706.381    7324.2436   -83030.625    924.97513 
   16800    290.29034   -1006.5724     279681.7    -75675.86    7371.4937   -83047.354    927.02584 
   16850    293.11405   -1237.0093    279574.18   -75662.267    7443.1978   -83105.464    931.11016 
   16900    294.80695   -902.25891    279543.21   -75682.958    7486.1863   -83169.144    933.07754 
   16950    294.86315   -1164.6671    279806.61   -75682.982    7487.6134   -83170.596    935.95173 
   17000    291.64993   -1110.7698     279986.7   -75699.801    7406.0185   -83105.819    938.53104 
   17050    292.68157   -1040.2927    279871.11   -75672.332    7432.2156   -83104.547    940.85675 
   17100    293.78639   -1177.4465    279419.22   -75671.377    7460.2707   -83131.648    943.29957 
   17150     292.9217   -629.35419    279000.81   -75701.013    7438.3133   -83139.326    945.68254 
   17200    296.02832   -845.78615    278909.34   -75729.113    7517.2012   -83246.314    947.06236 
   17250    293.27776    -1313.428    279407.11   -75736.385     7447.355    -83183.74     950.3457 
   17300    291.87702   -711.48669    279721.96   -75751.435    7411.7853   -83163.221    952.06994 
   17350    292.86503   -1086.5591    280001.52   -75771.657    7436.8743   -83208.531    952.24275 
   17400    290.22478   -1363.0766    279881.46   -75781.424    7369.8291   -83151.253    955.26211 
   17450    290.32733   -881.13047    279412.81   -75785.525    7372.4331   -83157.959    957.61414 
   17500    288.92225   -962.30662    279177.03   -75858.733    7336.7531   -83195.486    959.12641 
   17550    290.99218   -1056.5473    278906.24   -75859.414     7389.316    -83248.73    960.02676 
   17600    288.23121   -815.56104     278824.8   -75861.071    7319.2053   -83180.276    962.18538 
   17650    291.75019   -1225.3525    278929.98   -75836.139    7408.5646   -83244.704    964.89955 
   17700     286.3678   -956.34269    278928.99   -75855.712    7271.8867   -83127.599     966.5945 
   17750    291.92418     -1219.22    279043.45    -75871.86    7412.9829   -83284.843     968.9794 
   17800     286.9754   -943.77687    279091.04   -75889.611    7287.3157   -83176.926    971.36988 
   17850    284.60883   -794.27986    279187.03   -75922.846    7227.2203   -83150.066     974.2595 
   17900    286.19819    -930.6686    279357.53   -75864.989    7267.5798   -83132.569    976.74152 
   17950    290.76408     -1463.54     279776.2   -75892.856    7383.5237    -83276.38    979.23428 
   18000      286.203   -1122.4067    279925.18   -75879.553    7267.7018   -83147.255    983.31748 
   18050    285.45879   -1160.0051     279522.5   -75919.546    7248.8037   -83168.349    985.07229 
   18100    292.43531   -1183.0066    278735.31   -75938.049    7425.9621   -83364.011    986.87207 
   18150    287.16466     -626.928    278276.45     -75960.4    7292.1217   -83252.521    987.70353 
   18200     286.5366   -666.95441    278509.86   -75951.813    7276.1732   -83227.986     989.7067 
   18250    292.30511   -1099.6621    279263.94   -75980.406     7422.656   -83403.062    993.56215 
   18300     286.2623   -907.48562    279636.03    -75944.98    7269.2076   -83214.188    997.94697 
   18350    289.17073   -1242.4892    279880.09   -75913.259    7343.0631   -83256.322    1002.7742 
   18400    288.14606   -1106.6931    279645.72   -75943.432     7317.043   -83260.475     1004.705 
   18450    291.33081   -1247.3812    279321.73   -75924.725    7397.9149   -83322.639    1007.2053 
   18500    288.53716   -809.99397    278997.52   -75901.657    7326.9743   -83228.631    1009.1148 
   18550    289.30549   -726.00997     278976.5    -75872.27    7346.4849   -83218.755     1011.855 
   18600    293.43391   -1147.7911    279274.61    -75874.22    7451.3201   -83325.541    1015.1805 
   18650    285.08847   -701.85712    279328.47    -75843.47    7239.3999    -83082.87    1016.4585 
   18700    294.06631   -993.52505    279688.65   -75776.848    7467.3791   -83244.227    1021.3756 
   18750    289.63387   -1315.6972    280009.49   -75757.789    7354.8238   -83112.612    1025.5642 
   18800    288.97091   -1274.7265    279799.33   -75698.349    7337.9888   -83036.338    1028.1253 
   18850    292.17073   -1079.4047    279262.17   -75714.898    7419.2434   -83134.142    1028.7892 
   18900    288.94052   -904.64732    278866.21   -75762.801    7337.2172   -83100.019    1029.5184 
   18950    290.79169   -622.84243     278774.4   -75820.367    7384.2249   -83204.592    1034.3963 
   19000    287.44004   -681.09258    279051.27   -75794.212    7299.1146   -83093.326    1037.4487 
   19050    290.57806   -1194.3293    279516.37   -75812.838       7378.8   -83191.638      1039.77 
   19100    294.37925   -884.41788    279621.32   -75793.654    7475.3257   -83268.979    1042.5355 
   19150    288.66198   -1091.5051    279662.67   -75769.663     7330.144   -83099.807    1047.2645 
   19200    290.80244   -1140.8884    279596.51   -75758.056    7384.4978   -83142.554    1052.0748 
   19250     290.0886   -992.39937    279240.36   -75749.135     7366.371   -83115.506    1053.9414 
   19300    290.30866   -1043.0182    278860.85   -75757.695    7371.9589   -83129.654    1055.6451 
   19350    295.99281   -732.52784    278694.88   -75751.664    7516.2995   -83267.963    1059.4604 
   19400    288.39195   -944.80879    279135.67   -75725.469     7323.287   -83048.756    1062.6016 
   19450    290.36795   -919.01041    279739.73   -75685.875    7373.4645   -83059.339    1067.1434 
   19500    287.86813   -1059.1228     280210.4   -75665.377    7309.9854   -82975.363     1071.798 
   19550    291.39702     -1057.64    280117.04   -75712.573    7399.5964    -83112.17    1074.2076 
   19600    296.01891   -1119.3171     279513.6   -75737.663    7516.9623   -83254.625    1075.8836 
   19650    289.71988   -807.89075     278778.8   -75727.014    7357.0079   -83084.022    1076.4891 
   19700     292.6511   -845.70808    278768.82   -75736.201    7431.4419   -83167.643     1080.327 
   19750    292.23694   -926.12515    279341.02   -75714.425    7420.9249    -83135.35    1084.1669 
   19800    291.62914   -1194.5312    280091.45   -75690.985    7405.4905   -83096.475    1088.3156 
   19850    289.69899   -1195.6921     280341.8   -75683.207    7356.4774   -83039.685    1090.8568 
   19900    292.70193   -1231.6682    279823.02   -75672.271    7432.7325   -83105.003    1091.3208 
   19950      294.996   -753.46336    279261.07   -75686.139    7490.9871   -83177.126    1091.0295 
   20000    292.22069   -575.49401    278957.86   -75704.839    7420.5121   -83125.352    1093.5887 
   20050    293.51626    -822.7544    279100.24   -75719.234    7453.4112   -83172.645    1098.7466 
   20100    292.12271   -1011.7327    279689.84   -75732.436    7418.0241    -83150.46      1102.14 
   20150    288.53551   -1055.5473    280121.25   -75775.236    7326.9325   -83102.169    1105.8626 
   20200    287.69896   -1304.0499    280122.99   -75754.709    7305.6895   -83060.399    1108.1734 
   20250    291.09649   -772.38239    279291.61   -75767.661    7391.9648   -83159.626     1108.889 
   20300    289.72187    -797.2128    278509.13   -75776.712    7357.0583    -83133.77    1110.5213 
   20350    293.07807   -680.35668     278540.4   -75741.999    7442.2841   -83184.283    1112.0902 
   20400    292.97335   -973.51718    279099.93   -75724.047    7439.6249   -83163.672    1115.9609 
   20450    291.99613   -1204.0396    279657.69   -75732.752    7414.8097   -83147.562    1120.0916 
   20500    291.87878   -980.77238    279647.27   -75757.272    7411.8299   -83169.102    1123.1041 
   20550    287.99354   -1022.2129    279521.56   -75731.978    7313.1701   -83045.148    1124.6931 
   20600    290.84562   -1021.3627    279465.33   -75719.239    7385.5943   -83104.834    1124.5597 
   20650    290.19344   -838.52881    279259.06   -75749.397    7369.0331    -83118.43    1126.6675 
   20700    290.46507   -836.72759    279333.17   -75759.136    7375.9309   -83135.067    1128.3611 
   20750    291.64884   -1387.0287    279500.92   -75717.784    7405.9909   -83123.775    1130.2659 
   20800    290.38071   -1104.3995    279466.81   -75741.252    7373.7887   -83115.041    1133.6359 
   20850    291.82828   -1001.2113    279267.43   -75714.329    7410.5475   -83124.877    1136.4152 
   20900    290.56874   -756.31278    279181.51   -75716.129    7378.5634   -83094.692    1136.8968 
   20950    290.79313     -1053.64    279539.13   -75745.291    7384.2614   -83129.552    1141.0803 
   21000    295.47584   -974.26054    279707.69   -75722.688    7503.1718   -83225.859    1143.0125 
   21050    291.19417   -1054.2382    279443.84   -75743.502    7394.4453   -83137.948    1142.2254 
   21100    295.23562   -649.38822    278759.46   -75762.653    7497.0719   -83259.725    1143.6455 
   21150    291.26594   -744.55966     278757.1   -75753.918    7396.2676   -83150.186    1144.0104 
   21200    291.81757   -1004.7505    279262.06   -75726.471    7410.2754   -83136.747    1147.0933 
   21250    290.45274   -878.68736    279754.96   -75730.404    7375.6178   -83106.022    1151.6586 
   21300     290.3719   -1050.2691    279657.18   -75718.012     7373.565   -83091.576     1154.258 
   21350    286.30045   -924.79017     279236.3   -75725.296    7270.1765   -82995.472    1156.0596 
   21400    290.61929   -782.88277    279019.46   -75716.877     7379.847   -83096.724    1156.7993 
   21450    294.16318   -923.39316    279018.94   -75680.826    7469.8387   -83150.664    1158.1753 
   21500    291.61388   -1070.3314    279473.69   -75675.209    7405.1032   -83080.312    1163.8095 
   21550    290.69361   -1221.5714       279832   -75651.146    7381.7344    -83032.88    1167.1735 
   21600    295.52234   -1090.0063    279680.35   -75631.009    7504.3528   -83135.361    1169.9471 
   21650    291.20303   -991.99475    279412.39   -75601.973    7394.6702   -82996.643     1173.149 
   21700    295.16078   -860.82867    279296.46   -75564.106    7495.1713   -83059.278    1173.8114 
   21750    298.14335   -900.35131    279439.35   -75595.851    7570.9093    -83166.76       1175.1 
   21800    297.09215   -1173.3363    279785.06   -75565.264    7544.2157    -83109.48    1178.7075 
   21850    292.61174   -1078.1523    280054.25   -75537.544    7430.4424   -82967.986    1182.5218 
   21900    293.82035   -1014.8069    279963.77   -75558.831    7461.1332   -83019.964    1183.3604 
   21950     298.6453    -1083.536    279442.32   -75576.412    7583.6557   -83160.068    1185.7085 
   22000    293.66301   -1117.1519    279091.79   -75581.304    7457.1377   -83038.442    1188.8906 
   22050    298.92332   -931.64021    278858.62   -75558.878    7590.7155   -83149.593     1192.048 
   22100    297.38203   -857.98458    278952.48   -75555.705    7551.5767   -83107.282    1192.2562 
   22150    296.90857   -958.89412    279604.13    -75565.01    7539.5538   -83104.563    1196.8744 
   22200    299.21608   -1295.4133    280174.15   -75501.032    7598.1497   -83099.182    1200.0368 
   22250    295.58637   -1395.8522    280408.03   -75486.972    7505.9785   -82992.951    1203.1242 
   22300    299.07709   -1050.4248    279954.71    -75427.12    7594.6202    -83021.74    1204.8226 
   22350    303.37055   -977.03998    279263.49   -75462.927    7703.6464   -83166.574    1204.3772 
   22400    301.11505   -946.39502    279071.35   -75500.342    7646.3714   -83146.713    1206.0543 
   22450     302.6696   -1043.6615       279304   -75502.193    7685.8468   -83188.039    1208.6274 
   22500    294.97095   -1251.6871    279778.77   -75466.572    7490.3509   -82956.923    1214.2437 
   22550    296.76666   -1350.5842    280221.02   -75463.224    7535.9505   -82999.175    1218.1316 
   22600    297.18247   -1187.8609    280297.68   -75519.253    7546.5093   -83065.763    1220.7729 
   22650    294.98886   -1138.1218    280467.41   -75484.646    7490.8058   -82975.452    1223.0467 
   22700     293.2172   -1225.8825    280162.76   -75504.323    7445.8171    -82950.14     1224.228 
   22750    297.97826   -823.39211    279351.31   -75511.812    7566.7171    -83078.53    1224.9755 
   22800    295.99991   -784.58105    278974.58   -75543.307      7516.48   -83059.787    1226.0922 
   22850    296.81048   -801.30122    279367.64   -75540.463     7537.063   -83077.526    1227.9662 
   22900    291.73309   -1005.0463    279905.05   -75568.688    7408.1302   -82976.818    1230.9925 
   22950    289.99758   -1320.7158    280226.84   -75570.188    7364.0595   -82934.248    1235.0258 
   23000    290.32276   -966.75687     279899.9   -75601.997    7372.3171   -82974.314    1236.8516 
   23050    296.79347   -924.75355    279512.28   -75566.432    7536.6312   -83103.063    1237.8799 
   23100    296.79197   -983.34184    279137.08   -75552.386    7536.5932   -83088.979    1239.3193 
   23150    298.61912   -935.08499     279127.6   -75564.277    7582.9908   -83147.268    1243.2746 
   23200    294.44051    -975.9984    279444.33   -75561.265    7476.8812   -83038.146    1246.1967 
   23250     297.7205   -1121.9657    279643.71   -75574.835    7560.1718   -83135.007    1250.7952 
   23300    293.38025   -1042.1463    279726.87   -75587.908    7449.9575   -83037.865    1254.4948 
   23350    287.92164   -1013.8273    279829.06   -75587.916    7311.3441    -82899.26    1258.3343 
   23400     294.4799    -1301.499    279770.15   -75615.012    7477.8814   -83092.894    1261.6739 
   23450     296.7457   -1045.1946     279646.1   -75627.712    7535.4181    -83163.13     1265.941 
   23500    290.45241   -1271.0382    279746.98   -75663.108    7375.6092   -83038.717      1268.61 
   23550    290.26198   -752.63009    279579.16   -75656.526    7370.7736     -83027.3    1270.4921 
   23600    294.39522   -1063.3944    279574.11   -75629.022    7475.7312   -83104.753    1274.6612 
   23650    292.59105   -1046.4356    279422.88   -75595.922    7429.9168   -83025.838    1278.1743 
   23700    289.91645   -808.82671    279450.33   -75550.176    7361.9993   -82912.176    1280.6715 
   23750    296.95591   -969.08349    279538.76    -75556.68     7540.756   -83097.436    1281.1627 
   23800    295.69068   -1117.6734    279653.68   -75512.342    7508.6273    -83020.97    1285.5369 
   23850    296.33291   -897.66905    279813.83   -75531.845    7524.9359   -83056.781    1289.2295 
   23900    294.54964   -1242.3407    279851.82   -75543.925    7479.6524   -83023.577    1292.4108 
   23950    293.19453   -903.73016    279529.85   -75604.001    7445.2414   -83049.242    1295.8435 
   24000      291.535   -539.30748    279408.59   -75622.104    7403.1002   -83025.204    1297.5235 
   24050    298.24082   -1113.8525     279731.6   -75578.239    7573.3846   -83151.623    1300.6068 
   24100     294.3337   -849.12076    279869.55   -75536.975     7474.169   -83011.144    1304.3172 
   24150     294.5592   -825.67645    279722.45   -75555.635    7479.8951    -83035.53    1306.4507 
   24200    302.90814   -1125.6518    279577.18   -75589.126    7691.9043   -83281.031    1307.6807 
   24250    293.19213   -957.20196    279532.86    -75615.04    7445.1804   -83060.221    1311.4074 
   24300    294.57542   -1047.6283    279668.61   -75592.977    7480.3071   -83073.284    1316.8449 
   24350     296.4067   -1132.5207    279722.98   -75616.962    7526.8097   -83143.772    1318.7618 
   24400    295.54119   -1037.6122    279749.89    -75580.88    7504.8314   -83085.712    1321.3618 
   24450    292.01547   -1123.3758    279684.35   -75651.821     7415.301   -83067.122    1323.4354 
   24500    293.78716   -772.86856    279488.08   -75662.661    7460.2904   -83122.951    1324.3949 
   24550    288.26796   -1140.0267    279825.69   -75627.278    7320.1384   -82947.417    1327.7764 
   24600    294.52099    -1201.586    280123.01   -75612.004    7478.9248   -83090.929    1331.4879 
   24650    289.53041   -1124.8474    280002.32   -75602.188    7352.1966   -82954.385    1334.4539 
   24700    297.52928   -832.23787    279418.23   -75565.738    7555.3159   -83121.054    1336.0897 
   24750     291.7816   -909.95451    279247.54   -75553.505     7409.362   -82962.867    1338.8794 
   24800    294.11178   -749.18286    279592.37   -75481.789    7468.5336   -82950.322    1341.0182 
   24850    299.22956    -1083.946    280086.16   -75455.449    7598.4922   -83053.941    1345.1128 
   24900    299.54317   -1078.4031     279874.3   -75437.253    7606.4556   -83043.708    1349.6041 
   24950    302.85985   -1065.7917    279482.57   -75488.605    7690.6779   -83179.283    1349.9792 
   25000    294.35841   -855.12817    279337.04   -75522.668    7474.7964   -82997.464    1349.4709 
   25050    299.45449   -1126.2764    279562.83   -75554.611    7604.2038   -83158.815    1354.5503 
   25100    298.33775   -801.26858    279779.32   -75504.874    7575.8458    -83080.72    1357.1298 
   25150    295.49142   -1184.4351    280107.41   -75529.433    7503.5675   -83033.001    1360.5313 
   25200    288.85757   -932.44588    279713.24   -75554.217    7335.1108   -82889.328    1360.9466 
   25250    293.69831   -809.76686    279330.78   -75611.072    7458.0342   -83069.106    1360.4882 
   25300    291.22569   -959.69854    279342.32   -75650.073    7395.2457   -83045.319    1363.8253 
   25350     292.7884   -934.02577    279589.64    -75700.96    7434.9283   -83135.889    1368.7837 
   25400    291.44712   -1049.7567    279713.29   -75714.211    7400.8685   -83115.079    1372.1456 
   25450    295.16678   -1019.6877     279493.2   -75666.452    7495.3238   -83161.776    1373.6917 
   25500     291.0444    -1112.724    279297.76   -75665.393     7390.642   -83056.035    1377.7512 
   25550    290.77446   -1149.5882       279116   -75704.283    7383.7874    -83088.07    1381.2766 
   25600    294.31337   -954.90897    279120.14   -75720.927    7473.6527   -83194.579    1383.9914 
   25650    295.74541   -1056.0828    279298.32   -75728.322    7510.0172   -83238.339    1385.0031 
   25700     294.1658   -1130.5578    279252.64       -75711    7469.9053   -83180.905     1386.984 
   25750    293.15213    -995.8051    279161.91   -75707.195    7444.1647   -83151.359    1392.4464 
   25800    291.19333   -901.26742    279122.74   -75706.613     7394.424   -83101.037    1394.3078 
   25850    294.81039   -902.61064    279169.05   -75700.435    7486.2738   -83186.708    1396.7561 
   25900    293.69608   -1058.6988    279361.12   -75651.035    7457.9776   -83109.012    1400.5719 
   25950    292.58707   -1292.0046    279704.46   -75673.965    7429.8158   -83103.781    1406.3314 
   26000    292.51524   -963.30172     279576.7    -75657.68    7427.9918   -83085.672     1407.987 
   26050    289.62676   -664.22822    279269.38   -75741.492    7354.6431   -83096.135    1410.0905 
   26100    288.60661   -987.58419     279147.6   -75764.647     7328.738   -83093.385    1411.0913 
   26150    290.03258   -1081.3329    279426.38   -75760.504    7364.9485   -83125.453     1412.798 
   26200    287.11091   -1200.1772    279660.27   -75747.035    7290.7568   -83037.792     1415.747 
   26250    293.66991   -1251.3523    279757.71   -75742.996    7457.3129   -83200.309    1419.5245 
   26300    289.82859   -909.55453    279601.29   -75765.112    7359.7683    -83124.88    1421.6953 
   26350    292.48684    -984.9566    279204.92   -75791.762    7427.2706   -83219.032     1423.232 
   26400    287.41379   -844.82036    278768.73   -75786.484    7298.4481   -83084.932    1423.8079 
   26450    291.96363   -872.84417     278786.3   -75746.528    7413.9845   -83160.512    1425.9463 
   26500     292.0053   -1170.0279    279207.29   -75752.402    7415.0425   -83167.444    1431.6641 
   26550    293.03453   -1081.4984    279701.93   -75731.658    7441.1784   -83172.836    1436.7535 
   26600    287.56785   -748.89876    279920.25   -75730.118    7302.3601   -83032.478    1441.2728 
   26650    288.97995   -1136.7673    279923.41   -75711.465    7338.2183   -83049.683    1441.7295 
   26700    285.39358   -1160.5392    279578.47    -75666.42    7247.1479   -82913.568    1442.0427 
   26750    292.70442   -924.47088    279270.84   -75683.471    7432.7958   -83116.266    1444.1807 
   26800    292.02944   -1273.6866    279173.83   -75741.048    7415.6558   -83156.704    1445.1286 
   26850    297.28045   -752.14568    279021.04   -75742.605    7548.9974   -83291.602    1448.6927 
   26900    291.70761    -1005.251    279103.02   -75694.646    7407.4832   -83102.129    1452.9536 
   26950    288.38027   -856.56926    279169.89   -75718.062    7322.9904   -83041.052    1454.3761 
   27000    288.29892   -1011.7808    279261.39   -75722.048    7320.9247   -83042.973    1458.5299 
   27050    296.03576   -1011.7742    279216.45   -75742.701    7517.3902   -83260.091    1461.0542 
   27100     293.7354   -1054.8534    279336.13   -75709.146     7458.976   -83168.122    1464.3063 
   27150    293.28357    -898.3181    279420.99   -75736.331    7447.5023   -83183.833    1465.9683 
   27200    290.88191   -1001.7247    279499.31   -75712.121    7386.5159   -83098.637     1468.833 
   27250    290.59975   -1156.4917    279766.31   -75696.051    7379.3508   -83075.401    1472.5135 
   27300    293.85702   -1160.7806    279569.93   -75699.142    7462.0642   -83161.207    1475.5286 
   27350    296.51701   -900.98454    279149.84   -75677.385    7529.6109   -83206.996    1476.8877 
   27400     288.9558   -857.74436    279112.89   -75629.325    7337.6052    -82966.93    1478.2289 
   27450    290.36848   -972.20963    279332.11   -75658.351     7373.478   -83031.829    1482.1689 
   27500    290.92788   -1030.1088    279699.65    -75638.34    7387.6832   -83026.023    1486.1097 
   27550    291.54129   -1170.9839    279898.26    -75631.81    7403.2598    -83035.07    1488.2954 
   27600    295.99354    -1072.949    279614.42   -75639.187    7516.3182   -83155.505    1490.7328 
   27650    293.36723    -1042.331    279137.56   -75667.193    7449.6269    -83116.82    1492.1584 
   27700    292.26129   -812.05811    278814.28   -75683.318    7421.5432   -83104.861    1493.4223 
   27750    296.02389   -908.74716    279055.74   -75657.807    7517.0889   -83174.896    1494.9879 
   27800    290.39332   -926.67645    279781.41   -75660.472    7374.1087   -83034.581    1500.3207 
   27850    288.91451   -1241.7126    280302.05    -75609.08    7336.5566   -82945.636    1503.6224 
   27900    292.86005   -1004.6293    280035.92   -75633.688    7436.7478   -83070.436    1503.6182 
   27950    291.91016   -1154.3787    279630.76   -75652.898    7412.6267   -83065.525    1502.6154 
   28000    288.29512   -702.46196    279387.55   -75652.328     7320.828   -82973.156    1502.4757 
   28050     295.7066   -1070.9006    279083.15   -75653.602    7509.0316   -83162.634    1504.5907 
   28100    295.78066   -906.49279    279180.96    -75679.04    7510.9123   -83189.953    1505.6807 
   28150     288.2598   -1045.3234    279941.94   -75649.535    7319.9313   -82969.466    1511.1466 
   28200    288.82985   -1252.8688    280244.86   -75650.637    7334.4068   -82985.044     1512.685 
   28250    297.44974   -1216.3618    279801.56   -75721.064    7553.2962    -83274.36    1513.8496 
   28300    293.10221   -843.70414    278815.64   -75724.591     7442.897   -83167.488    1511.9296 
   28350    288.67674   -812.40567    278710.87    -75717.86    7330.5187   -83048.379    1512.8526 
   28400    293.52736   -1076.4703    279295.76   -75668.637    7453.6932    -83122.33    1515.7968 
   28450    291.48059    -1218.501    279928.99     -75648.9    7401.7184   -83050.618    1519.6209 
   28500    292.57073   -1463.5399    280377.57   -75650.718    7429.4009   -83080.119    1523.9639 
   28550    290.35433   -778.89693    279763.55   -75676.359    7373.1186   -83049.477    1522.8978 
   28600    293.87304   -963.86069    279109.41   -75674.587    7462.4711   -83137.058    1523.4628 
   28650    297.19369   -732.28091    278853.58    -75698.39    7546.7942   -83245.184    1524.3758 
   28700    298.80276   -959.35966     279357.5    -75703.65    7587.6542   -83291.304    1528.4424 
   28750     293.6947   -1077.3755    279887.82   -75694.907    7457.9425    -83152.85    1537.3406 
   28800    290.46816   -1184.0939    279868.55   -75703.961    7376.0094    -83079.97    1539.1869 
   28850    290.60373   -788.11367    279239.64   -75690.876    7379.4519   -83070.328    1537.9231 
   28900    289.82031   -796.51037    278754.51   -75743.279    7359.5582   -83102.837     1537.955 
   28950    295.59996   -973.95206    278645.28   -75767.522    7506.3238   -83273.846    1538.9191 
   29000    292.16774   -1121.1292    279008.12   -75791.935    7419.1675   -83211.102     1543.241 
   29050    297.34873   -1083.0318    279431.68   -75779.892    7550.7311   -83330.623    1549.0945 
   29100    287.70908   -1368.8771    279941.15   -75801.608    7305.9464   -83107.554    1553.7496 
   29150    291.80517   -1151.4366    279999.05   -75792.349    7409.9607    -83202.31    1554.9386 
   29200     287.8566   -976.60903    279443.43   -75811.146    7309.6924   -83120.839    1555.3715 
   29250    289.03112   -1114.3614    278832.51   -75829.882    7339.5178   -83169.399    1554.1634 
   29300    288.57917   -766.40078    278638.75   -75860.348    7328.0413   -83188.389    1557.5591 
   29350    294.26402   -937.03901    279037.21   -75854.878    7472.3996   -83327.278    1562.5534 
   29400    288.52302   -817.54569    279674.81    -75822.03    7326.6153   -83148.645    1566.7351 
   29450    295.33967   -975.63072    279845.11   -75782.484    7499.7141   -83282.199     1571.104 
   29500    285.64919   -1191.2551    279781.13   -75767.351    7253.6387    -83020.99    1574.6228 
   29550    292.36366   -832.97377    279278.63   -75722.776    7424.1426   -83146.918    1575.5281 
   29600    293.71978   -607.90785       278969   -75731.308    7458.5793   -83189.887    1577.4021 
   29650    291.58294   -853.22743    279363.25   -75700.648    7404.3174   -83104.965    1582.3565 
   29700    293.72066   -1168.0277    279985.14   -75696.667    7458.6018   -83155.268    1588.4708 
   29750    290.97375   -1101.9623    279976.16   -75643.619    7388.8479   -83032.467    1592.8876 
   29800    289.02407    -755.5517     279565.9   -75616.517    7339.3386   -82955.855     1593.566 
   29850     297.8294   -992.17084    279481.63   -75587.587     7562.937   -83150.524    1595.3368 
   29900    293.79255   -1167.6861    279663.26   -75595.258    7460.4273   -83055.685    1598.0225 
   29950    294.80318   -1137.1828    279698.88   -75596.973    7486.0907   -83083.063    1599.5915 
   30000    292.81537   -941.34691    279512.54   -75583.038    7435.6131   -83018.651    1600.2051 
   30050    289.75423   -1054.5115    279371.53   -75565.682    7357.8801   -82923.562    1600.1333 
   30100    295.71797   -1071.4719    279610.25     -75578.8    7509.3205    -83088.12    1601.9428 
   30150    292.09679   -1314.7893    279949.06   -75558.223     7417.366   -82975.589    1604.3624 
   30200    290.97594   -809.02125    279858.03   -75590.287    7388.9035    -82979.19    1606.2938 
   30250    294.38604   -1195.7595    279780.68   -75616.282     7475.498    -83091.78    1606.9568 
   30300    294.25208   -722.33025    279322.46   -75681.341    7472.0962   -83153.437    1607.5655 
   30350    291.44975   -668.17892    279097.01   -75701.562    7400.9353   -83102.498    1609.2713 
   30400    290.54536   -917.05764    279305.89   -75724.797    7377.9697   -83102.767    1612.4864 
   30450    286.64163    -962.3614    279479.69   -75753.339    7278.8401   -83032.179    1615.9557 
   30500    293.94122   -986.34857    279232.65   -75748.269    7464.2026   -83212.471    1615.3178 
   30550    290.41762   -821.07358    279156.73   -75685.712     7374.726   -83060.438     1616.934 
   30600    292.79119   -925.13732     279307.3   -75655.231    7434.9991    -83090.23     1622.354 
   30650    289.22321    -1117.052    279736.32   -75603.167    7344.3957   -82947.563    1626.9703 
   30700    289.90258   -1258.7189    280138.49   -75593.576    7361.6472   -82955.223    1630.0882 
   30750    293.09885   -1275.1146    279822.22   -75580.178    7442.8117   -83022.989    1632.4491 
   30800     293.1762   -957.32899     279242.4   -75597.292     7444.776   -83042.068    1633.9243 
   30850    297.72743   -893.92866    279075.93   -75565.511    7560.3477   -83125.859    1635.1217 
   30900    293.13392   -779.93292    279500.96    -75550.12    7443.7023   -82993.822    1639.8621 
   30950    289.99835   -1091.3623    280043.53   -75574.672    7364.0791   -82938.751    1646.3824 
   31000    298.02801   -1211.8175    279956.31   -75586.817    7567.9805   -83154.797    1648.0355 
   31050    293.82655   -1063.9301    279532.78   -75620.164    7461.2906   -83081.454    1648.8365 
   31100    292.92679   -605.87847    279221.49   -75595.048    7438.4425    -83033.49      1648.23 
   31150    296.10805    -906.8326    279661.01   -75570.707    7519.2259   -83089.933    1650.8186 
   31200    296.96043   -985.38577    280177.83   -75593.038    7540.8707   -83133.909    1654.6726 
   31250    294.33682   -1153.8636    280262.14    -75611.21    7474.2481   -83085.458    1658.9208 
   31300    291.67153   -820.23376    279506.66   -75608.892     7406.567   -83015.459    1659.9596 
   31350    295.40294    -677.8436    278836.96   -75639.218    7501.3207   -83140.539     1659.207 
   31400    296.87145   -658.24306    278836.81   -75646.767    7538.6114   -83185.379     1662.354 
   31450    294.99464   -814.23941    279100.48   -75647.301    7490.9526   -83138.254    1665.5962 
   31500     297.0958    -1222.654    279385.99   -75699.817    7544.3083   -83244.125    1669.5047 
   31550    288.94517   -1014.9997    279419.53   -75763.081    7337.3351   -83100.416    1672.9558 
   31600    289.00896   -1022.2216    279543.67   -75710.774    7338.9551   -83049.729    1675.2026 
   31650    295.46942   -1057.4862    279827.95   -75686.624    7503.0089   -83189.633    1679.3239 
   31700    290.70503   -1001.2969    279871.96   -75647.363    7382.0243   -83029.387    1681.5612 
   31750     296.0708   -1060.9384    279760.61   -75624.017    7518.2801   -83142.297    1682.0488 
   31800    293.66278   -890.54264     279649.7   -75677.405     7457.132   -83134.537    1684.1267 
   31850    286.04954   -822.25924    279426.86   -75655.619    7263.8048   -82919.424    1684.0063 
   31900    295.66325   -836.72521    279061.48   -75649.387    7507.9308   -83157.318    1686.8266 
   31950    299.20818   -767.52569    278959.85   -75641.833    7597.9492   -83239.782    1688.3526 
   32000     296.5109   -923.77313    279382.77   -75627.042    7529.4557   -83156.498    1693.3013 
   32050    290.96534   -1208.7497    280002.16   -75629.933    7388.6344   -83018.568    1698.0228 
   32100    293.19271   -1090.3852    279937.58   -75648.075    7445.1951   -83093.271    1700.3927 
   32150    294.65997   -1039.5831    279396.64   -75701.274    7482.4541   -83183.728    1699.2691 
   32200    291.06634   -1077.8691    278974.91   -75709.267    7391.1992   -83100.466    1698.1511 
   32250    292.01544   -776.78891       278859   -75641.933    7415.3001   -83057.233    1700.7896 
   32300    294.04993   -912.24239    279210.39   -75632.289     7466.963   -83099.252    1705.7892 
   32350    293.87401    -1053.959    279592.29   -75672.064    7462.4959    -83134.56    1710.3206 
   32400    290.81556   -920.08128    279740.36   -75701.428     7384.831   -83086.259    1713.8077 
   32450    295.21563    -1171.035    279930.52   -75656.817    7496.5642   -83153.381    1717.0351 
   32500    291.87581   -1057.0036    279752.61   -75636.642    7411.7544   -83048.397    1715.3671 
   32550    294.59658    -1002.419    279062.06   -75635.607    7480.8444   -83116.452    1712.8491 
   32600    294.40632   -803.08345    278561.41   -75661.707     7476.013    -83137.72    1714.0022 
   32650    296.47474   -638.54266    278857.44   -75660.003    7528.5375   -83188.541    1718.4791 
   32700    291.53973   -1029.8372    279728.16   -75648.577    7403.2202   -83051.797    1725.5982 
   32750    292.62726   -1293.8011    280349.79   -75654.578    7430.8363   -83085.414    1729.8797 
   32800    290.26539   -1418.4925    280224.22    -75612.91    7370.8602    -82983.77    1731.6369 
   32850    294.42581   -912.73683    279349.07   -75619.045    7476.5079   -83095.553    1729.1954 
   32900    293.60463   -802.91093    278932.48   -75591.866    7455.6553   -83047.521    1731.9818 
   32950    297.34969   -954.02079    279034.57   -75614.678    7550.7555   -83165.434    1734.4154 
   33000    296.59303   -875.07643    279526.84   -75621.479    7531.5413    -83153.02    1738.4865 
   33050    297.01459   -1084.1667    280145.33   -75603.077    7542.2461   -83145.323     1743.086 
   33100     292.1219   -1167.3847    280574.55   -75598.979    7418.0035   -83016.983    1745.8936 
   33150    295.07982   -1152.3534    280079.58   -75592.012    7493.1156   -83085.127    1745.8103 
   33200    293.85016   -700.08761    279144.15   -75625.993    7461.8903   -83087.883    1744.4606 
   33250    297.19701   -631.76037    278605.23   -75602.088    7546.8784   -83148.966     1745.488 
   33300    302.00472   -870.60886    278617.51   -75588.016    7668.9633   -83256.979    1750.2499 
   33350    296.20161   -979.11589     279335.4   -75576.271    7521.6018   -83097.873    1755.3005 
   33400     293.7272   -1300.1333    279980.37   -75573.081    7458.7677   -83031.848    1758.9798 
   33450    297.06204   -1094.9043    280048.85   -75541.212     7543.451   -83084.663    1760.0424 
   33500    299.54176   -1032.1827    279909.54    -75507.58    7606.4199       -83114    1762.3674 
   33550    298.93377   -696.73476    279669.64    -75452.26    7590.9809    -83043.24    1763.5097 
   33600    296.39019   -1042.4429    279778.93   -75460.812    7526.3904   -82987.202    1767.2079 
   33650    296.59137   -1162.9291    279983.46   -75454.945    7531.4991   -82986.444     1773.078 
   33700    298.76867   -1062.1384    279746.24   -75480.772    7586.7885    -83067.56    1774.0855 
   33750    300.34853   -1129.9014    279691.46   -75523.492    7626.9067   -83150.399    1777.8058 
   33800    296.87177   -939.95125    279615.45   -75552.334    7538.6194   -83090.954    1778.0594 
   33850    294.92051   -896.51996    279443.28   -75603.608    7489.0702   -83092.678    1780.6702 
   33900    293.52067   -906.37319    279553.65   -75588.218    7453.5232   -83041.741    1786.4531 
   33950    289.14201   -1148.2844    279896.99   -75575.667    7342.3336   -82918.001    1787.7637 
   34000    289.69454   -841.20321    279774.53     -75571.3    7356.3642   -82927.664    1787.8613 
   34050    298.55945   -1176.1924    279558.16   -75624.373    7581.4757   -83205.849    1789.5287 
   34100    296.38038   -1113.4675    279538.71   -75641.385    7526.1413   -83167.527     1794.596 
   34150    292.17556    -839.0126    279617.44   -75666.971    7419.3662   -83086.338    1800.5034 
   34200    296.18059   -1140.1052    279705.98   -75649.543    7521.0679   -83170.611    1804.8017 
   34250    291.22503   -865.28042    279590.43   -75735.309    7395.2289   -83130.538    1807.6659 
   34300    292.13837   -886.68393    279352.08   -75760.425    7418.4218   -83178.846     1810.206 
   34350    290.36464   -677.82322    279000.64   -75740.285    7373.3805   -83113.666    1809.3321 
   34400    289.80822   -904.67095    278984.26   -75782.951    7359.2511   -83142.202    1810.4251 
   34450    295.31671   -959.14564    279196.15   -75757.348     7499.131   -83256.479    1812.2532 
   34500    290.57943   -1063.8528     279464.6   -75783.047    7378.8349   -83161.882    1815.3868 
   34550    286.26105   -1174.1351    279651.75   -75724.351     7269.176   -82993.527    1817.3137 
   34600    288.26996   -857.68511    279590.73   -75695.627    7320.1892   -83015.816      1818.06 
   34650    292.98326   -866.13946    279412.61   -75698.892    7439.8765   -83138.769    1818.4819 
   34700    290.66586   -918.88925    279345.63   -75679.827    7381.0295   -83060.856    1817.7726 
   34750    293.25282   -1133.4361    279496.58   -75773.294    7446.7217   -83220.016    1821.9706 
   34800     287.2294   -868.75014    279434.92   -75755.773    7293.7657   -83049.539    1825.2871 
   34850    289.35962   -926.19616    279537.76   -75787.926    7347.8595   -83135.785    1830.4032 
   34900    287.08239   -919.13268    279673.67   -75759.536    7290.0326   -83049.569    1835.3227 
   34950    289.31971   -1314.4265    279631.33   -75785.297     7346.846   -83132.143    1837.3917 
   35000    285.79157   -1111.0575     279375.9   -75765.682    7257.2541   -83022.936    1839.3079 
   35050    290.85068   -803.72794    279132.24   -75808.456    7385.7228   -83194.179    1839.9115 
   35100    290.16604   -879.61663    278876.88   -75804.288    7368.3375   -83172.625    1839.5453 
   35150    295.62686   -1130.6014    278800.64   -75796.971    7507.0068   -83303.978    1839.2212 
   35200     290.6916   -793.80781    279167.88   -75771.356    7381.6831   -83153.039    1842.9845 
   35250    293.15097   -1436.0201    279858.38    -75774.25    7444.1352   -83218.385    1849.3777 
   35300    289.39336   -1217.2413       279982   -75707.762    7348.7163   -83056.479    1851.1386 
   35350    294.29808   -986.84827    279203.27   -75721.986    7473.2644    -83195.25    1848.9634 
   35400     294.0247   -706.75363    278627.62    -75699.17    7466.3224   -83165.493    1850.2573 
   35450      296.887    -956.9891    279040.82   -75730.372    7539.0063   -83269.379    1855.4173 
   35500     289.7683   -1120.3467    279688.47   -75715.682    7358.2373   -83073.919    1860.2309 
   35550    292.60666   -994.74037    279700.09   -75726.286    7430.3133   -83156.599    1862.8443 
   35600    294.68381   -1083.9551    279725.55   -75673.177    7483.0594   -83156.236    1867.2507 
   35650    296.33432   -947.74318    279609.16   -75682.255    7524.9718   -83207.226    1868.3551 
   35700     291.8126   -829.76305    279339.24   -75688.606    7410.1493   -83098.755    1870.5472 
   35750    290.84398   -864.59439    279050.12   -75672.809    7385.5527   -83058.362    1870.4944 
   35800    293.21201   -870.99595    279129.34   -75668.786    7445.6853   -83114.471    1872.6707 
   35850    297.33173   -1063.3228    279546.44   -75669.562    7550.2994   -83219.862    1876.0121 
   35900    292.59946   -921.22361    279666.72   -75623.415    7430.1306   -83053.545    1880.3388 
   35950    293.90888   -1159.8439    279441.61   -75653.231    7463.3813   -83116.613     1882.679 
   36000    292.87171   -706.38757    279078.27   -75655.303    7437.0438   -83092.347    1882.3447 
   36050    295.33005   -1052.0487    279453.31   -75711.291    7499.4696    -83210.76     1886.649 
   36100    292.19537   -1123.4888    279853.61   -75648.845    7419.8692   -83068.714    1889.8454 
   36150    293.93602   -1101.7748    279873.18   -75663.038    7464.0705   -83127.108     1892.123 
   36200    287.00071   -967.65894    279752.15   -75683.173    7287.9586   -82971.132     1889.736 
   36250    287.56715   -866.63386    279440.15   -75706.719    7302.3425   -83009.062     1891.585 
   36300    298.08002   -957.69691    279232.65   -75725.912    7569.3013   -83295.213    1893.8589 
   36350    290.27563   -1055.3097     279236.9   -75741.178    7371.1203   -83112.299     1893.792 
   36400    293.21518   -1332.8724    279440.56   -75738.545    7445.7657   -83184.311    1894.5587 
   36450    293.81115   -1197.4878    279579.77   -75685.395    7460.8995   -83146.294     1898.923 
   36500    293.54232   -1130.6149    279468.82   -75628.562     7454.073   -83082.635    1901.6509 
   36550    297.32283   -908.26374     279232.9   -75644.702    7550.0735   -83194.775    1901.4013 
   36600     293.8555   -1170.4506    279546.55   -75701.881    7462.0257   -83163.907    1905.8665 
   36650    289.87533    -1157.192    279767.91   -75709.764    7360.9553   -83070.719    1908.9851 
   36700    292.32789   -1097.8043     279782.4   -75749.575    7423.2344    -83172.81    1911.3254 
   36750    289.91566   -1039.0507    279576.05   -75736.258    7361.9793   -83098.237    1911.5433 
   36800    293.26919   -887.84569    279285.73   -75746.277    7447.1372   -83193.415    1912.9864 
   36850    286.56989   -1037.9722    279298.91   -75725.371    7277.0185    -83002.39     1914.079 
   36900    290.72816   -988.77603    279213.77   -75714.205    7382.6115   -83096.817    1917.2935 
   36950    292.54155    -811.0694    279096.37   -75729.467      7428.66   -83158.127    1916.7438 
   37000    291.52096   -836.65459    278908.66   -75738.966    7402.7437    -83141.71    1917.8023 
   37050    292.38355   -779.95092    279116.17   -75732.713    7424.6477    -83157.36    1920.7881 
   37100    295.87906   -975.68768    279515.72   -75658.078     7513.411   -83171.489    1925.1118 
   37150    290.62609   -1129.4569    279972.21   -75640.118    7380.0196   -83020.137    1931.5064 
   37200    287.94919   -904.12129    280228.52   -75639.641    7312.0437   -82951.685    1936.5192 
   37250    293.25183    -1092.309    279965.56   -75676.599    7446.6965   -83123.295    1938.8483 
   37300    295.67867   -954.10454    279127.82   -75720.293    7508.3225   -83228.615    1937.0517 
   37350    295.68395   -671.52373    278759.06   -75704.138    7508.4564   -83212.595    1937.7267 
   37400    294.05558   -938.51447    279077.69   -75668.049    7467.1065   -83135.156    1940.9855 
   37450     293.5617    -1030.594    279573.99   -75645.944    7454.5652   -83100.509    1945.7201 
   37500    288.69042   -855.82873    279920.76   -75597.751    7330.8663   -82928.617    1949.1919 
   37550    295.06462   -1071.2743    280089.34   -75659.525    7492.7295   -83152.255    1952.8731 
   37600    292.08351   -946.30775    279602.42   -75679.969    7417.0287   -83096.997    1953.5609 
   37650    294.09635   -825.40404    279327.58   -75692.575    7468.1418   -83160.717    1953.6837 
[...]
   90850    296.74214   -1239.1139     279142.9    -75797.07    7535.3278   -83332.398    4636.4708 
   90900    288.05843   -1206.4166    279812.21   -75773.388    7314.8178   -83088.206    4644.7677 
   90950    290.64011    -1043.549    280067.18   -75768.399    7380.3756   -83148.774    4648.2779 
   91000    290.40801   -1571.1424    280084.11   -75778.542    7374.4819   -83153.024    4651.3657 
   91050    291.87945   -952.76803    279589.35   -75813.776    7411.8469   -83225.623    4647.4599 
   91100    284.98229   -960.59061    279171.32   -75762.978    7236.7037   -82999.681     4641.452 
   91150    291.89233    -945.9415    278903.37   -75742.221    7412.1739   -83154.395    4641.5609 
   91200    295.70554    -940.8667    278696.48   -75766.702    7509.0048   -83275.707    4642.2237 
   91250    287.75087   -1005.2346    279016.04   -75721.901    7307.0077   -83028.909    4648.4633 
   91300    289.18375   -1148.2856    279662.85   -75730.599    7343.3935   -83073.992    4658.0043 
   91350    289.55112   -1171.9754    279952.29   -75735.468    7352.7224    -83088.19    4662.2802 
   91400    289.50975   -1043.2684    279790.63   -75763.599     7351.672   -83115.271    4662.2507 
   91450    290.76445   -951.69689    279343.84   -75717.365     7383.533   -83100.898    4661.2488 
   91500    291.11226   -888.63892    279269.74   -75771.323    7392.3653   -83163.688    4663.6967 
   91550    290.39282   -1114.1513    279583.69   -75727.091    7374.0962   -83101.188    4670.9899 
   91600    291.84579   -1056.8646    279821.68   -75738.291    7410.9922   -83149.284     4674.101 
   91650    289.09415   -1077.5406    279944.19   -75710.083    7341.1184   -83051.202    4676.4926 
   91700    295.61818   -1082.3088    279703.08   -75735.568    7506.7863   -83242.354    4677.6293 
   91750    292.46352   -982.87467    279319.91   -75712.704    7426.6785   -83139.383     4674.324 
   91800    287.91189   -653.85013    279285.61   -75728.095    7311.0965   -83039.192    4674.3236 
   91850    291.57643   -982.82331    279704.52   -75720.004     7404.152   -83124.156    4682.9519 
   91900    293.74954   -1111.8331    279823.64   -75691.173     7459.335   -83150.508    4689.4795 
   91950    293.86165   -1154.6852    279626.52   -75683.235     7462.182   -83145.417    4686.5243 
   92000    295.03157   -963.91387    278991.67   -75748.933    7491.8902   -83240.823     4683.116 
   92050     289.6876   -789.33458    278599.85   -75765.672     7356.188    -83121.86    4683.7156 
   92100    293.98714     -759.468     278848.3   -75736.645    7465.3685   -83202.013    4688.9082 
   92150     291.9337   -1219.9321    279786.51    -75760.58    7413.2245   -83173.804    4698.3615 
   92200    288.69127   -1272.1955    280336.96   -75719.556    7330.8877   -83050.444    4703.1191 
   92250    292.65859   -1141.6939    279898.28   -75694.653     7431.632   -83126.285    4703.0036 
   92300    289.29623   -807.62675    279107.22   -75695.538    7346.2499   -83041.787    4697.2513 
   92350    291.53252   -898.51874    278820.66   -75663.882    7403.0371    -83066.92    4695.5732 
   92400    295.97344   -717.28582    279010.39   -75694.178    7515.8077   -83209.986    4700.8453 
   92450    288.53427   -1023.6347    279548.55   -75693.977    7326.9009   -83020.878    4712.1953 
   92500    291.80445   -1223.5586     280095.4   -75735.403    7409.9423   -83145.345    4720.1692 
   92550    287.84437    -1459.787    279995.23   -75766.868     7309.382    -83076.25    4721.4986 
   92600    294.21434   -874.33126     279215.4   -75759.343    7471.1379   -83230.481    4716.9505 
   92650    291.64663   -599.47808    278828.27   -75731.127    7405.9348   -83137.062    4715.0362 
   92700    294.42504   -795.94346    279145.86    -75731.93    7476.4884   -83208.418    4722.8859 
   92750    295.99225    -1409.657    279901.01   -75699.509    7516.2854   -83215.795    4736.3638 
   92800    293.15574   -1370.0603    280171.82   -75689.334    7444.2564    -83133.59    4743.9592 
   92850    286.61009   -1101.2393    279624.17   -75651.181    7278.0393    -82929.22    4740.7887 
   92900    294.71663   -1007.2597     279039.8   -75651.395    7483.8928   -83135.287    4736.0689 
   92950     291.2025    -817.5275    278938.61    -75623.05    7394.6567   -83017.706    4734.2932 
   93000    292.25852   -778.30746    279292.94   -75552.719    7421.4727   -82974.191    4748.9147 
   93050    291.06431   -1389.7036    280230.03   -75513.927    7391.1475   -82905.075    4764.6509 
   93100    288.97698   -1103.0802    280516.54    -75538.24    7338.1429   -82876.383    4771.6911 
   93150    292.07066   -1147.3911     280219.9   -75567.777    7416.7025    -82984.48    4771.8493 
   93200    288.59033   -983.05829    279328.26   -75631.608    7328.3244   -82959.932     4765.383 
   93250    295.00672   -759.01187    278746.24   -75645.285    7491.2594   -83136.544    4760.2293 
   93300    296.70665   -884.57626    278854.95   -75639.293    7534.4264   -83173.719    4762.6913 
   93350    293.37892   -1086.1518    279352.52   -75644.651    7449.9237   -83094.575    4770.3097 
   93400    288.70366   -1141.9838    280154.41   -75589.166    7331.2023   -82920.368    4784.6262 
   93450    298.52197    -1428.116    280526.25   -75595.636    7580.5238    -83176.16    4791.0122 
   93500    297.15614   -1308.1407    279930.62   -75641.224    7545.8406   -83187.064    4784.3025 
   93550    293.25083   -961.59987    278944.78   -75612.154     7446.671   -83058.825    4773.9722 
   93600    297.08763   -563.68163    278441.84   -75621.268     7544.101   -83165.369    4766.8123 
   93650    298.60966   -932.25853    278958.17   -75598.539    7582.7506   -83181.289     4775.637 
   93700    294.22456   -1142.3864    279725.56   -75550.838    7471.3974   -83022.235    4786.3054 
   93750    288.35259   -1010.5169     280459.4   -75584.299    7322.2876   -82906.587    4795.2595 
   93800     287.6897     -920.874    280642.16   -75600.964    7305.4544   -82906.418    4799.1066 
   93850    296.21657   -729.32981    279905.35   -75620.042    7521.9817   -83142.023    4794.3585 
   93900    298.76234   -943.46127    278856.29   -75621.875    7586.6278   -83208.503    4782.7859 
   93950    292.39599   -678.22598    278295.83   -75634.428    7424.9636   -83059.392    4774.7922 
   94000    295.00097   -627.41923    278902.12   -75683.162    7491.1132   -83174.275    4784.0956 
   94050    289.64574   -891.32792    279796.64   -75733.833    7355.1251   -83088.958    4800.1084 
   94100    288.51016   -1287.8581    280274.32   -75732.458    7326.2887   -83058.747    4808.3881 
   94150    289.42111   -1268.1447    279774.16   -75772.525    7349.4211   -83121.946    4808.8122 
   94200     292.4635   -592.15691    278972.08   -75751.406     7426.678   -83178.084    4805.0565 
   94250    292.47673   -863.56992    279041.25   -75707.079    7427.0139   -83134.093    4806.7099 
   94300    294.44854   -1081.3362    279558.68     -75699.3    7477.0852   -83176.385    4820.7308 
   94350    293.00323   -1320.3026    280072.01   -75706.937    7440.3835   -83147.321    4831.9707 
   94400    292.55074    -1085.345    279860.06   -75712.082    7428.8932   -83140.975    4833.0655 
   94450    293.78053   -824.62727    279177.01   -75719.166     7460.122   -83179.288    4826.5987 
   94500    293.79348   -773.08865    279027.48   -75755.805    7460.4509   -83216.256    4828.7069 
   94550    293.49897   -927.43702    279256.14   -75735.762    7452.9723   -83188.735    4836.6188 
   94600     293.2013   -978.01908    279645.02   -75721.136    7445.4133   -83166.549      4845.22 
   94650    297.84718   -1231.2789    279910.92   -75741.108    7563.3886   -83304.497    4850.5332 
   94700    292.72454   -881.69839    279614.13    -75725.67    7433.3068   -83158.977    4850.3479 
   94750    289.84988   -1206.3301    279331.65   -75775.849    7360.3089   -83136.157    4849.1826 
   94800    292.56307   -870.39847    279125.53   -75824.014    7429.2065   -83253.221    4851.9241 
   94850      289.268   -1189.0075    279329.56   -75863.682    7345.5329   -83209.215    4856.9282 
   94900    288.95634   -944.00428    279680.32   -75858.886    7337.6188   -83196.505      4861.97 
   94950    287.09511   -1160.3415     279841.5   -75805.961    7290.3558   -83096.317    4867.4953 
   95000    296.09624    -1169.269    279302.63    -75883.64     7518.926   -83402.566    4867.5002 
   95050    290.96936   -518.88699    278497.07   -75906.433    7388.7365   -83295.169    4861.6756 
   95100    291.71157   -1096.3616    278497.71   -75871.999     7407.584   -83279.583    4865.2195 
   95150    291.12312   -824.64786    278969.05   -75836.141    7392.6411   -83228.782    4873.6004 
   95200    290.23998   -1095.3618    279525.36   -75846.071    7370.2151   -83216.286    4884.2996 
   95250    290.26627    -1153.058    279787.68   -75856.928    7370.8827    -83227.81    4893.2584 
   95300    295.12981   -1104.4554    279647.38   -75889.091     7494.385   -83383.476    4894.5795 
   95350    289.38256   -997.74125    279342.51   -75883.382     7348.442   -83231.823     4894.457 
   95400    287.53494   -1078.8334    279241.05   -75834.252    7301.5244   -83135.776    4894.7139 
   95450     294.3782   -1135.1993     279414.8   -75826.653    7475.2989   -83301.951    4897.9143 
   95500    291.58711   -1019.8743    279656.29   -75793.343    7404.4234   -83197.766    4904.8215 
   95550    291.07188   -898.73515    279535.23   -75739.284    7391.3399   -83130.624    4907.8822 
   95600    287.97386   -1054.7992    279369.01   -75748.979    7312.6703   -83061.649     4911.197 
   95650    291.09152   -952.44385    279274.09   -75721.516    7391.8386   -83113.355     4916.316 
   95700    293.39882   -896.70087    279301.52   -75719.712     7450.429   -83170.141    4920.2718 
   95750    292.25143   -1291.5989    279612.86   -75713.505    7421.2928   -83134.798    4931.7939 
   95800    292.06715   -1129.9599    279641.98   -75698.341    7416.6133   -83114.954    4939.7081 
   95850    293.43505    -1103.138    279535.56   -75691.228     7451.349   -83142.577    4940.2906 
   95900     293.8338   -890.64196    279074.66   -75704.726    7461.4747     -83166.2    4935.0768 
   95950    287.48491   -889.89412    278917.08   -75686.819    7300.2541   -82987.073    4938.3368 
   96000    293.48261   -893.69055    279255.85   -75677.598    7452.5568   -83130.155    4946.4035 
   96050    298.40903   -865.71319    279857.03   -75672.604    7577.6558    -83250.26    4956.8106 
   96100    291.97106   -1401.9527    280201.28   -75730.967    7414.1731    -83145.14    4963.1195 
   96150    291.67081   -1272.2726    279686.88   -75755.772    7406.5487   -83162.321     4960.819 
   96200    293.45057   -1006.4955    278884.82   -75746.757    7451.7432   -83198.501    4957.9932 
   96250    292.06803    -743.7358    278629.78   -75777.182    7416.6356   -83193.817    4956.6788 
   96300    294.98788    -976.2845    279084.06   -75743.998    7490.7808   -83234.779    4958.8198 
   96350    290.56147   -1193.5051     279743.1   -75750.236    7378.3789   -83128.615     4967.122 
   96400     286.7467   -896.96022    280046.22   -75764.292    7281.5083     -83045.8    4976.2569 
   96450    291.79316   -1078.8749    279707.82   -75735.511    7409.6557   -83145.167    4973.5257 
   96500    294.93336   -760.67891    278987.93   -75730.385    7489.3965   -83219.782    4966.8356 
   96550    292.64149   -836.68225     278713.2   -75764.981    7431.1977   -83196.179    4966.1433 
   96600    292.48764   -896.84091       279139   -75820.503    7427.2909   -83247.794    4972.6976 
   96650    292.27655   -1242.4757     279658.9   -75831.905    7421.9305   -83253.836    4978.4647 
   96700    289.82438   -905.27097    279824.97   -75834.705    7359.6615   -83194.366    4982.2583 
   96750    288.61932    -1202.978    279544.43   -75867.699    7329.0606   -83196.759    4982.0934 
   96800    290.41961   -658.35706    279031.76   -75897.958    7374.7764   -83272.734    4977.2628 
   96850    290.96694   -1196.3977    279072.16   -75885.093     7388.675   -83273.768    4983.3357 
   96900    290.13101   -892.19304    279187.55   -75852.185    7367.4477   -83219.632     4984.819 
   96950    287.63539   -1182.8757    279411.46   -75843.382    7304.0752   -83147.458    4986.6099 
   97000    286.54495   -1040.9666     279509.9   -75762.208    7276.3851   -83038.593     4990.165 
   97050    289.27242   -1142.0266    279811.97   -75757.301    7345.6452   -83102.946    4998.7838 
   97100    290.73667    -1125.074    279909.23   -75762.929    7382.8278   -83145.757    5004.7536 
   97150     289.9168   -1283.3967     279546.2   -75804.398    7362.0082   -83166.406    4998.9241 
   97200    293.07488   -1167.1137    278824.26   -75795.395    7442.2029   -83237.598    4991.5392 
   97250    290.65033   -892.85053    278488.95   -75796.808    7380.6351   -83177.443    4989.4952 
   97300    289.75264   -726.45281    278794.55   -75743.725    7357.8396   -83101.565    4995.1055 
   97350    288.40243   -1226.6595    279763.38   -75696.542    7323.5531   -83020.095    5009.2055 
   97400    288.53136   -1319.3917    280228.55   -75661.616     7326.827   -82988.443    5018.5132 
   97450    293.30204   -1194.7516    280012.51   -75660.791    7447.9713   -83108.763    5018.2767 
   97500    293.89413   -749.96353    279360.31   -75689.163    7463.0068    -83152.17    5011.6651 
   97550    287.69064   -903.33773    279212.07   -75680.553    7305.4783   -82986.031    5015.7306 
   97600    290.08398   -1234.2187    279464.84   -75658.116    7366.2536    -83024.37    5022.4187 
   97650    289.65033   -1097.4657     279624.4   -75636.131    7355.2417   -82991.373    5028.2352 
   97700    291.62542   -1033.4936    279726.11   -75636.863    7405.3962   -83042.259     5032.795 
   97750     292.9552   -897.58135    279582.93   -75627.821    7439.1639   -83066.985    5035.0129 
   97800     288.8722   -1008.6952    279344.78   -75648.774    7335.4823   -82984.256    5035.5024 
   97850    293.76781   -946.94117    279177.35   -75676.766     7459.799   -83136.565    5036.3669 
   97900    293.28708   -813.83183    279356.19   -75664.385    7447.5917   -83111.976    5039.8652 
   97950    291.32254   -709.79263    279651.42   -75653.481    7397.7049   -83051.186    5044.8949 
   98000    295.35656    -1216.562    279942.23   -75623.355    7500.1429   -83123.498    5050.3828 
   98050    295.89096   -1178.8061    279704.31   -75650.884    7513.7132   -83164.597     5052.669 
   98100    294.18245   -1179.5627    279172.17   -75659.653    7470.3282   -83129.981    5047.6977 
   98150    291.43565   -736.76029    278971.67   -75691.171    7400.5772   -83091.748    5049.5623 
   98200    285.34993   -1242.7784     279510.9   -75647.083    7246.0394   -82893.122    5055.8274 
   98250    295.38995   -1106.7979    279967.17   -75591.264    7500.9908   -83092.255     5060.655 
   98300    296.68195    -891.2704    280247.98   -75585.446    7533.7994   -83119.245    5065.9802 
   98350     298.9301    -976.1685    280038.79   -75543.335    7590.8878   -83134.223    5064.5172 
   98400    298.97542    -944.9046    279476.67   -75585.765    7592.0385   -83177.804    5060.1139 
   98450    297.39675   -911.99739    279100.97    -75625.52    7551.9505    -83177.47     5057.938 
   98500    293.27931   -873.02793    279243.49   -75668.307    7447.3943   -83115.701    5064.4373 
   98550    289.75817   -1473.3586    279839.45   -75652.661    7357.9801   -83010.641    5074.2247 
   98600    291.71374   -1064.9904    279805.49   -75640.879     7407.639   -83048.518    5078.3971 
   98650    296.42009   -686.67852    279487.15   -75595.331    7527.1499   -83122.481    5077.4592 
   98700    295.03661   -1226.5712    279696.32   -75599.655    7492.0182   -83091.673    5080.6839 
   98750    297.22579   -1071.2256    279814.94   -75566.705    7547.6094   -83114.314    5085.4717 
   98800    289.76414   -1134.4773     279895.6   -75576.331    7358.1317   -82934.462    5088.8823 
   98850    297.84964   -1157.8701    279782.23   -75603.044    7563.4511   -83166.495    5089.5028 
   98900    293.06554   -941.28404    279475.49   -75599.244    7441.9659    -83041.21    5087.3158 
   98950     292.5316   -1017.9624    279316.31   -75586.575    7428.4073   -83014.983    5086.5889 
   99000     288.0375   -666.48262    279206.15   -75591.835    7314.2862   -82906.121    5085.1953 
   99050    298.06596   -1212.2223    279540.15   -75642.058    7568.9442   -83211.003    5095.7228 
   99100    291.81756   -1401.8835    279808.35   -75589.775    7410.2752    -83000.05    5105.2461 
   99150    293.64777   -1307.3942    279370.03   -75668.167    7456.7509   -83124.918    5103.0687 
   99200    297.74785   -797.19342    278879.45   -75740.675    7560.8662   -83301.541    5099.3861 
   99250    291.59662   -998.91391    278847.51   -75775.675    7404.6649    -83180.34    5098.5359 
   99300    284.20956   -900.42574    278984.92   -75789.023    7217.0814   -83006.104    5106.5928 
   99350    287.11719    -1042.733    279399.58    -75824.01    7290.9163   -83114.926    5113.7259 
   99400    288.76784   -1247.5665    279968.14   -75849.451    7332.8322   -83182.283    5122.4982 
   99450     289.7576   -1107.0225    279834.33   -75834.073    7357.9656   -83192.039    5121.4896 
   99500    290.69336   -810.22599    279096.03    -75850.84     7381.728   -83232.568     5114.839 
   99550    289.51851   -804.42737    278589.22   -75886.988    7351.8944   -83238.882     5109.895 
   99600    290.28927   -984.18115    278913.58   -75898.066    7371.4667   -83269.533    5118.4044 
   99650     291.5746   -1180.1805    279573.34   -75831.267    7404.1056   -83235.373    5132.1399 
   99700     286.2849   -1178.3711    279831.14   -75809.463    7269.7816   -83079.245    5134.6404 
   99750    294.38515   -959.44425    279417.65   -75789.589    7475.4756   -83265.065    5137.0295 
   99800    295.37389   -1076.6787    279044.19   -75825.893    7500.5831   -83326.476    5136.2792 
   99850    289.74556   -1023.8275    278921.16   -75866.485    7357.6599   -83224.145      5138.53 
   99900    289.49352   -870.46028    278965.35   -75841.745    7351.2596   -83193.004    5144.7591 
   99950    289.07813   -1000.7608    279107.74   -75823.036    7340.7115   -83163.748    5149.4412 
  100000    289.93048   -930.21354    279204.78   -75822.888    7362.3558   -83185.244    5155.5938 
Loop time of 244.774 on 6 procs for 100000 steps with 8520 atoms

Performance: 352.978 ns/day, 0.068 hours/ns, 408.540 timesteps/s
99.4% CPU use with 6 MPI tasks x no OpenMP threads

MPI task timing breakdown:
Section |  min time  |  avg time  |  max time  |%varavg| %total
---------------------------------------------------------------
Pair    | 72.461     | 126.43     | 190.39     | 430.7 | 51.65
Neigh   | 30.914     | 36.377     | 40.192     |  63.1 | 14.86
Comm    | 8.0336     | 75.539     | 134.97     | 597.1 | 30.86
Output  | 0.14821    | 0.15126    | 0.16411    |   1.5 |  0.06
Modify  | 5.0924     | 5.1694     | 5.2449     |   2.0 |  2.11
Other   |            | 1.112      |            |       |  0.45

Nlocal:        1420.00 ave        1451 max        1372 min
Histogram: 1 0 1 0 0 1 0 0 1 2
Nghost:        1953.83 ave        2012 max        1899 min
Histogram: 1 1 0 1 1 0 0 0 0 2
Neighs:        0.00000 ave           0 max           0 min
Histogram: 6 0 0 0 0 0 0 0 0 0
FullNghs:      39221.7 ave       40242 max       38158 min
Histogram: 1 0 1 0 1 1 0 0 1 1

Total # of neighbors = 235330
Ave neighs/atom = 27.620892
Neighbor list builds = 20918
Dangerous builds = 0

# Create data file for import to other simulations
#
write_data data.${NAME}
write_data data.coexist_292K_-1000atm_ML
System init for write_data ...

Total wall time: 0:04:04
