
# Import phase coexistance setup
#
read_data           data.coexist_${TEMP}K_${PRES}atm_ML
read_data           data.coexist_292K_${PRES}atm_ML
read_data           data.coexist_292K_-1000atm_ML
Reading data file ...
  orthogonal box = (-0.19221295 -0.26436685 -0.26436685) to (104.70406 51.327519 51.327519)
  3 by 1 by 2 MPI processor grid
  reading atoms ...
  8520 atoms
  reading velocities ...
  8520 velocities
  read_data CPU = 0.026 seconds

# Define potential
#
pair_style 	    sw
pair_coeff	    * * /data/emrosky-sim/Freezing_Simulations/Melting/MLmW_fancy/ML_mW.sw mW
Reading sw potential file /data/emrosky-sim/Freezing_Simulations/Melting/MLmW_fancy/ML_mW.sw with DATE: 2019-02-27

# Reset velocity/set timestep
#
velocity	    all create ${TEMP} 120598 rot yes dist gaussian
velocity	    all create 292 120598 rot yes dist gaussian
timestep	    10.0

# Define output
#
compute	            1 all msd
compute             2 all orientorder/atom nnn NULL degrees 2 4 12
thermo              1000
thermo_style        custom step temp press vol etotal ke pe c_1[4]

# Neighbor lists
#
neigh_modify        delay 0 every 1 check yes

# Set fixes
#
fix                 1 all momentum 10 linear 1 1 1 rescale
fix                 2 all nph iso ${PRES} ${PRES} ${PCOUPL}
fix                 2 all nph iso -1000 ${PRES} ${PCOUPL}
fix                 2 all nph iso -1000 -1000 ${PCOUPL}
fix                 2 all nph iso -1000 -1000 10000.0
fix                 3 all temp/csvr ${TEMP} ${TEMP} ${TCOUPL} 837492
fix                 3 all temp/csvr 292 ${TEMP} ${TCOUPL} 837492
fix                 3 all temp/csvr 292 292 ${TCOUPL} 837492
fix                 3 all temp/csvr 292 292 5000.0 837492

# Run very short equilibration
#
dump		    1 all atom 50 eq.${NAME}.dump
dump		    1 all atom 50 eq.melt_292K_-1000atm_ML.dump
run	            500
Neighbor list info ...
  update every 1 steps, delay 0 steps, check yes
  max neighbors/atom: 2000, page size: 100000
  master list distance cutoff = 6.0032907
  ghost atom cutoff = 6.0032907
  binsize = 3.0016454, bins = 35 18 18
  2 neighbor lists, perpetual/occasional/extra = 1 1 0
  (1) pair sw, perpetual
      attributes: full, newton on
      pair build: full/bin/atomonly
      stencil: full/bin/3d
      bin: standard
  (2) compute orientorder/atom, occasional, copy from (1)
      attributes: full, newton on
      pair build: copy
      stencil: none
      bin: none
Per MPI rank memory allocation (min/avg/max) = 4.592 | 4.595 | 4.600 Mbytes
Step Temp Press Volume TotEng KinEng PotEng c_1[4] 
       0          292   -921.60952    279204.78   -75770.336    7414.9081   -83185.244            0 
     500    340.40192   -788.34229    274066.74   -77575.006    8644.0032   -86219.009    15.165169 
Loop time of 1.16903 on 6 procs for 500 steps with 8520 atoms

Performance: 369.537 ns/day, 0.065 hours/ns, 427.705 timesteps/s
99.3% CPU use with 6 MPI tasks x no OpenMP threads

MPI task timing breakdown:
Section |  min time  |  avg time  |  max time  |%varavg| %total
---------------------------------------------------------------
Pair    | 0.39075    | 0.63856    | 0.93589    |  27.1 | 54.62
Neigh   | 0.1303     | 0.14911    | 0.16421    |   3.5 | 12.75
Comm    | 0.031077   | 0.34342    | 0.61023    |  39.1 | 29.38
Output  | 0.0078508  | 0.0084442  | 0.009011   |   0.4 |  0.72
Modify  | 0.02386    | 0.024313   | 0.025324   |   0.3 |  2.08
Other   |            | 0.005184   |            |       |  0.44

Nlocal:        1420.00 ave        1440 max        1396 min
Histogram: 1 1 0 0 0 0 1 2 0 1
Nghost:        2008.17 ave        2036 max        1978 min
Histogram: 1 0 1 1 0 0 1 0 1 1
Neighs:        0.00000 ave           0 max           0 min
Histogram: 6 0 0 0 0 0 0 0 0 0
FullNghs:      39639.7 ave       40472 max       38936 min
Histogram: 2 0 0 0 1 1 0 1 0 1

Total # of neighbors = 237838
Ave neighs/atom = 27.915258
Neighbor list builds = 85
Dangerous builds = 0

reset_timestep      0
undump              1
unfix               2
unfix               3


################################################
#######         Run Simulation         #########
################################################

log                 log.run_${NAME}
log                 log.run_melt_292K_-1000atm_ML
