LAMMPS data file via write_data, version 29 Oct 2020, timestep = 0

9216 atoms
1 atom types

0.4232044327151421 104.15522688744102 xlo xhi
-0.30161014259268265 50.530938282029965 ylo yhi
-0.30161014259268265 50.530938282029965 zlo zhi

Masses

1 18.015

Atoms # atomic

5 1 1.6320260812683014 1.951574504789928 1.971869364325428 0 0 0
3 1 3.407244997987161 0.5113332044200776 3.218381652960888 0 0 0
20 1 16.138885338125448 3.6775878848828407 0.5723589044974932 0 0 0
10 1 6.505034073162873 3.570811907537062 3.5080531298840754 0 0 0
12 1 9.61470871794169 3.6228397649076136 0.37911802969093067 0 0 0
13 1 8.374191286569465 1.5270714163926475 1.8699452903188216 0 0 0
161 1 13.334633916285744 37.999029523753535 0.4364219831357161 0 0 0
21 1 14.486012979408235 2.0479188666294394 1.9876819956097653 0 0 0
153 1 6.881638169372158 38.05711984720091 0.3791149441906043 0 0 0
595 1 16.054010061441225 50.47156898734144 22.517825534736705 0 -1 0
27 1 3.5718200742145023 6.950459424367945 3.283604460476577 0 0 0
8 1 5.1801815670305285 5.307563888688978 1.887789996056934 0 0 0
745 1 0.48892751693536124 44.106391175150904 19.098328327165294 0 0 0
16 1 11.114514800951396 4.940483125442384 2.1541000258640506 0 0 0
35 1 9.767792624787182 6.502134825369334 3.745997837335405 0 0 0
24 1 17.72551067118177 5.070043305255705 2.2300541601564934 0 0 0
43 1 15.755588533961214 6.916819349615401 3.4659523835882555 0 0 0
29 1 1.7508678223653433 8.435891758494677 1.9297372462055675 0 0 0
34 1 6.511310674957267 9.812123351676437 3.142248809588981 0 0 0
37 1 8.212989587965987 7.946927138120699 1.914632906146862 0 0 0
45 1 13.976516033594462 7.953667775688246 1.8107237478480476 0 0 0
42 1 13.19399949581451 9.69301255669823 3.7827280496314994 0 0 0
51 1 3.540398504807978 12.897975856261487 3.573742381725344 0 0 0
32 1 4.804279016790428 11.244049403057872 1.8218457921642697 0 0 0
59 1 9.924522230894384 12.571245063943625 3.5319574355785623 0 0 0
40 1 11.536532030219076 11.128506815264755 2.0302073317394345 0 0 0
697 1 0.4563155939417217 32.17342247191558 19.477899841542758 0 0 0
48 1 17.743036155869515 11.233008436728172 1.6138050791671683 0 0 0
67 1 15.904224149397749 12.656501116698 3.2070910593959177 0 0 0
53 1 2.3296218744001163 14.21512546797338 1.9087012354308395 0 0 0
762 1 12.969541943786018 47.50910602555197 22.048537332883484 0 0 0
58 1 6.5100107796323545 15.787036162409388 3.485364567917328 0 0 0
1585 1 19.23105456989979 12.757832728569838 0.4236623716909662 0 0 0
61 1 8.112743118904556 14.009153229677302 2.07739731251771 0 0 0
69 1 14.273188942275935 14.254765391226682 1.9454071282992818 0 0 0
66 1 12.963291336725618 15.903138741039472 3.670566959739506 0 0 0
164 1 16.324603347889422 40.90579878217322 0.6841049052282819 0 0 0
108 1 9.719125862216842 28.768678780103247 0.8910768044000471 0 0 0
75 1 3.923451018881901 19.125269875160793 3.4146962188168293 0 0 0
9 1 6.675778256331241 50.501052178124525 0.574999612067557 0 -1 0
56 1 5.442432107554522 17.326328961805363 1.7804391695098933 0 0 0
83 1 9.513165543025856 19.038933938345167 3.6925767573800985 0 0 0
64 1 11.569276122629635 17.592377302289833 2.097316718133582 0 0 0
41 1 12.602012872377045 6.12721591765166 0.4195585731404492 0 0 0
72 1 17.38765427259395 17.4402984797769 1.8955897014653014 0 0 0
91 1 15.840429464690997 19.272856025045737 3.5387377515303227 0 0 0
242 1 0.535591238514834 16.652684808489163 10.008673238879094 0 0 0
77 1 2.3121997172322564 20.635270130204752 1.8421779626458596 0 0 0
529 1 0.5792594087350134 37.91485286303259 13.062625318151582 0 0 0
82 1 6.992683034325916 22.259159302356213 3.495770136037966 0 0 0
85 1 8.303638346698838 20.7209484253377 1.9351103331824109 0 0 0
828 1 9.87143715736738 16.432929743718894 25.011335436663565 0 0 0
93 1 14.251155974843055 20.496422264348393 1.8156907678511907 0 0 0
90 1 12.522807524125103 22.088077997000525 3.493005320844779 0 0 0
137 1 13.493575668342206 31.864879056393615 0.41497834600169226 0 0 0
265 1 0.6309998457745098 19.285837186885512 6.609102830690134 0 0 0
99 1 3.551037168779842 25.213544354965766 3.4143273308905115 0 0 0
101 1 2.1737940092964054 26.929725590619682 1.913880058621527 0 0 0
80 1 5.576913785424363 23.85750156771798 1.7644239324398145 0 0 0
88 1 11.335369209046652 23.883470726087097 2.1402784876893852 0 0 0
107 1 9.793839076898612 25.225807621800463 3.83505169763261 0 0 0
36 1 9.827886070162906 9.500174914221734 0.5691237729056138 0 0 0
96 1 17.338972134387035 23.277329485266907 1.970524878594268 0 0 0
115 1 16.177252230023694 25.301573419757435 3.484743850060415 0 0 0
1970 1 19.22779360976814 16.113486762037624 16.276909785931778 0 0 0
722 1 0.4524698237263043 41.37649334521764 22.392785929226797 0 0 0
106 1 6.685683727915046 28.129054073115956 3.295691856553476 0 0 0
104 1 5.170247598229388 30.118481217757328 1.9510692271944812 0 0 0
109 1 8.453421006171128 26.6523005166279 1.9174949543009938 0 0 0
112 1 11.741673630530753 30.236200060574465 2.05345507407332 0 0 0
1897 1 19.206401434355584 44.36541808355693 6.70296583925536 0 0 0
117 1 14.582640163676238 27.346186558175184 1.7165220425999335 0 0 0
114 1 12.881511999633776 28.59307444525566 3.624917180829039 0 0 0
120 1 17.368668661510164 30.414691375711648 2.2198646498871977 0 0 0
766 1 14.377887317417176 48.75678893022729 23.85441904462562 0 0 0
123 1 3.6144262837774463 31.762668603628214 3.45282952217953 0 0 0
133 1 8.245911071404151 33.55845181991859 1.8569393289056457 0 0 0
131 1 9.828048415949164 31.93819517912158 3.405872250468799 0 0 0
141 1 14.874700011287985 33.63030294880299 2.329775655432962 0 0 0
139 1 16.115994115322277 32.15404059697552 4.15890205179497 0 0 0
746 1 0.4958706366460035 47.21180799152306 22.44601516604324 0 0 0
125 1 1.603306275569102 33.34830834041195 1.848787775908612 0 0 0
130 1 6.641652661484685 34.916125506252314 3.5172460941699284 0 0 0
128 1 5.379191042715932 36.56049047138363 1.923651036747729 0 0 0
136 1 12.15410029887742 36.15904784957513 1.644109064676647 0 0 0
138 1 13.124954606934214 34.82146735311311 3.828249363503401 0 0 0
144 1 17.646436585898403 36.29403653682836 2.24459591277979 0 0 0
74 1 0.7038540195286103 22.400115678164887 3.613574014900269 0 0 0
149 1 1.5888817063634204 39.26933554479096 1.8273614419342061 0 0 0
147 1 3.2342291404018315 37.809661253047466 3.5305595312963916 0 0 0
1561 1 19.09294000978081 6.712657133844674 0.44049231997892646 0 0 0
157 1 8.613742851179852 39.40905620892285 2.0243590643254428 0 0 0
155 1 10.3154499312691 37.74018348644104 3.262921043100149 0 0 0
165 1 14.512893985570653 39.463039315037236 2.3082674487685937 0 0 0
163 1 16.255155721964407 37.893355233592416 3.918613221920675 0 0 0
673 1 0.7810248704892471 25.80691203044802 19.226107008720344 0 0 0
68 1 15.959492316248447 15.763085254276383 0.5273098065706702 0 0 0
152 1 5.269913215578649 42.381709257293096 1.637916756579653 0 0 0
154 1 6.776011055196373 40.986947222423495 3.502101890724339 0 0 0
160 1 11.331518389533231 42.37065501021961 1.982642270351683 0 0 0
162 1 12.688889479702244 40.927021983631874 3.7147542997027747 0 0 0
168 1 17.67063339974574 42.325036449231135 2.4109182601400465 0 0 0
132 1 9.994642916142977 34.72726587360343 0.5507196143516471 0 0 0
173 1 1.8457726348152848 46.117122093057915 1.96720633607856 0 0 0
171 1 3.400306076022686 44.16609595308229 3.1169140190190023 0 0 0
181 1 8.109528104033851 45.53387613002651 2.1058105466145283 0 0 0
179 1 9.821640902503576 43.96654667979152 3.3886478486036813 0 0 0
189 1 14.695041039181564 45.81481352304037 1.7570150521914851 0 0 0
187 1 16.19630916670286 44.117710007193836 3.6287436421381463 0 0 0
506 1 0.5681659081535755 34.94780376092454 16.018860524652087 0 0 0
178 1 6.509921272244263 47.48140132675407 3.602149295013676 0 0 0
176 1 4.947086996736485 48.93380366959036 1.9664420658179262 0 0 0
184 1 11.522739185361608 48.64570543698781 2.1199011300850015 0 0 0
601 1 0.4376385111413157 6.7446235359649185 19.39938495113154 0 0 0
186 1 13.057717058459803 47.413183712477135 3.7182521366634247 0 0 0
19 1 16.124816539807444 50.45910269025681 3.7385403910203703 0 -1 0
192 1 17.670366894960114 49.04923733836519 2.2490813436723043 0 0 0
674 1 0.9360795620481273 28.99838989147913 22.791108555200115 0 0 0
196 1 2.8136636413003493 3.6908907420812707 6.32422692055752 0 0 0
17 1 13.124605629700467 50.49001119323219 0.5613359229903251 0 -1 0
7 1 4.858184300229299 2.0502057561845075 4.811408436456956 0 0 0
201 1 6.315848062593274 50.28991533692344 6.721153330161999 0 -1 0
11 1 9.74589824172945 49.98682785010281 3.570862059419817 0 -1 0
204 1 9.912041580588113 3.1797668039732425 6.606090806701467 0 0 0
18 1 12.826808957079896 3.467674422145416 3.5233408451080193 0 0 0
15 1 11.513336284892445 1.8135158943577374 4.910712576873055 0 0 0
23 1 17.42095806372656 2.101575595455454 5.0291591028020495 0 0 0
212 1 16.188886704982668 3.730678880224433 6.654883672757989 0 0 0
2210 1 19.100496450102373 28.67005221611868 22.16876462210957 0 0 0
6 1 1.6302594539765052 5.5576501256294994 4.716637802730957 0 0 0
225 1 6.253370067573469 6.696743022525201 6.770258002785849 0 0 0
14 1 8.045054351420845 4.909207527457723 5.409920098920924 0 0 0
22 1 14.770641383807614 5.110565995416074 5.045639174346856 0 0 0
233 1 13.000157142321756 6.649545752928438 6.631876532021965 0 0 0
758 1 8.561198563629915 48.91292317630047 23.857809067877483 0 0 0
220 1 3.495715129356957 9.754586560713348 6.5964403057157766 0 0 0
31 1 5.2235034516878445 8.333479374139111 5.011903075114773 0 0 0
228 1 9.839111400251745 9.584807585062363 6.821378131408864 0 0 0
39 1 11.5750905376926 8.170827449815492 5.157007885170101 0 0 0
47 1 17.39806138362251 8.4902961557108 4.966293866522608 0 0 0
236 1 16.01383553340891 9.947223730293047 7.045357852659817 0 0 0
30 1 1.756485317550593 11.592600853598695 5.222997834986107 0 0 0
249 1 6.749894576255367 13.068039093802826 6.547582006582822 0 0 0
38 1 8.087927845871771 11.40343890875483 5.186165257811842 0 0 0
46 1 14.633144865581697 11.266782188775847 5.11913703880676 0 0 0
257 1 12.892164823268248 12.741028938303902 6.383134463025978 0 0 0
244 1 3.684631223894592 16.149566310279745 6.536049391041386 0 0 0
55 1 4.852930509497364 14.310701655368712 5.174644017062919 0 0 0
252 1 9.877832037384632 15.992489740916572 6.721399163081616 0 0 0
63 1 11.236111492332235 14.358413020506063 5.012440617761338 0 0 0
260 1 16.347677232982186 15.954529585595466 6.336934133139691 0 0 0
71 1 17.603816206326897 14.406602273661848 4.706139084448478 0 0 0
587 1 10.067561603779247 50.27187158173446 22.18547778165023 0 -1 0
54 1 1.856958269855265 17.36752507111504 4.981309654718379 0 0 0
273 1 6.90039273392654 19.134382770117853 6.687089453838842 0 0 0
62 1 7.915848818180923 17.371439842597177 4.838148147741253 0 0 0
70 1 14.540926756165609 17.98177089044206 5.125434976485996 0 0 0
281 1 12.912944999805175 19.420130283356514 6.677755054261716 0 0 0
124 1 3.816690203387701 35.04215274051138 0.7119846245970503 0 0 0
268 1 3.6982451316176124 22.56238691838622 6.471087891639185 0 0 0
78 1 2.074329646704112 24.240742936319283 5.247565768786421 0 0 0
79 1 5.006398077528569 20.891073424198424 5.1392743103556 0 0 0
276 1 9.817548672768439 22.43867997203345 6.8492373553980075 0 0 0
87 1 11.308688001823771 20.77443264880274 5.153078158805739 0 0 0
95 1 17.73690140002665 20.783997045572107 4.9079283135617615 0 0 0
284 1 15.978891505554056 22.3722016660786 6.5576769096252985 0 0 0
2281 1 19.11712619995597 44.795778119102536 18.67438828368303 0 0 0
297 1 6.7899069967386 25.28562832991442 6.975361229354244 0 0 0
86 1 8.196720823834799 23.933953019569763 5.568061069051472 0 0 0
111 1 11.253920345308321 27.255927588565324 5.320308709426224 0 0 0
94 1 14.160491227159161 23.614893759596725 4.863540099459268 0 0 0
305 1 13.192180770980558 25.32790128272543 6.602676555679823 0 0 0
119 1 17.408583602553783 27.077203686008907 5.222921000008959 0 0 0
180 1 9.840932382706601 47.105697932352015 0.70693390933196 0 0 0
292 1 3.639264174903659 28.48389819551651 6.781593892824988 0 0 0
102 1 1.8978270426703976 29.869336393558875 5.47013781986428 0 0 0
103 1 5.073598786281302 26.59360817204134 4.9271426719179265 0 0 0
110 1 8.59017232545557 29.973681271106674 4.854554467464366 0 0 0
300 1 9.624489187058023 28.72815506086075 6.753946820684777 0 0 0
118 1 14.209276185298004 30.227051745143665 5.1765376479741265 0 0 0
308 1 16.06243309370937 28.883821257984025 6.495566323396597 0 0 0
754 1 6.748826018281906 47.311170048182035 22.223062967115037 0 0 0
321 1 6.94953365040933 31.931998315490773 6.422433328028435 0 0 0
127 1 5.008868691851294 33.38810855040518 5.263862307992812 0 0 0
135 1 11.136165915347828 33.52736024549118 5.201349723339015 0 0 0
329 1 12.481927661754645 31.780673278325928 6.631490568183545 0 0 0
143 1 17.694416844544058 33.499885112406545 5.844303214250263 0 0 0
126 1 1.8642502507473981 36.40952344800134 5.084367478412115 0 0 0
316 1 3.483590959160101 34.9417112515641 6.731639218829861 0 0 0
134 1 8.31256212692757 36.68112069759731 4.848308014213139 0 0 0
324 1 9.636167626981093 35.35387691934571 6.67481614453584 0 0 0
142 1 14.716560632491433 36.45360715112584 5.173078909617656 0 0 0
332 1 16.16250640649588 35.43730302971382 7.012564243534201 0 0 0
1634 1 18.710997795839354 28.7284911687648 3.6407244470048306 0 0 0
151 1 4.993442546194931 39.53643219497921 5.058527067121685 0 0 0
345 1 6.633885443620556 37.9832797554058 6.576493526678135 0 0 0
159 1 11.363440841574356 39.26438909948726 5.35714464183668 0 0 0
353 1 12.9303364179499 37.9666332814204 6.889394901581205 0 0 0
167 1 17.662544983801098 39.58645773950357 5.470689652541119 0 0 0
340 1 3.094943523777452 41.02633126378187 6.499971969486231 0 0 0
150 1 1.896366938000059 42.213426694456004 4.615708975555424 0 0 0
158 1 8.244193610682776 42.56449933838718 5.291208178032444 0 0 0
348 1 10.067341522468716 41.04569597810463 6.521902868907381 0 0 0
166 1 14.401957860871171 42.55509334117491 4.842097609871298 0 0 0
356 1 16.115651715817236 41.28883152614897 6.732167763528406 0 0 0
369 1 6.435674344454198 44.10070205214278 6.788501806174406 0 0 0
175 1 4.738619669188766 45.6702969663192 5.177413578233722 0 0 0
183 1 11.407432526776704 45.592585655605646 4.737108872760126 0 0 0
377 1 13.086972898546946 44.140243242822095 6.685821950515488 0 0 0
191 1 17.659252644667266 45.61898805142022 5.287857481066829 0 0 0
578 1 0.47092899131276916 3.180800215412295 22.61788926210269 0 0 0
364 1 3.2327644395417563 47.39962399126897 6.585525974889842 0 0 0
174 1 1.882501922131694 49.06365434103722 4.870783831905756 0 0 0
372 1 9.872169662767416 47.185677732867916 6.340210150046881 0 0 0
182 1 7.967872007370063 48.6449084473263 5.265054030935832 0 0 0
209 1 12.803013956162403 0.6514645314191154 6.675803359115886 0 0 0
190 1 14.383697475758641 49.19869286075051 5.2868420114097505 0 0 0
380 1 16.073832664568354 47.665997713162724 6.777928238425357 0 0 0
52 1 3.54746204914076 16.018416184723346 0.4309464254694282 0 0 0
197 1 2.011355185552685 2.20348080603304 8.633661805387867 0 0 0
195 1 3.5045070625536274 50.41620555922586 9.662717008557399 0 -1 0
205 1 8.237755811368594 1.795937308347269 8.112987698140383 0 0 0
213 1 14.373014881228697 2.198557128151049 8.125486350766899 0 0 0
210 1 12.913323845425822 3.291619795492597 9.849032660732835 0 0 0
1586 1 19.067135053398953 15.894299799842955 3.4912913473374587 0 0 0
219 1 3.387326821702822 6.49233455796071 9.709219414348839 0 0 0
202 1 6.6136855696119685 3.2171563797319447 9.742460038246506 0 0 0
200 1 4.661891172002509 4.614097093348587 8.010157409518039 0 0 0
227 1 10.125247786487336 6.528961009115957 10.037380907005952 0 0 0
208 1 11.718804778721509 5.14934064827646 8.23651991077718 0 0 0
216 1 17.80672100290188 5.142953625185067 8.059081245286219 0 0 0
235 1 16.20583129997751 6.852752354975846 9.876516658830838 0 0 0
221 1 2.1898551165591975 8.369947608717002 8.372623929043113 0 0 0
226 1 6.561291005059888 9.84084731221622 9.854292240353267 0 0 0
229 1 8.214679033154464 8.116752557440709 8.284726786249252 0 0 0
237 1 14.444409222748785 8.237465832319943 8.271301733667112 0 0 0
234 1 13.022361587085717 9.928760135208273 9.733944866498648 0 0 0
750 1 2.111325316899764 48.92749485008933 23.887506269752226 0 0 0
243 1 3.786203276211856 12.95824891393618 9.728487058389694 0 0 0
224 1 5.1379206813119715 11.238810127573077 8.054074083659039 0 0 0
251 1 10.035373487294384 13.385127426503571 9.89227861927362 0 0 0
232 1 11.549387606638225 11.52024994977922 8.349505073807027 0 0 0
240 1 17.605629849288277 11.617503021359154 8.397743184071036 0 0 0
259 1 16.270199407810594 13.325871644072254 9.850553316248329 0 0 0
245 1 1.9368921313401444 15.0020038437869 8.180702829680076 0 0 0
113 1 13.254160744362244 25.122491314700518 0.4141442801461497 0 0 0
250 1 6.6021671568952955 16.20404473881893 9.934507720031693 0 0 0
253 1 8.316642119338418 14.579994738009491 8.308235913697139 0 0 0
261 1 14.617227535117143 14.321375591712572 7.778632367089846 0 0 0
258 1 12.734642263233775 16.032851283119165 9.454947456656749 0 0 0
1825 1 19.0202941607408 25.65373881706603 6.406487043934291 0 0 0
267 1 3.9614366810408153 19.283302404613753 9.740423692043061 0 0 0
248 1 5.206672421711391 17.56344705334103 8.340707146853386 0 0 0
275 1 9.955729732635206 19.243862300961396 9.671404956884265 0 0 0
256 1 11.423779312618905 17.650525468225958 8.047788837697142 0 0 0
254 1 8.271562307123691 17.82446724239172 11.503691078138797 0 0 0
264 1 17.830195553884018 17.443535394932834 8.042259200816003 0 0 0
283 1 16.360192848423395 19.15450764008188 9.71765491516091 0 0 0
148 1 3.3362499558130145 41.23378856100753 0.5945246422355839 0 0 0
269 1 2.508845105098491 20.633484877860123 7.915135311520621 0 0 0
274 1 6.071614558822184 22.491639207586566 9.69485275216865 0 0 0
271 1 5.030832233433496 20.86443048172762 11.729625327008444 0 0 0
277 1 8.157996977930102 21.017727021541774 8.238564011562271 0 0 0
279 1 11.476088105494656 20.51961987042937 11.20186619102311 0 0 0
285 1 14.840443581518306 20.938272164502067 8.31935014017644 0 0 0
282 1 13.195861768329113 22.30727905114584 9.942949164770088 0 0 0
287 1 17.51661227045034 20.878265953262076 11.32342613814283 0 0 0
362 1 0.7580112417986151 47.34705416297909 10.119164477360705 0 0 0
291 1 3.357385419429858 25.585522269464033 9.874267892642532 0 0 0
293 1 1.6788515614515653 26.96375654937224 8.151718196873766 0 0 0
272 1 4.9396978969562815 24.153233615384814 8.222494527295748 0 0 0
301 1 8.480728543501446 26.947627931237488 8.564334340508436 0 0 0
280 1 11.545766160140529 23.97349589446816 8.278773895480029 0 0 0
299 1 10.024854037929037 25.53071153022784 9.974732390188663 0 0 0
288 1 17.84085717062083 23.69983204673516 8.247961089959176 0 0 0
307 1 16.16269611182527 25.642478541641186 9.372493404453431 0 0 0
804 1 9.81494592284244 9.4862263416948 25.014676261704434 0 0 0
298 1 6.662692635457105 28.85919703425428 10.241150287268786 0 0 0
296 1 4.898550930909586 30.523905578382244 8.129031947699422 0 0 0
304 1 11.22971767876295 30.282600017118867 8.245691912384139 0 0 0
309 1 14.62686578742208 27.374964145131464 8.017449237075656 0 0 0
306 1 12.843854586776642 28.699740070213196 9.58709459770153 0 0 0
312 1 17.61232039249209 30.597680285143284 8.048812294849471 0 0 0
1922 1 19.203197699475375 3.731013782369849 16.0566074260311 0 0 0
317 1 1.6757485724689507 33.434357442073136 8.287900243580651 0 0 0
315 1 3.471659663231724 32.22004724298619 9.551978935857694 0 0 0
325 1 8.024682126430083 33.646952573710365 8.205476616541162 0 0 0
323 1 9.56353809338331 32.01538878314099 10.038451393580681 0 0 0
333 1 14.437792085094209 33.547521079962635 8.47701361944131 0 0 0
331 1 16.24336982166789 31.84807667073086 10.049720815534357 0 0 0
335 1 17.4545955157265 33.574666286025675 11.529615912057004 0 0 0
2162 1 19.050404867456127 16.356029556674795 21.885684816363224 0 0 0
320 1 5.042285353002368 36.320156689797855 8.214235161706233 0 0 0
322 1 6.80572984540903 35.17193834897654 10.009529174811094 0 0 0
328 1 11.402440776739713 36.677511254423166 8.305572874146728 0 0 0
326 1 8.439764227983451 37.07006489124747 11.685017217962978 0 0 0
330 1 12.923992889408312 34.967813051662404 9.69693352922562 0 0 0
336 1 17.865661989296473 36.99338583340716 8.797401473868993 0 0 0
341 1 1.9094365375869065 39.472257296295766 8.228416357730246 0 0 0
339 1 3.7510395589175345 38.07770258364697 9.928802533741047 0 0 0
349 1 8.527659625967619 39.57012109123812 7.932177340299863 0 0 0
347 1 9.826907030352888 38.24369358182109 9.56024169754247 0 0 0
357 1 14.52685911793515 39.69929140795985 8.6965610655825 0 0 0
355 1 16.109812675215768 38.14079827016606 10.315068660672308 0 0 0
346 1 6.657435783875657 41.03181533343137 9.541463148844954 0 0 0
344 1 4.88535682619083 42.323214353321475 8.212078325494382 0 0 0
352 1 11.326450180267976 42.643982316225234 7.900209338785953 0 0 0
371 1 9.572402954225979 43.8023005000893 9.746782439913513 0 0 0
354 1 12.759074417008977 41.27135860196084 9.854829999277941 0 0 0
360 1 17.452492407843444 43.00374269057582 7.895288902278357 0 0 0
363 1 3.4923299356496216 44.15289757789152 9.670102627200654 0 0 0
365 1 1.9853429801338465 45.59308126997118 7.9606718115299975 0 0 0
373 1 8.284670903341574 45.695477836105766 8.22275305778556 0 0 0
381 1 14.664126423038192 45.882285588554154 8.315217921386527 0 0 0
379 1 15.809840509299617 44.24448667996431 9.902580135053757 0 0 0
370 1 6.798591451042126 47.54491106893613 9.582718574593422 0 0 0
368 1 4.764630150459529 48.85158224338306 8.391329154179337 0 0 0
203 1 9.551459171448297 50.29969160055471 9.54861328035606 0 -1 0
376 1 11.37566144573263 48.827083553737225 8.250595382715879 0 0 0
378 1 13.217267170182502 47.37653704636216 9.847842708181359 0 0 0
211 1 16.252432169408696 0.7917375759749351 10.072832051626525 0 0 0
384 1 17.55379283225643 49.107549782422225 8.613328439636923 0 0 0
389 1 2.095099059022326 1.7798028645775348 14.360161406103593 0 0 0
388 1 3.4404150025858793 3.618470912644458 12.890293310837698 0 0 0
199 1 5.018776822161299 1.7308737700280226 11.5501152442687 0 0 0
393 1 6.706759301741386 50.43023410265364 12.913096525976542 0 -1 0
207 1 11.060644936621573 1.6477142073852025 11.331744472586283 0 0 0
401 1 12.792740944042734 0.43645415027362644 12.69909075917256 0 0 0
215 1 18.21356027330521 2.182597178970089 11.229555023394626 0 0 0
198 1 2.0012766168572345 5.09911480548081 11.270016953218379 0 0 0
417 1 6.287873496351897 6.721764510700568 12.816109399922595 0 0 0
396 1 9.579756760378695 3.4642528196534625 12.79921974355781 0 0 0
206 1 7.832949064610194 4.92582909691071 11.365373409070148 0 0 0
214 1 14.651289771476371 4.8991029642190815 11.079847952187908 0 0 0
425 1 13.081219648666451 6.666010445378453 12.908015399414747 0 0 0
404 1 16.027381689115266 3.4901150223870756 12.856546714683196 0 0 0
412 1 3.1085370651560797 9.984283008998915 12.77192425177537 0 0 0
413 1 1.6832895347308863 8.477419130611162 14.452713294803468 0 0 0
223 1 4.666886375430844 8.355007622023262 11.300437131049518 0 0 0
231 1 11.546750114249956 8.314986303892345 11.419427304203188 0 0 0
420 1 9.789355348967446 9.766421932251724 12.984418296739289 0 0 0
429 1 14.36128555066509 8.467356407727204 14.572868599222682 0 0 0
239 1 17.8258127508499 8.523524571258024 11.437416120664269 0 0 0
428 1 16.34170112884872 10.246607078657885 12.936714598199925 0 0 0
222 1 1.8633189744456309 11.587110504355108 10.861125227846353 0 0 0
441 1 6.348220475646641 12.769252147930697 12.569744460375281 0 0 0
416 1 4.6864671105569755 11.00446667212381 14.290218857569435 0 0 0
230 1 8.267690202581049 11.599732234995715 11.250748441905714 0 0 0
424 1 11.131951636243528 11.2794219313841 14.585206854887055 0 0 0
238 1 14.59332114830461 11.718885540466976 11.165652190958507 0 0 0
449 1 12.802329434395947 13.10495934857575 13.010693571918997 0 0 0
432 1 18.16950166509174 11.361239274857741 14.682413300801846 0 0 0
1633 1 18.799494590725214 25.60095473680422 0.7080343744618552 0 0 0
436 1 3.3628395143139733 16.516001920255462 12.916025688961469 0 0 0
437 1 1.8230474659462168 14.600985536338316 14.401605523846985 0 0 0
247 1 4.99634481282561 14.80983067282319 11.525651983599264 0 0 0
440 1 5.252631701216698 17.71065212012208 14.404202000315863 0 0 0
255 1 11.52471669995019 14.782632438312918 11.356402567597058 0 0 0
444 1 9.740483446199496 16.159962305933554 12.769146280805165 0 0 0
445 1 7.925305279480789 14.4399034903202 14.163358877306655 0 0 0
453 1 14.844326657279908 14.054434725021094 14.413580821988809 0 0 0
263 1 17.66300865024103 14.425483553685005 11.563841973384845 0 0 0
452 1 15.884890402499359 15.90886027460304 13.068859701538981 0 0 0
246 1 2.2894753427161163 18.21730863050889 11.565580891665393 0 0 0
465 1 6.924880164597418 19.383557311541797 13.14811865991999 0 0 0
448 1 11.451832355315775 17.65346931261615 14.138621892356246 0 0 0
262 1 14.504153615257517 17.23330731029659 10.972481981466753 0 0 0
473 1 13.053145827703387 19.1574303607993 12.507870521758703 0 0 0
456 1 17.731459690568276 17.889102650802975 14.737701883483336 0 0 0
763 1 16.194621174483014 44.11787807335212 22.26336149340869 0 0 0
461 1 1.7653684322860936 20.897525339868924 14.737352616710993 0 0 0
460 1 3.3037241145077276 22.251265300907875 13.142145696151331 0 0 0
469 1 8.435547606769749 20.927525666046 14.611176598502272 0 0 0
468 1 10.074625129640317 22.210574547641055 12.644671323114034 0 0 0
472 1 11.272743992234368 23.78007539761097 14.412648597078638 0 0 0
477 1 14.677505682834664 20.65941971418644 14.2583356232141 0 0 0
476 1 15.834095001696724 22.615960925677154 12.852299362264851 0 0 0
480 1 17.640021894144407 24.119268308773147 14.174607839034852 0 0 0
1753 1 18.85655668875422 6.702932881434729 6.420409568066067 0 0 0
270 1 1.9600277554718906 23.807158951187336 11.04471668112 0 0 0
485 1 1.8585083774902975 27.110181226618725 14.322829639969578 0 0 0
464 1 5.227201952243553 23.720221075927093 14.298097669314865 0 0 0
489 1 6.886232926311348 25.217176500691288 12.613114793035592 0 0 0
295 1 5.151388067369455 27.005354734838043 11.216979162749045 0 0 0
278 1 8.28224055576723 23.588140851459418 10.893327586103096 0 0 0
493 1 8.333021891270391 26.985931755516564 14.425620785802835 0 0 0
286 1 14.454075644832553 24.450986036417692 11.39801942013593 0 0 0
497 1 12.937342653295014 25.74997774057037 13.080690432244756 0 0 0
2018 1 19.220253114526905 28.518376758149504 15.846716275742835 0 0 0
294 1 2.5575113898330573 30.18579363066587 11.047423606688739 0 0 0
484 1 3.6567194526508615 28.698326156119695 12.821550470142412 0 0 0
488 1 5.003808073252617 30.33274723913031 14.495172942876506 0 0 0
303 1 11.370627194090003 27.195182861762145 11.721200760092017 0 0 0
492 1 9.68813664426054 28.778750843909645 13.021362807304731 0 0 0
302 1 8.27371507081407 30.384623983074874 11.597919687244369 0 0 0
501 1 14.705986073336943 27.131770235653065 14.643770751136067 0 0 0
310 1 14.3624249590548 30.14464239508897 11.483356931000147 0 0 0
311 1 17.51927386233973 27.226315438140183 11.087305095409802 0 0 0
500 1 16.033765987131616 28.574294235632284 12.863910599703113 0 0 0
504 1 17.60246441407037 30.177904326350912 14.40118608272415 0 0 0
385 1 0.48979045793231535 0.5122887484072844 12.67434439352006 0 0 0
509 1 2.3758650167408564 33.28560697788063 14.054787995229912 0 0 0
319 1 5.0962261139479965 33.173550308638255 11.12373811407645 0 0 0
513 1 6.64133297069433 31.99372094631308 13.127871940107006 0 0 0
496 1 11.318800593675364 30.061959108029566 14.790681786837688 0 0 0
327 1 11.444812280951641 33.340079404072384 11.407006424582265 0 0 0
517 1 8.477124004573355 33.82525209834732 14.309596298834316 0 0 0
521 1 12.947699003324859 31.571745457183376 13.38643351820898 0 0 0
525 1 14.130741964936767 33.85137723383491 14.491278689058698 0 0 0
318 1 1.8976503589156168 36.44756330830066 11.237263277625972 0 0 0
508 1 3.7719835725955226 35.19629020206064 12.529047797616204 0 0 0
516 1 10.047357626231804 35.383412407015555 12.825394151792255 0 0 0
520 1 10.808438317459398 36.674155424418345 14.698479049525938 0 0 0
334 1 14.240903149811716 36.60227000446986 11.599079961612109 0 0 0
524 1 15.863151105744398 35.22405685687633 13.036157062126785 0 0 0
528 1 17.32673407151636 36.77423474598004 14.96305904065119 0 0 0
533 1 2.06817030537494 39.75139934218697 14.478576470788603 0 0 0
343 1 4.930174176236454 39.803759027411914 11.478135968896096 0 0 0
537 1 6.497339168095021 38.41068425309446 13.007867076516373 0 0 0
351 1 11.351899967678794 39.62156446887977 11.23580174726805 0 0 0
545 1 12.690049765625352 37.984794081304415 13.054700327338596 0 0 0
549 1 14.291702747688683 39.9199817281615 14.670803466474888 0 0 0
359 1 17.694744865007856 39.824702703683286 11.416353355493122 0 0 0
342 1 1.6480014556261182 42.773657197990204 11.16334565671253 0 0 0
532 1 3.1835870448580765 41.54205230355586 12.795376289659174 0 0 0
536 1 4.940283444676637 42.645086536253544 14.49463933206036 0 0 0
350 1 7.926538043912085 42.51590722478298 11.488193073457188 0 0 0
540 1 9.537633996118279 40.927306079238576 12.982636039431078 0 0 0
358 1 14.146717975368123 42.81704210727811 11.525858760399345 0 0 0
548 1 16.01600135428165 41.61292599661394 12.982527205945392 0 0 0
552 1 17.874294286003046 43.094915321211246 14.203845577218152 0 0 0
482 1 0.6797088631768583 28.90285645683698 16.35148909238226 0 0 0
561 1 6.43718428781331 44.18846846697548 13.082107940594586 0 0 0
367 1 5.0602142944134885 45.993704918862974 10.861694854913697 0 0 0
375 1 11.318242100114675 45.78099710756297 11.350970887108915 0 0 0
569 1 12.770574970215131 44.3089987259127 12.87230467226442 0 0 0
573 1 14.365285245095029 46.099456617871155 14.455720349847104 0 0 0
383 1 17.356472080309256 46.25092667373727 11.092117000853849 0 0 0
556 1 3.69633483138143 47.274075106060735 13.021630753761514 0 0 0
366 1 2.1988457926099247 48.98784164456792 11.431875867459715 0 0 0
560 1 5.463346958755347 48.66353026420258 14.70336739792088 0 0 0
564 1 9.834544694472987 47.35629367192756 13.19743433035411 0 0 0