LAMMPS data file via write_data, version 29 Oct 2020, timestep = 200000

4608 atoms
1 atom types

-0.22428860541183226 53.62428860541101 xlo xhi
0.07457157537554338 50.832548424623965 ylo yhi
0.07457157537554338 50.832548424623965 zlo zhi

Masses

1 18.015

Atoms # atomic

2693 1 6.717518146392173 12.785347584301913 0.8822288890108537 0 1 1
2221 1 0.4480125652847131 32.01584818586235 18.773087352453167 0 -1 0
1795 1 4.750926605096498 2.8811086474909895 1.0139242986367532 0 2 0
4045 1 0.7624707691299911 39.85663945990708 25.278370982458675 1 0 1
1384 1 13.37713266728014 1.2428011343588186 2.9593648811486393 0 1 0
48 1 2.3190854199893667 27.9395973266824 0.2880557426861431 0 -1 -1
1737 1 0.05877711608644193 29.45508647048073 4.940765077372197 1 0 0
2133 1 6.634301996440049 46.040587038972376 24.29140804649825 1 -2 0
1279 1 1.3178318061525465 8.70743769197409 18.284063016619303 0 -1 -1
3948 1 0.8378175114462194 44.731287854295566 2.971788130884573 0 -2 1
57 1 16.160296729217226 2.8458776533399983 3.1052396834377913 0 0 0
411 1 9.434284517636984 3.8769566928856243 1.2238292236135364 -1 1 1
1186 1 11.153473463547092 27.101867664508745 0.556281551919737 0 0 2
884 1 4.30463938789902 13.039034194154688 4.077433285784813 0 0 1
305 1 2.2502353557946635 34.340411525957215 23.63557854204388 0 0 0
2241 1 5.642342232246657 10.357236734453814 1.2922982047682698 0 -1 0
1071 1 9.565842359513837 15.414013805834859 3.235084639837238 0 0 0
3302 1 1.0474207530693038 9.368597628497344 4.448293157405581 1 1 0
2105 1 14.832772872692779 24.342858331333986 1.662532734625224 -1 0 -2
486 1 11.24919619265548 12.092482941050285 1.1026315636485284 -1 2 0
2281 1 14.903064897033863 42.74459804827694 15.274966300213643 0 0 1
3667 1 12.767488904719745 46.595587340171434 24.230518089169987 1 -1 -1
2427 1 1.1168895872585605 28.339727551064524 13.433100164389284 0 0 2
3338 1 4.728876535565587 14.829915462357164 1.3390189136507367 1 0 0
3044 1 1.1152484067522392 37.738832213842926 4.96307157471023 0 -1 1
4118 1 2.208701911829882 30.214412819641964 22.887019311737674 1 -1 1
2866 1 11.90356493790308 13.216763917771239 6.417347070658692 0 0 0
1312 1 12.364497405282886 16.532089420830815 4.58697662677221 0 1 0
4245 1 8.669575164565995 17.834090822786017 25.14491310735243 1 1 1
1650 1 0.5541390103872943 22.11065034677 2.252029956369088 0 0 1
1628 1 3.4577070710326447 15.436075938193355 10.993913786017583 0 0 0
1290 1 7.835819072267864 19.08321042327965 2.147940561153476 0 0 0
4562 1 9.811486902404162 43.374397178657475 22.91293095876901 1 -1 1
184 1 14.35212336382474 19.442059504286615 2.215049140753318 0 -1 1
2993 1 7.77161007634076 8.73885072283171 24.358639508800618 0 0 1
2338 1 2.7882186208143347 22.25209951532492 7.560197782964119 0 0 -1
4277 1 5.130780326556208 17.32576405961076 0.6928101306002985 1 1 1
4273 1 7.224869217756519 5.3730306632272145 0.9913446922168831 1 0 0
920 1 12.475357767919123 15.673675930789615 1.458142004626383 0 0 0
3132 1 15.136451937235174 15.554265886837086 1.313791745505544 0 3 0
3674 1 15.83178579332115 21.564010648253728 8.342895619042384 1 1 1
2226 1 0.8106739980918511 26.920201156866458 21.42555745118142 1 1 0
637 1 4.8111719175593795 24.478402384034098 3.553678380772371 0 -1 0
2596 1 7.483310229353543 23.51459085719328 2.9935390929062935 1 -1 0
685 1 3.0462745833501126 20.212811280636746 5.809936914083159 1 -1 1
3098 1 0.6950926855633133 17.119022324060186 10.433161027184553 1 1 0
2511 1 3.1639702297896015 25.907085735003314 1.9863136760102817 1 -1 0
2958 1 14.258498602671542 35.12990181047384 24.389044295569036 0 0 1
1660 1 14.446452019610586 4.59270062524728 1.67046525818065 1 0 0
3997 1 9.23095105062788 26.10734153760452 3.514119348451085 1 0 1
3675 1 14.0920211013175 30.10188161587879 0.8531740526653677 1 -2 1
4500 1 4.901066607785576 28.890762661493667 0.34728719665221774 0 0 1
2319 1 6.3678761966859545 29.654983254969483 2.4193298867296065 0 0 1
3470 1 11.743894497731214 3.5647944615476277 0.11347314641444659 1 0 -1
2086 1 0.7979460074742901 43.730468163569924 21.789989417049615 1 -1 0
33 1 12.451040894781656 22.61399645327115 2.624252824969609 -1 0 0
4503 1 0.9774777119235274 31.935706484687532 16.003575151184226 0 0 2
3595 1 2.0983863104064473 32.073022109388894 2.4766859901579568 1 0 1
4306 1 7.237816063784186 32.19601272331608 2.083514112977951 1 0 0
1041 1 0.9324611255462185 45.25145698163766 10.925654957887856 1 1 1
4267 1 14.538467176568279 33.103278781018766 1.8161088519034176 2 1 1
699 1 1.1430213578675543 39.619734808599226 7.982732100620384 0 0 1
2106 1 8.679289533021905 35.224106792880264 4.289356840109561 1 1 0
2310 1 3.2355457459696964 39.06575573618513 3.2215690885440202 -1 -1 1
1954 1 6.536337124327668 31.140925725086444 7.642129978028635 0 0 0
1790 1 15.470848694986335 3.944680760495248 7.336441551545354 0 0 -1
4568 1 8.091968895788419 36.54980697019704 2.0399646423983464 1 1 1
4419 1 13.77584748443126 33.546790597742174 4.528854698741131 0 0 1
2323 1 13.062546928912418 30.91903569047584 5.238490193374588 0 0 1
4394 1 17.35704640911877 37.45420524779472 2.205022058171161 0 -1 1
3519 1 0.5433577826712435 36.612847195776865 7.722907363970374 0 0 1
3969 1 0.7231682176280982 29.550639447470882 2.096327668609574 1 -1 0
1463 1 6.000377521236976 38.51245213169581 2.915394150459085 -1 0 2
2074 1 12.394061148758047 39.392558827153486 0.45406682089199446 0 1 0
1223 1 5.258361100481536 33.11688736404928 5.837939422708088 0 0 1
2841 1 1.7833283254576586 43.17820813635765 25.16198398334218 0 0 0
1579 1 0.6764057806476366 48.74104918447104 3.3280695231618815 0 -1 1
1063 1 6.3968534951906095 44.423421060218324 3.5742966404732046 0 -1 0
2488 1 5.498288887981477 42.00274689614735 3.2588029719196046 0 0 0
4009 1 8.423479475969609 40.950852990598 3.210426046834248 0 1 0
4356 1 12.93217027686939 45.520481280342736 0.2778603613218221 1 -1 2
3003 1 2.4339942283887583 17.051990712711763 2.349467491323437 1 0 0
4333 1 16.26706879986892 18.371930389802102 24.596366085274823 1 0 -1
2425 1 7.755421180237069 48.830685586091285 2.7165312084319306 1 -2 1
2076 1 0.7502715841961748 18.27651065955563 0.32509859894327275 2 1 0
2782 1 6.9650043557433 21.421414393420115 1.3436752645341843 1 2 0
2775 1 4.149657811968718 41.77407260211718 23.03554337169992 2 -1 -1
842 1 4.530417463830696 31.827822007103435 0.456509712808327 1 -1 0
2638 1 10.402665574772737 9.480073937623265 0.4494018771296786 -1 1 1
4397 1 5.1985481479353695 48.98339175020871 1.6027728412647402 0 -1 1
1630 1 11.220446714412132 48.253172080045005 1.7642870401688355 0 -1 1
1083 1 15.169524022849549 48.4970383629543 2.908705180138664 0 -1 1
1260 1 1.7820824173098924 26.615897745425475 24.50180039600693 0 -1 -1
3257 1 3.1253912419007914 50.831085267365225 2.419642553826824 0 -1 1
2726 1 4.478029073686802 4.460539650072603 9.647914413249877 0 0 1
2609 1 0.9161671656621273 8.343472765289752 7.516300642804069 1 0 1
1478 1 12.802625778038461 2.0448483343271873 5.959140504082685 1 0 2
3756 1 16.977329513051785 6.98555173494563 3.5295016744427548 1 0 1
236 1 1.6465808037424747 5.0954806773727315 5.942250077621516 0 1 0
3965 1 1.4446840341412917 14.822354046641902 7.987132500304478 0 0 1
1700 1 7.862016585775843 7.544718599139709 6.134499483019084 1 1 -1
3973 1 4.378653117528439 3.6044767212913293 3.570788684882528 0 0 1
4395 1 7.700949789689619 1.734399042990722 1.6937069473509452 0 0 1
3817 1 9.304554266494836 0.7098378320448174 4.3942714672260825 1 1 -1
1583 1 12.983946884355792 6.264591539407313 3.3677024784006933 0 0 1
3265 1 12.55460907045267 0.6742930618201022 0.22731413720949378 0 1 -1
2694 1 6.1448502892011865 6.686615115482705 3.3072942809353463 1 2 2
2457 1 6.727794065113565 31.25563450314657 25.216403390168768 0 1 0
993 1 8.799530794034146 7.674277264733547 3.7203132564808814 0 0 1
1178 1 9.642723841992641 10.316060005778919 3.9464910360966767 0 0 0
3097 1 7.624824389910552 8.521661938557358 0.8292624901362772 0 0 0
4453 1 14.569018630683823 11.885363077430616 3.726419681200253 0 1 -1
961 1 14.23818220837249 8.478062847427985 5.279368379487652 0 0 1
2218 1 3.8277540928975933 9.278235086289751 3.15497688801832 1 0 0
16 1 7.37000084084263 13.080436542392796 5.095055052278238 0 0 0
3955 1 12.46284861988232 13.721227263317287 3.7852706695520717 1 0 1
3541 1 15.847274872969312 12.437443330786543 1.0397525989791399 0 1 0
3544 1 2.8136892585928597 15.806055136213374 5.980410751047115 1 0 0
4439 1 10.73156517371897 22.799715949616832 0.6589309994204667 1 -1 0
596 1 5.410663517015785 15.941844925498021 4.399051515273325 0 1 0
1318 1 8.93394691199222 16.551536458762076 0.42975161993468264 -1 0 0
1817 1 16.550899326918177 14.418493141460527 9.762700609494289 0 1 0
627 1 2.341158570953858 4.829035565493161 1.1890682844956313 0 0 1
763 1 3.3075257458762577 7.137320869943626 1.1637120323920584 1 0 1
1706 1 1.2791690592804608 18.07500425291671 4.901871478711942 1 1 0
2068 1 6.926192115806911 19.74760129182602 6.470035096436076 1 -1 0
2702 1 5.268493474438059 18.398458609429223 3.0480001004509627 0 0 1
3837 1 14.084552475693972 13.867480804381682 9.112544986734841 1 -1 0
1537 1 11.587981062397704 16.97585934327302 6.912806860081273 1 0 1
4531 1 7.931004037208421 16.707609394230406 5.273091416649593 1 0 1
806 1 11.535668695372323 18.223593366779017 1.973151069637494 0 0 -1
1344 1 3.1085111168686423 21.6920306402095 3.4245989871153784 0 0 1
1735 1 12.051025318451385 19.859655055952906 6.260262689916777 1 0 -1
4392 1 9.78169315573916 19.05277447576811 4.628388537016591 1 1 0
4328 1 2.8437293486515802 40.63049299901775 5.7712800327356115 -1 0 0
3875 1 0.10702247528391168 23.49896117960472 7.964138347236486 0 2 1
4023 1 2.068624704948524 49.722139529548244 24.47395197662784 1 -1 -1
4194 1 7.305630608096605 22.285238573021545 5.708108583742477 0 0 0
1869 1 16.406752417068017 21.283032367673634 5.062243749752436 0 0 0
68 1 10.129913550579179 23.43774168492364 6.42967025629632 0 0 -1
3398 1 9.790020515065875 21.965864209465504 3.7062562257760674 0 1 1
662 1 16.133255203055633 23.953050749148183 6.230668381695119 -1 2 0
2622 1 1.2154135048898094 25.778549786333347 5.759953516506523 0 0 1
1989 1 7.424341533381094 25.34758165157969 9.70299585013767 0 -1 0
3040 1 6.289117237023929 24.213757290765766 7.527727343936434 0 1 2
2443 1 11.820164750113916 24.865681852844478 4.616743683117115 1 0 1
1511 1 9.050277019676633 28.947690678064383 2.4913533671124246 0 0 1
4264 1 15.059335012193838 20.37898329714239 19.635304142637747 1 1 1
1175 1 15.729060566756425 27.346651960642344 6.099960204340376 -1 -1 0
2571 1 5.227511706430257 29.49973504278813 4.773715116185836 0 1 0
1003 1 3.8919252621242055 24.648740261183228 6.163916076636054 0 -1 0
1676 1 11.200147357894823 30.07500124337477 0.480871608589379 0 -1 0
2590 1 14.162522384118029 28.651832736864495 3.4584634462152364 0 -2 1
3623 1 13.153894145296999 26.269386981957553 2.6949675812387164 0 0 0
999 1 3.012577222172646 35.44263545655137 5.1349338231381845 1 0 -1
508 1 2.9866927458040795 31.552857198891743 5.442602500231199 0 -2 1
3907 1 9.969490286895969 31.951925548887452 5.500002140176047 0 -1 1
3842 1 10.091246645920497 32.089423375542616 2.3946998753781896 0 0 2
2466 1 11.501803179636235 28.02881256419391 5.366569063556295 0 1 0
3785 1 8.550198055475342 26.158810187135945 6.813956683378213 0 0 1
1388 1 17.16908557766254 32.07615236016611 2.3000359148907323 -1 1 1
680 1 -0.1403874323116908 5.677796495596371 21.829338200787504 0 0 0
4343 1 6.212346359904306 26.853443914608654 4.5088491774472805 2 0 1
2318 1 4.058750299786355 35.91325969755395 2.484968775715425 1 0 2
4481 1 11.377294625917996 34.37542851675111 3.960248520804842 1 1 0
3767 1 8.620481859444496 29.493201329114576 5.528302315960396 1 1 1
3569 1 12.15899359790187 33.5539679425026 7.360123761020082 1 1 0
1762 1 12.919779666793358 38.8395873008341 5.527159186061738 0 -1 0
1188 1 4.455918480638123 42.687843497641985 5.640171619875829 0 0 1
1643 1 4.042503551092308 47.55800963593506 24.030554909939557 0 0 0
1654 1 7.681130674214382 36.51851885180335 7.068947652270504 1 0 0
1973 1 9.820640181675573 38.67753533822917 1.7460867539984415 1 1 0
3379 1 11.929546271453477 41.76606377349033 7.295558154523291 1 -1 0
841 1 15.298224836747504 37.91928407073312 6.376361440025716 0 0 1
2651 1 6.298158569736249 42.17986069917249 7.707732853417326 0 0 0
859 1 2.3603481976909024 1.0952073786178889 22.83732663063308 0 1 1
1037 1 7.951098943519204 44.73869469033049 5.839360047322087 -1 -1 0
1952 1 7.745283827548504 45.82408791272581 1.5903246078136861 1 0 -1
1413 1 11.317162005586066 47.47399809725611 6.239357668143689 0 -1 0
1783 1 0.19817053542202429 3.564977863863317 19.993628819812475 1 0 0
109 1 15.992261502262217 38.577171335700626 22.147283358946776 -1 -1 -2
1917 1 2.4386174118332744 44.90522818703255 5.323403144734947 0 -1 1
537 1 4.197500029523551 45.934034808869555 3.1209815858944823 0 0 1
1692 1 6.660886303074414 47.67563002465882 7.048464223291282 1 -1 0
453 1 10.49202665366874 45.829103670978085 2.5518634575641 0 -2 0
2946 1 1.118235287259345 12.756184064237203 12.307404392688813 1 -1 1
2408 1 13.573996586392656 46.80408181064309 3.965894551959351 1 -1 0
1269 1 10.673823426326349 42.93377384676523 3.4639846398902296 0 -1 0
1818 1 5.168086911509182 48.440959751591166 4.650233332141189 2 -1 0
1695 1 4.165300082904977 50.80790768008554 4.771820854383384 0 0 1
2643 1 6.363084822150105 1.6822326834670875 4.384170484524203 1 1 0
2701 1 12.07125075408404 49.81234571054489 4.134199386690058 0 -1 1
917 1 -0.15534712648953608 4.550201839154435 13.10060836000694 1 1 1
4181 1 1.713163522117138 2.705808969213427 4.592004091946516 1 1 0
541 1 2.5408235487694206 0.644746498705375 6.629950436944339 0 0 0
2722 1 7.954409242369852 49.32547692482773 8.680729345364503 1 -1 1
2986 1 17.485881953540478 19.637201016895656 14.975526889140026 0 -2 0
3568 1 11.707959788697401 1.985821687050011 8.90356566043075 0 0 0
3489 1 16.319419221992767 28.20202732696279 20.568353600583908 1 1 0
1957 1 0.14281072345006074 33.830128942516936 4.671593814424082 0 -1 -1
2262 1 5.421398588007377 2.594424226670887 7.607454603713711 1 0 0
3432 1 9.702085596686365 3.665708304478435 5.410777265688064 0 1 0
322 1 6.5905762764871225 4.4807393958831065 5.72340969204185 1 1 0
3262 1 10.623553320059338 37.49733570368345 24.671459717881305 1 0 -1
469 1 4.28558301484126 6.140556961853669 5.95772196872909 0 1 0
1607 1 10.916302367823794 4.479580501443974 8.071319286707643 1 0 0
4091 1 12.310229699891643 10.109286169859356 3.7272360720723463 0 -1 1
355 1 13.47139184223138 7.8527213002946 7.726468979897528 0 -1 0
1633 1 13.012568226935246 5.127510533189167 6.510346268472702 0 1 -1
3062 1 0.025685392412618968 6.7822831866760485 4.803630090392095 2 0 0
3147 1 2.5709880564272605 10.510619975264648 10.152217184863211 1 1 0
4517 1 16.350967288193964 17.399269268178482 2.7512513631087603 1 -1 2
2731 1 6.242399344293445 13.409555633193415 7.648520434239161 0 0 1
3183 1 4.702551713384346 9.177957563887967 5.72435868862205 1 1 0
3119 1 3.900292210097585 11.73042204845121 6.129948177380854 1 0 1
991 1 8.759025683156779 11.044571628829726 6.313465732330151 0 -1 1
2046 1 15.070243806825138 14.013044998783164 6.440141861882546 0 0 1
151 1 17.42395163769373 10.779305206456696 9.002958247827339 -1 1 1
1960 1 9.295015496493061 45.85761999701421 24.572427240789587 -1 -1 0
1730 1 4.690434356902139 15.837456338082374 8.026279939564322 2 1 0
3220 1 7.189268373890418 16.721514459442616 10.10272447578858 1 -1 0
2545 1 12.182204491010937 10.409266791587635 6.975820655418989 1 1 1
1002 1 14.551967081362614 44.585083957188125 2.4113809743249925 1 -1 0
3600 1 14.870621090502613 18.70923990488809 7.339965284613642 0 1 0
4605 1 0.46145315335585735 8.268586038821544 13.094851013000564 2 1 1
3095 1 9.560152662314561 14.82817139679057 6.55641348349238 1 0 1
4254 1 13.040563390914004 16.633747304100464 9.368246555256825 0 -1 1
445 1 6.735101680938874 43.162284100382124 23.104314016058296 0 0 0
4314 1 4.428988998581649 18.53867417667823 7.7814837690322705 1 1 1
303 1 1.0890094937940213 1.5002095785791478 0.8606057792761116 0 1 1
1645 1 9.515196252257894 21.783972217796304 10.158001649226446 0 -1 0
641 1 9.802308207467913 24.145714872513246 11.31738018067119 0 0 0
1364 1 12.144626200282387 18.135840683361938 13.436151654582545 -1 0 1
4190 1 13.942212833375175 20.62874193845209 4.365957793383068 0 0 0
4549 1 11.659737938974624 21.52511878086981 8.338067215368449 0 0 1
3573 1 16.896256205785072 24.738756386660544 9.869082592510004 0 0 0
1740 1 1.5445818838197172 25.520546352107544 14.083115004098065 0 0 0
3873 1 2.4130852713041433 24.58132828340635 11.138618849661299 0 -1 0
3713 1 1.8681243245234684 22.06340776620807 10.457570091147982 1 -1 0
800 1 1.6981756821685277 27.15122981761918 8.476438959746398 1 -1 1
1272 1 11.123739444428828 25.017885425401765 8.956717289040444 0 0 -1
2582 1 13.51964942573909 25.1093383743155 6.825776595132121 1 0 0
98 1 8.006796295253233 11.76982725294085 24.212902893101514 0 -1 1
3447 1 3.5495314774689875 44.705341172849764 0.7139036634050205 -1 -1 2
204 1 5.327182782782938 27.830645333932083 11.996923151697091 0 -1 0
2142 1 7.463101828702491 28.67671833067565 7.8479475284405344 1 0 0
1249 1 14.060991795907027 27.703990351704622 8.849230786116614 0 0 0
536 1 1.365549420113461 21.328423350690898 13.666399507270258 0 1 0
3460 1 2.1017650574477242 32.089526317545264 7.975034805549585 1 -1 1
1134 1 4.831658857037621 27.428340186381664 7.63109947850606 -1 0 0
3576 1 8.82221675782777 30.622686690558336 12.17417114728735 0 0 -1
1015 1 14.990601756344805 30.160367405645616 7.60804880370014 0 0 0
940 1 17.679957133304626 34.112654259711306 4.0410529269182325 0 -1 1
38 1 10.966934599914627 27.69214102214966 8.111741410188031 -1 1 0
448 1 15.730726789660565 8.9040373565773 1.1238194574183318 0 1 0
4058 1 5.155326638003458 32.0014338593075 9.894581061498041 1 0 0
4484 1 4.028085513976484 30.11122645522661 11.215018528609347 2 -1 0
1297 1 6.131544479748146 34.94446015823549 14.747983198979453 0 1 0
2006 1 7.61165327393623 33.00673454432058 11.037577664684187 1 1 1
4022 1 8.837403085325398 32.84322460194992 8.465336293794024 0 -1 0
2905 1 5.783412218624466 34.674774457715884 7.831612812835972 0 -1 1
629 1 16.86679742190509 33.26019066381161 9.593679646864777 1 -1 1
2752 1 6.650895778284771 50.602132524327374 23.060347538641334 0 -1 0
2306 1 15.95018387855961 41.31855908933537 0.5087901999125983 0 -1 -1
1176 1 7.092735145835086 38.72781662223855 5.56797738325109 0 0 0
2230 1 5.000554003902439 39.44719076881461 7.198117570426869 1 -1 -1
4147 1 8.24981881869482 41.39519201910615 6.076917391663284 1 0 0
2508 1 11.906573997519873 37.073619225248386 3.187016015456534 1 -1 0
2942 1 8.0825243630347 1.9861070826077507 22.482001226153745 0 1 1
106 1 11.266452181352522 38.40763927645059 7.725206109361362 -1 0 -1
2243 1 2.144744983800323 36.60535583810827 9.972517457371305 1 0 -1
3931 1 0.16648423725566847 44.10743450897011 14.084057241224938 0 -1 1
2072 1 7.267042339742269 41.620269657051296 10.71889967238091 0 0 0
1521 1 7.347016356876973 37.84529534170274 9.582159010678124 1 0 0
3810 1 10.898172004141175 43.80547188238895 6.07884948252183 0 -1 -1
2555 1 9.0458396314279 39.72573732160184 8.22901078750508 -1 0 0
1109 1 8.195158561671349 44.21145811091874 10.785931145769952 0 0 0
4290 1 14.417833035177026 42.80798526924951 8.03402123011664 0 -1 1
26 1 0.8731686732035453 44.20026751342251 7.000623292075256 1 0 0
314 1 4.170295825164672 43.66128170656261 9.338673853989876 0 -1 0
375 1 16.86418689571938 47.591771768168925 13.844156686161512 -1 -1 -1
673 1 1.8665647917503296 12.150189373010926 7.9197285678898615 0 0 0
2700 1 1.8422899184501587 42.43566225838767 8.581486928888436 1 -1 1
3975 1 4.4390958883887865 46.995090187906065 9.7476679866483 0 -1 1
3505 1 6.539247019242345 45.016863147538324 8.258899646563542 1 -1 0
3751 1 11.262345159187978 42.769907572895804 9.761915141334939 0 -1 0
1621 1 12.759661403825488 40.71529355237274 2.8573249817065705 0 -2 0
3232 1 10.023633527208164 45.449029697554174 8.654056737866904 1 0 1
1170 1 14.890949770915459 34.8941621861574 7.78270114167792 -1 0 0
3928 1 0.06367112551229598 49.83025094746774 6.770841221101917 0 -1 0
3457 1 4.945145987589892 50.187761696974675 8.932154347028678 0 -1 1
310 1 6.196959599284294 0.3035139671023682 11.396207614343032 1 1 0
3798 1 8.650094507268905 47.287576741453556 5.002558566009287 -1 1 1
3834 1 12.45127831137457 49.03155834215636 8.372402891425239 0 -1 0
677 1 10.279804651466499 50.804346091823305 7.022082669775392 1 -1 0
1718 1 7.0886626684122875 3.005647424889057 14.059508269898346 0 0 0
837 1 16.83216152818391 15.11816876172566 21.72507517690555 0 0 0
177 1 3.6467647116666 1.0169103775697117 11.459209671120298 1 0 1
2083 1 8.730234129905245 5.7064429258701175 12.995315513883375 0 0 1
388 1 11.6057872259361 3.0058218373885306 16.161374398148777 0 2 0
1067 1 7.672060612481632 1.4281891897370924 8.344291931344 0 0 0
191 1 7.815532886499417 2.6374184601970327 10.636765689106529 -1 2 -1
1793 1 15.793096091501084 1.0097662394751583 14.185716181112744 0 0 0
1110 1 0.3428376030085334 24.17744117258621 0.34894927390316544 0 0 1
487 1 2.4916337432535864 2.1219433751475405 8.865400753066865 0 -1 0
2620 1 6.29228717821943 8.218590973560381 9.713501464388205 1 -1 0
3174 1 6.326585133396217 7.122235699767 16.762617339807264 0 1 1
4352 1 10.524070996230584 2.2281117080407475 11.329414504825856 0 -1 1
4504 1 6.81420852883116 5.1128891533944 10.74368756494477 0 1 0
4223 1 13.962789984895183 1.2716427984107994 9.975877586582136 1 0 0
2101 1 1.2169552236786627 41.37986808148559 21.290430403315394 0 0 0
3240 1 6.745701614977903 9.666506873110249 7.312868002969403 2 0 -1
1927 1 8.336300883166736 5.985755806571288 8.707347896072434 2 0 1
311 1 15.770363608878922 6.451069376941506 8.841029442103912 0 0 0
3770 1 9.658907933904615 8.136921090478447 10.243832043047329 1 0 -1
3826 1 7.656551253648652 41.96902339736388 0.7357120996145189 1 1 1
3625 1 7.965956453234167 12.299018079390489 10.795578287671386 0 0 0
3343 1 9.872365417871217 10.720545497810091 9.257408893173055 0 2 1
1710 1 12.129917612888356 12.455162030941981 9.889102228041693 1 0 0
292 1 14.77497922918426 10.729839754621796 8.532042807675863 1 0 0
3208 1 1.1253891916005119 40.127099533534974 10.949559039632428 0 1 1
2135 1 3.9151098048336426 12.958435582875678 11.975472937300284 1 0 0
2021 1 7.0744665310360695 15.935230641259665 12.84968017379746 0 1 1
2708 1 9.47235915532378 50.31198192711945 1.1326253883663413 0 -1 1
4428 1 4.762698027757163 18.36913931299819 11.91961885816452 1 0 1
2206 1 7.5744445806675245 19.231257569356142 9.367461691914677 0 0 0
293 1 8.644637565077138 14.623697781853512 8.879334617611182 0 1 1
3550 1 8.846415746066373 18.152303402136933 13.948550465843212 0 -1 1
3023 1 14.425567223410415 18.6105015024173 11.244044971760857 0 0 2
905 1 16.41471792073311 17.0150514846116 9.591421477846847 0 1 1
3297 1 17.01980054742687 12.948393132151535 12.103177771362489 1 0 0
3613 1 3.0239497375258377 19.284210226799292 10.072555479626933 2 1 1
3554 1 3.9679858847847136 22.91744174115995 13.358889510080495 1 0 0
4376 1 6.9899540169493966 20.082347391016093 12.46561010635669 1 -1 1
1367 1 10.369827262251851 20.624179435298533 12.424198759880284 -1 -1 1
3971 1 13.53868563272092 21.07865678575338 10.00008772601527 0 0 0
2483 1 14.502091314982705 22.193546624018573 12.336421894002358 0 0 0
414 1 0.7330412788748011 25.01487131952246 16.94483271602992 0 0 0
1967 1 4.751995385166403 2.2598969814704546 24.321938983371904 1 1 -1
3226 1 3.8063189879253123 26.551185480949332 10.360413461346287 0 0 0
1428 1 7.7416719735135295 24.626485948694988 13.041662102459414 1 0 0
2442 1 10.641310282876715 26.112000288441898 13.928915701027199 0 0 1
1918 1 14.617680115307381 24.127733215025646 9.54951767300248 0 0 1
2152 1 12.832061191924444 25.094969746281272 11.361012392316034 1 1 1
372 1 15.841543522990541 49.26663008615329 24.460911873026543 -1 0 -1
2077 1 2.8899463627984563 4.7382180110594945 23.672588606207274 1 2 -1
3035 1 5.920248969482398 26.586293965798273 14.337134150188767 0 1 2
1242 1 2.9487646196896535 30.11466041753904 15.877134361574566 1 0 0
892 1 7.86079205818011 27.88785699354167 10.762333701561017 1 0 1
4589 1 12.732074305129776 32.85448398392226 11.344587779797248 1 0 1
972 1 16.770564416372494 27.363070891598777 10.573057237256652 -1 -2 0
990 1 0.6122239455056115 29.79832012096407 8.01327582104392 0 0 1
4413 1 4.614277732692659 31.04263899302613 13.869723694466305 1 0 1
1907 1 10.030025695096722 30.169173253264034 9.49851438522375 0 1 1
1069 1 7.8388054954806154 35.42101505026835 12.95746006493149 0 -2 1
3205 1 16.01427349155883 30.886386537576772 10.20735222688088 1 0 -1
2195 1 3.1457106314569696 33.93787694641409 10.456895772939472 0 1 0
3431 1 3.8856698992852277 33.65073438075012 13.319193729414414 2 -1 0
4186 1 12.449275351288897 31.312012964010446 9.227303472914443 1 -1 1
4303 1 10.238036918156837 35.59531227449779 7.528108218353253 0 0 0
2017 1 16.826474488974828 34.112008243134085 12.25678709003436 1 0 -1
1062 1 1.6182349020289877 38.06181320721423 12.80759694078114 0 0 1
1514 1 4.356662577433789 37.123398820792566 13.135612926465614 -1 0 1
4532 1 5.7144947076082815 35.97208026896246 10.691701829792319 1 0 1
4165 1 3.805328037949878 36.78019345372974 7.306798664727655 0 0 0
2929 1 13.806654243083317 36.10863620318542 9.663461135671398 0 0 -1
2560 1 8.762446690287696 12.849127621692334 2.690235388355022 1 1 1
1140 1 4.782221017592504 41.06451813954087 11.466297663430385 0 -2 0
2292 1 2.2621106458242384 47.500576199820884 5.523368055831796 0 -1 1
115 1 5.376500323474446 39.8684990669049 14.255569504186878 0 -1 0
1641 1 10.34071936502279 40.415201046096975 11.61008577644093 1 0 0
2556 1 12.602370426727008 39.92463908872187 12.982636215828311 0 -2 1
3991 1 16.471490994981746 40.92131694357233 11.69959385326689 2 0 0
2372 1 -0.1583624354439026 25.38558189698454 9.61476751052766 -1 0 0
2872 1 7.746784586152726 43.22350767458675 13.630804396520817 1 0 1
1956 1 7.179782022761367 47.40109512572911 10.874928509686688 0 0 0
4040 1 10.613264940073377 44.10476805143379 13.529222371013306 0 0 1
790 1 10.446934491540594 46.61068773484431 14.843119938774203 0 -2 2
818 1 12.77723123081189 44.016933414917936 11.817596635923882 1 -2 0
3452 1 13.902806941536516 46.44500880991117 13.468555287449067 2 -1 1
908 1 14.284375268015198 42.05519338111595 12.837769364716134 -1 0 0
1376 1 14.695806003008245 47.18184690041457 8.797548899053359 1 0 0
2994 1 1.6989275661771 46.37270587098114 8.550735625225732 0 0 1
1200 1 3.2206938949158523 43.29201187116408 11.959459746879311 1 -1 1
4167 1 10.617064443868676 47.818855278966645 10.425954310876277 0 0 -1
3046 1 12.004879313266128 48.218856309800294 13.165602721061758 1 0 0
47 1 8.384928167844063 49.19936690768824 12.703702567580493 0 0 0
137 1 2.9049718934246624 48.10339131316984 13.49016798176277 1 0 1
2691 1 10.56679374453236 50.74835724811551 13.200048051698838 1 -2 0
2033 1 14.559689531968173 50.68252100056387 7.364297631665801 1 -2 1
3856 1 13.814747126070046 0.38375321600387907 12.448371198697453 0 -1 -1
4044 1 2.5830581764213645 49.12528803226117 10.963926084068639 2 0 0
1447 1 1.2576955940865056 2.6995619347083393 15.483153891680665 0 0 0
4115 1 8.789586817742563 3.7399250504836536 16.214216958491622 0 1 1
3669 1 9.684899613342507 48.094086853225065 18.465577840004116 0 1 0
2383 1 12.106442440919679 0.5740486479456489 15.536130786685737 -1 1 0
1259 1 2.644759267812032 5.888786239748082 15.8916859572351 0 1 0
1354 1 4.730597329141536 4.363998852257094 14.269579634069622 1 1 0
3753 1 12.060680918795416 6.447432892092795 10.144604119951135 1 0 0
2755 1 11.320569182113521 4.805535491316021 12.24530921991722 -1 0 1
1519 1 15.81957570177801 3.314780079813566 10.14732013695915 0 0 1
1375 1 4.000241389344733 8.476540450325766 11.939043986820996 1 0 0
2026 1 15.72906138151461 38.03450866273204 9.330809199628302 -1 0 0
3746 1 4.035487575248227 7.9838976108641315 14.628392709721922 0 0 -1
996 1 9.249354087014687 8.49594521591995 12.936821495808244 1 0 0
1173 1 12.918421329390549 10.868235164997804 12.308328261056014 0 0 1
2965 1 14.328715608135376 6.397780010184351 11.234000380996301 0 0 1
434 1 14.173582331953295 8.449811060379172 13.411337957322885 -1 0 0
3637 1 16.47296543832555 39.87574685870111 4.376811017055365 1 -1 0
874 1 5.6086272997120155 11.496440517472122 9.54411999142416 0 1 2
3886 1 6.83249896404484 9.578168208827265 12.295842253613216 1 1 1
1623 1 9.267764923561865 14.554723983641717 13.093209325414996 0 0 0
3433 1 14.690353734742487 13.968261175976261 13.47531858149506 0 1 -1
2656 1 13.567009199853183 12.14231991332415 14.567416926899766 1 1 1
2369 1 5.870732385410164 15.254435334887237 18.67238344977395 0 0 0
430 1 5.534177752492074 17.462931262031194 14.984070482214925 -1 0 0
2995 1 5.406893531509265 13.807278434855657 13.560273104859515 -1 1 0
633 1 5.906106710699223 20.15259361260067 16.31489769485048 1 0 -1
4260 1 10.732831878042303 14.369988940738395 10.695562630966961 0 1 0
2168 1 13.050669351876452 15.627289904398213 12.202685807233795 0 1 -1
4229 1 3.4948835194260353 14.642885510716251 17.791627992675135 1 0 1
3466 1 2.499258265895567 18.69274669661437 13.948183109382912 0 0 -1
1998 1 5.282303806144576 21.41371398705222 9.056227955801765 1 1 0
56 1 10.303121011961876 15.70175256567479 15.7165645294833 0 0 -1
25 1 11.87989690511951 17.88692132380543 16.12128087750056 -1 -1 0
1330 1 16.96861908010167 17.54118082169824 12.951493159627908 0 1 1
854 1 13.221741949148617 45.32272900675613 6.694892857596071 0 0 1
3375 1 14.05852077644827 17.22579638401367 17.64893702185237 0 -1 0
1246 1 3.2563616470613956 19.998423416412912 16.356041192517164 -1 1 0
4449 1 5.187658900255994 19.033782009943074 19.375486404668788 1 -1 1
2800 1 5.87301639629292 23.73603370946947 11.012468779218242 0 -1 1
2680 1 9.657352135873666 22.267875253387725 15.196793574200344 1 1 0
3418 1 6.852496133811653 22.21965071050601 14.254710115446986 0 1 0