LAMMPS data file via write_data, version 29 Oct 2020, timestep = 100000

8515 atoms
1 atom types

0.35766793593452206 104.22076338422201 xlo xhi
-0.33372546308250506 50.56305360252067 ylo yhi
-0.33372546308250506 50.56305360252067 zlo zhi

Masses

1 18.015

Atoms # atomic

40 1 6.5427745700540125 0.5881381604152753 1.8120377407194201 0 0 0
120 1 12.999750508241862 0.5770832244317917 1.7983567865719974 0 0 0
1365 1 19.53755435316784 1.3497675419682316 1.9254912213668889 0 0 0
1385 1 25.519057526607586 1.3881840930293146 1.6132284589698762 0 0 0
2375 1 31.604579219151688 0.5256706183201725 0.8791547107016009 0 0 0
662 1 3.3680280792369253 4.5623235776925615 1.7259725086278763 0 0 0
5 1 9.48541858514915 4.547470764446978 1.6159086476436346 0 0 0
3 1 16.017838979431275 4.602288062674195 1.8093936964220303 0 0 0
1375 1 22.322968618052563 4.708399178713587 1.7030880442617877 0 0 0
2823 1 28.28037792812263 4.101568867717448 0.8630924338215604 0 0 0
2576 1 34.76389914336904 4.388551988662558 0.7851007427125893 0 0 0
2118 1 6.343807979168467 7.756609885770969 0.7003662247014046 0 0 0
44 1 12.476497416766469 7.0550113795391445 1.6564002906760245 0 0 0
91 1 18.9756263151187 7.641192343506965 1.6773604888339415 0 0 0
1311 1 25.30301950251107 7.490553919294442 1.6774882060761778 0 0 0
765 1 29.905828118622715 5.882005154081119 3.0261709942785693 0 0 0
1182 1 31.8329385849986 7.620474755936048 1.6189393916543928 0 0 0
1387 1 3.0182545483438963 11.000942182410009 0.6817652597098189 0 0 0
62 1 9.69886530253955 10.432232356376998 1.8061544770046711 0 0 0
1937 1 15.70662986197695 10.683054896782142 0.7610542821097468 0 0 0
1371 1 22.354664455975932 10.454959151904774 2.0559669620821186 0 0 0
1374 1 29.057837628925732 10.314824920368292 1.6480004859995006 0 0 0
1856 1 6.046710727678669 13.818533382909697 0.6368678750637121 0 0 0
2136 1 12.835231674639171 13.5126241426886 0.904401496719287 0 0 0
28 1 17.624016759003382 12.167255440716994 2.8521558144664736 0 0 0
33 1 19.113915393081196 13.694006459521725 1.6605092746758017 0 0 0
2827 1 25.594224238008607 13.667706406336597 0.7878908353187022 0 0 0
835 1 31.62007247226735 13.79031264296305 1.680227559303436 0 0 0
219 1 3.4105055066444483 16.958709901230986 1.6678025323890306 0 0 0
41 1 5.307869998256164 18.26827532172095 3.019000459163956 0 0 0
692 1 9.751382910423413 16.579632444544618 1.7431383048549787 0 0 0
97 1 15.838219281358867 16.70305634148732 1.764287675666929 0 0 0
2249 1 22.45286229788113 16.745073583700027 0.8611671822966502 0 0 0
2548 1 28.665176137222325 16.896819629968494 0.8883110795942013 0 0 0
2294 1 34.73217041752356 17.165265737931925 0.929840143927412 0 0 0
784 1 33.086255958545536 15.558608410383682 3.0243395128681323 0 0 0
7525 1 1.2846252710847474 31.738013952435114 2.4818695198419265 1 -2 -2
1499 1 6.739323560351517 19.928370656011346 0.9142473627773635 0 0 0
1434 1 12.735734592606352 20.003562857558617 0.6374019375473092 0 0 0
753 1 19.06791064522667 20.023153568717884 1.9073162358360567 0 0 0
2369 1 25.671345951293905 20.04871186736155 0.6724625806950808 0 0 0
1381 1 31.59042206504727 20.01995837039932 1.669338328524646 0 0 0
1469 1 3.8182109659029333 23.282602278609986 0.6676349467201796 0 0 0
1668 1 9.594535024060004 23.29956740009615 0.6640743448656299 0 0 0
2132 1 15.889198566692961 22.951859191184887 0.583924961967775 0 0 0
1380 1 22.360523256027673 23.338276842685346 1.9469544197625392 0 0 0
778 1 28.576544500285973 23.17271707790196 1.9354056777183186 0 0 0
1156 1 34.7788324333474 23.113949292459978 1.8473159928957186 0 0 0
2807 1 20.399859715399494 24.92650902658438 -0.15485641009882703 0 0 1
2119 1 6.753371652579954 26.349090822181882 0.6555081840378917 0 0 0
59 1 5.442521603557383 24.807700541671693 3.0029649856711234 0 0 0
246 1 13.129469325262075 26.074288695678103 1.6509791563267877 0 0 0
353 1 18.681810106324633 26.55335669129081 1.9452406022606823 0 0 0
836 1 25.521820078747805 26.414131523412046 1.7280488822576077 0 0 0
767 1 31.691045259047854 26.47639916573254 1.641025626785925 0 0 0
754 1 3.5875510270650923 29.453443452301475 1.6858695691106598 0 0 0
38 1 9.589967668119153 29.72508338549228 2.1285143196901943 0 0 0
2131 1 16.275777791626354 29.782279433209396 0.8998154291708906 0 0 0
72 1 14.459627375439428 28.30079374065289 2.9550025682915075 0 0 0
1370 1 22.239524097296034 29.20114379419772 1.9549175901642148 0 0 0
1261 1 28.826033580586476 29.688388587601537 1.7308832442959883 0 0 0
2224 1 34.66500175700137 29.338716163850314 0.895075164715746 0 0 0
1408 1 6.636448708728535 33.01000263779382 0.8706189468691534 0 0 0
55 1 13.369186767501306 32.82519593717524 1.6518142760856196 0 0 0
1526 1 18.827226452307062 32.68656814081933 0.8105483355192136 0 0 0
819 1 25.418154439584043 32.56661869627675 2.0509512421577885 0 0 0
2746 1 30.192076017361085 33.97515419071452 -0.11823843570608161 0 0 1
1122 1 31.867122329279383 32.53807708901452 2.0979992436595483 0 0 0
159 1 3.680073850345953 36.00648433886386 1.9491958438257093 0 0 0
103 1 9.865832857984115 35.691199589380815 1.78772706345153 0 0 0
85 1 12.028018872986411 37.124790726547744 2.882498091277041 0 0 0
1495 1 16.165885400089778 35.83918242016266 0.7685775033879003 0 0 0
1229 1 22.177318192271223 36.019695230046295 1.7286326167815291 0 0 0
2771 1 23.863201815224965 34.2188950540087 -0.10426141424141253 0 0 1
1372 1 28.405033463318773 35.21817806110228 1.9033156852794106 0 0 0
2781 1 34.74664914025955 35.566426802026726 0.8003038724321889 0 0 0
1284 1 33.25909861409224 40.7266062944221 22.13246721742596 0 0 0
9 1 6.748894602143934 39.02526107689427 1.6159055582441422 0 0 0
7 1 13.210044180920988 38.967097352077246 1.6732850088229312 0 0 0
810 1 19.32685289258084 38.64519152076436 1.664299619137229 0 0 0
1378 1 25.613344909121466 39.031343532813096 1.8208485444935527 0 0 0
2112 1 5.040187888240068 40.82047442115659 -0.3295222553446462 0 0 1
1339 1 31.616846560730185 38.823601797842414 1.91449457942779 0 0 0
259 1 3.1990265313964366 42.205943743849645 1.8315874421901142 0 0 0
98 1 5.135133116048506 43.35531492185298 2.8762979587460604 0 0 0
2044 1 9.870036369918617 41.656123408596144 0.8180848610106786 0 0 0
37 1 16.203791657480018 41.877539525952315 1.9212808963935988 0 0 0
1379 1 22.259181461623047 41.829358362192565 1.8139246052561209 0 0 0
1093 1 28.309216093657557 42.04139537643894 2.0209873158264915 0 0 0
762 1 34.80429942421073 42.062653274964404 1.7689710233627132 0 0 0
2792 1 20.933886813815402 12.39006774481359 -0.21650281734931298 0 0 1
2129 1 6.3337006053962925 45.18045206124167 0.8420488087778277 0 0 0
691 1 13.200442150422028 44.749033789501595 1.778120222269044 0 0 0
108 1 14.572170277668294 46.792757165809135 2.995546743760965 0 0 0
755 1 19.07217376206878 44.74078708963957 1.9400386158822287 0 0 0
1376 1 25.345587448484114 45.198050428103144 1.6476966645217108 0 0 0
2260 1 31.207688077354916 45.463743216223875 0.7945574419648913 0 0 0
1485 1 3.0631526427264695 48.53199793705922 0.6872023121518056 0 0 0
174 1 9.711928100052265 48.08527270194081 1.944138746612745 0 0 0
1514 1 16.144854392157562 48.53029440214114 0.6219745406421293 0 0 0
847 1 24.061159762409787 49.74625941015435 2.69545994706026 0 0 0
2831 1 22.084345466151223 48.483025723895125 0.8119906845728593 0 0 0
1382 1 27.994108876265518 48.2649722293732 1.7051684860256278 0 0 0
850 1 29.9674637451124 50.07196693451357 2.8883889560397926 0 0 0
2 1 3.270111280996367 1.4320325879579063 4.458759888061392 0 0 0
123 1 9.616773876490413 0.07326407236208565 4.811685679281451 0 0 0
116 1 16.003752404161407 0.5461356663026992 4.979575884712362 0 0 0
844 1 22.453027633565892 1.4383115387783905 4.456787574968292 0 0 0
849 1 28.715807045647132 1.5244320235018614 4.752834741486842 0 0 0
931 1 33.07515579107597 50.09979057754316 5.928107304139945 0 0 0
852 1 34.76170190556939 1.3904259300886541 4.925308179955659 0 0 0
1 1 1.4926492454012257 2.8740937384976535 3.210672540025008 0 0 0
4 1 6.371814639128113 4.49537716607556 4.748797386071995 0 0 0
121 1 4.722883951115589 2.972849617688704 6.053799577354797 0 0 0
6 1 8.243333669316016 2.449054259415691 3.108619677499901 0 0 0
125 1 12.701577547755331 4.3921093589314655 4.7641044184414465 0 0 0
126 1 11.386445206827155 2.7358606809188313 6.153229195811952 0 0 0
8 1 14.362878095660404 2.970559838481702 3.2265051517248 0 0 0
756 1 20.77656139164152 3.188391565849093 3.540366686797922 0 0 0
786 1 19.180639569412346 4.572134791983444 4.899478899973878 0 0 0
759 1 26.73414067312042 2.5880533334266405 3.439292623143504 0 0 0
758 1 25.123482534240612 4.492231768650054 4.839341112944942 0 0 0
760 1 33.12945748929834 2.8749710495904064 3.161882347268911 0 0 0
761 1 31.63348941709882 4.074696941451637 4.554795805758304 0 0 0
11 1 3.4348943098635614 7.879295114608659 4.5240651093624 0 0 0
130 1 1.49088038584684 6.484725899501727 5.958909194004728 0 0 0
12 1 5.045288085002681 6.234323660318106 3.1264869313280617 0 0 0
15 1 9.638695924701608 7.430404024704588 4.987042754055308 0 0 0
14 1 10.987119782785516 5.866779063692633 3.3931334633260466 0 0 0
16 1 17.6064691295859 5.996502952264356 3.469183571219783 0 0 0
17 1 15.634057851736667 7.845612533161837 4.706643442405514 0 0 0
764 1 23.64286624485731 6.235518470739552 3.166074714285856 0 0 0
763 1 22.06165355105906 7.8319759784175975 4.882961205794796 0 0 0
766 1 28.658421109742733 7.143893631898876 4.993167764496519 0 0 0
768 1 34.69487428065732 6.965350004958496 4.829298696312472 0 0 0
18 1 1.6116411517259899 9.366604401079893 3.1684871848938285 0 0 0
19 1 6.37809917186753 10.744574963487885 4.382530845276493 0 0 0
20 1 8.081928280581675 8.877021938163264 3.1533637593971453 0 0 0
21 1 13.852737363209911 8.883771093018694 3.049323304280849 0 0 0
22 1 13.069232058578068 10.625313663311998 5.023819377660253 0 0 0
140 1 17.278606085913335 9.421077542229455 6.208880716483773 0 0 0
769 1 20.416795230482126 8.850063237703566 3.1202013052911983 0 0 0
728 1 18.989856751298824 10.806943780121262 4.71537894803544 0 0 0
772 1 27.1151128433388 8.851460476559723 3.0536351835615494 0 0 0
771 1 25.72868533688968 10.470410103855512 4.874756162549575 0 0 0
774 1 33.45064110077372 9.109035962245732 3.117179769047422 0 0 0
775 1 31.760211607435128 10.624788887106925 4.8078485716516415 0 0 0
23 1 3.403433037007026 13.834326668298743 4.8145696410849865 0 0 0
24 1 4.668910554410675 12.178310358113551 3.0604594021130604 0 0 0
25 1 9.795623570123999 13.50718302774051 4.772731896604291 0 0 0
34 1 7.981555142778385 14.946908095557383 3.316333830494214 0 0 0
26 1 11.409670261673952 12.062621773814898 3.2690842217254423 0 0 0
29 1 15.782881279139824 13.59254680774963 4.447455028006115 0 0 0
777 1 24.04183978318161 12.01839643270025 3.083109105054597 0 0 0
776 1 22.26865237039746 13.761558217165307 4.730962866511469 0 0 0
780 1 30.188285837462313 12.235690596194331 3.303270144685984 0 0 0
779 1 28.591958540486992 14.005507017060907 4.67810564253743 0 0 0
873 1 32.98515194684883 12.624979109049368 6.156766106797616 0 0 0
30 1 2.1911265018145833 15.153140594833829 3.147424593581492 0 0 0
32 1 6.376797634030123 16.727037513344992 4.726080155448606 0 0 0
35 1 14.149785139799098 15.192830606029252 3.184176867029013 0 0 0
36 1 12.838232382865685 16.843286796070533 4.911516564031773 0 0 0
152 1 17.484620894879217 15.344859345464263 5.948397209824449 0 0 0
781 1 20.58502729045481 15.449701737037167 3.3765864431186805 0 0 0
225 1 18.949788752287443 16.83443668622561 4.732014423787443 0 0 0
788 1 24.31137909832848 18.261024678400343 3.0640591638602546 0 0 0
783 1 26.83886423460908 15.436908977273955 3.2308842047617463 0 0 0
782 1 25.456119507416915 16.732036431711332 5.04597742753783 0 0 0
790 1 30.142984996659585 18.273882295266983 3.2441802556528727 0 0 0
785 1 31.61793023994447 16.983223061531746 4.737008277782704 0 0 0
39 1 3.7869695659350855 20.069489328429146 4.655322511722957 0 0 0
42 1 9.383747103008774 19.983044299846544 4.933554172660651 0 0 0
156 1 7.7844120517127 18.31344320340811 6.080573076218988 0 0 0
43 1 11.442455728638931 18.53465983373313 3.3362784057351615 0 0 0
53 1 14.127724332100977 21.44237426889688 3.0542966004767633 0 0 0
45 1 17.26818582474028 18.382388848509688 3.134296492234392 0 0 0
46 1 15.71900598518524 20.217261964203768 4.779520779980741 0 0 0
880 1 20.73332511072531 18.633413486437078 6.0044828389585545 0 0 0
787 1 22.516640581858503 19.81707852360189 4.107089498657543 0 0 0
795 1 26.951597926928795 21.416985649847323 3.4537548157265494 0 0 0
789 1 28.662317164545012 19.881076366664978 5.0877378197436 0 0 0
792 1 34.83088753586012 20.120843853515684 4.645947352188491 0 0 0
48 1 2.17368233047731 21.581397579182557 3.080817263778258 0 0 0
88 1 0.5633043704088281 23.348473138508915 4.854451604440188 0 0 0
50 1 6.860079780402738 23.207338654015803 4.736498871765072 0 0 0
51 1 8.17269158064777 21.667184135103774 3.173867061158866 0 0 0
54 1 12.397191986766748 23.036041174922993 4.733730563025971 0 0 0
171 1 14.036945022880253 24.564786180850305 6.105997112524205 0 0 0
63 1 17.219442173093533 24.226795369383606 3.2093263554376046 0 0 0
165 1 17.617874251449493 21.73031242187925 6.150441414380239 0 0 0
793 1 20.592656579024275 21.471319672812783 3.3204155609515107 0 0 0
1003 1 19.132474470650145 23.150804385863395 4.6768314979849555 0 0 0
794 1 25.363138376381443 22.985179775870243 4.96214339929103 0 0 0
798 1 31.43865824846486 22.919481411037268 5.1246456038867 0 0 0
797 1 32.9728519279921 21.828212404691076 3.3164880970913466 0 0 0
57 1 3.414085143708539 26.16545678811487 4.654953157679821 0 0 0
177 1 4.938570629118265 27.547264416712494 6.169680051482673 0 0 0
61 1 9.664775288409148 26.17773555048392 5.076209140415785 0 0 0
69 1 8.322663501461161 27.606030923366813 3.1562294239584134 0 0 0
60 1 11.2082532565707 24.833702513972945 3.3792944606273907 0 0 0
64 1 16.05625435070482 26.253597084065234 4.725458653269169 0 0 0
802 1 24.216726223863375 24.973143394085447 3.3768020887122265 0 0 0
800 1 22.146063679869542 26.273254757447305 4.663743243586072 0 0 0
807 1 27.243755466546617 27.786948413099864 3.13931591801997 0 0 0
804 1 30.345487995800752 24.730603913801207 3.1876452741374033 0 0 0
803 1 28.55335667925138 26.142791813148662 4.77229443821604 0 0 0
805 1 33.3401883243314 27.561238240753692 3.704522052792127 0 0 0
58 1 2.0351017368115096 27.883806544219215 3.1526099605938795 0 0 0
3144 1 34.95233477010668 45.38044236934344 10.738328035105363 0 0 0
67 1 6.552692557924973 29.084650465929702 4.5361677787481565 0 0 0
178 1 8.459587616033879 30.931608485231827 6.097000126526217 0 0 0
73 1 12.756349711602727 29.549257161729642 4.865809103288644 0 0 0
801 1 20.278354898736872 27.94439524641032 3.3763373856846806 0 0 0
194 1 18.59320148926853 29.68484499417009 4.881636343100419 0 0 0
891 1 23.80785072845855 27.899808829233944 5.973705016325341 0 0 0
814 1 23.58205733943193 30.79428650658337 3.242919248915679 0 0 0
806 1 25.40265632094975 29.48249015897029 4.547071460055844 0 0 0
809 1 31.605074597591194 29.37505435485859 4.771221384592296 0 0 0
76 1 3.4775543554868746 32.72285633402855 4.693503999301958 0 0 0
68 1 5.035341563905936 31.0765913972026 3.1898461204000266 0 0 0
78 1 9.699027853460953 32.89860470018387 4.646487393645489 0 0 0
70 1 11.615071073393418 31.194458986381107 3.2923613392812525 0 0 0
74 1 17.249176223948247 31.373175838341364 3.458981185759178 0 0 0
80 1 15.99491883189552 33.114722854504805 5.40046870317529 0 0 0
897 1 20.615157539972543 31.341891579708484 6.018903460165884 0 0 0
812 1 22.286653699197476 32.696443307879846 4.58479162355642 0 0 0
815 1 26.769943285564956 34.02000440813457 3.6649236737015753 0 0 0
808 1 30.137884071604912 31.08134767515926 3.5465772757984384 0 0 0
816 1 28.429361218314018 32.54942993825409 4.974219566508483 0 0 0
818 1 34.87068858694511 32.65454875823035 4.731802641670824 0 0 0
82 1 1.4638931501279824 34.310499642538815 3.0874354290235355 0 0 0
83 1 6.508605855023283 35.880297859984594 4.758001966340092 0 0 0
77 1 8.114891362720966 34.520908653694576 3.0955972821036193 0 0 0
86 1 13.000099926433917 35.785520099345234 5.069398211040063 0 0 0
79 1 14.752056262018632 34.59285057173405 3.5690310718955023 0 0 0
87 1 17.527295128416046 37.25994998187298 3.483743698410538 0 0 0
811 1 20.315325831647016 34.509496623145395 3.289341745446712 0 0 0
744 1 18.929120522390356 35.86859551083481 5.163214895987935 0 0 0
821 1 25.417107691702995 36.00326557571232 4.870886776318897 0 0 0
822 1 29.4482648778547 37.22822523961213 3.205325561062211 0 0 0
817 1 33.23422864603324 34.352492405833715 3.528651234097648 0 0 0
823 1 31.759422231881285 36.3124027637286 4.90535297995289 0 0 0
89 1 1.4494503544246742 40.23900849763902 3.0659820213096265 0 0 0
90 1 3.0968768052267928 38.777489800719664 4.771332225967937 0 0 0
84 1 5.244549023708823 37.52674060045416 3.162393285065401 0 0 0
93 1 10.18704523622628 38.70792424387666 4.5033555569764046 0 0 0
92 1 8.48318792484033 40.37890570904199 3.2632285645979473 0 0 0
190 1 8.181626636725934 37.647523251775 6.090745780424668 0 0 0
95 1 16.134256279402265 38.86128953472773 5.159876250798379 0 0 0
94 1 14.389793067939605 40.43295702675917 3.5474956880395614 0 0 0
825 1 20.729484696654357 40.52872915126542 3.4926276225722956 0 0 0
820 1 23.74371083539333 37.55429775351028 3.452071569817738 0 0 0
826 1 22.11895246688502 38.87735762927889 4.864228962177623 0 0 0
828 1 28.71819291008849 38.63498106604105 5.403805270105315 0 0 0
829 1 33.12736756482538 40.41857901804292 3.2553783773754477 0 0 0
201 1 1.7573241161296684 43.18681972169448 5.857852835877927 0 0 0
99 1 6.643134020387554 41.95879050318902 4.7428386270861935 0 0 0
100 1 11.204397571265865 43.34424670693123 3.221459058405431 0 0 0
101 1 12.563483799035614 41.89878954447752 4.95575973792934 0 0 0
102 1 17.551522516706022 43.29857050355088 3.650276206215364 0 0 0
204 1 14.278716767336078 43.52891808919898 6.084527528783276 0 0 0
970 1 19.19243547519977 42.06592875256803 5.036656715750746 0 0 0
831 1 23.749499046788035 43.62431776241917 3.1068423221866044 0 0 0
827 1 27.010175980570942 40.61733721430443 3.59740424254214 0 0 0
832 1 25.194464091471865 41.889046185953234 4.852251772556587 0 0 0
833 1 30.194913365389706 43.626629602979634 3.4061605977303846 0 0 0
834 1 31.815431039301796 42.0595956019217 4.978429694259234 0 0 0
105 1 3.2631635911967023 45.14195632067957 4.357164042346716 0 0 0
106 1 7.978336065501724 46.511464787864824 3.3447829667891886 0 0 0
107 1 9.69261224365389 44.94215490229462 4.629241227489513 0 0 0
208 1 11.280407631570954 46.57024849722052 5.979406130727341 0 0 0
109 1 16.075335367217395 45.093509235608494 4.8696403996106525 0 0 0
837 1 20.461785721044993 46.67306423028096 3.193047003031325 0 0 0
838 1 22.213477964583696 45.21329581669282 4.543804312048056 0 0 0
840 1 26.60201740500041 46.48254696550276 3.587704374330209 0 0 0
839 1 28.626599239356405 45.17829268190938 4.712375022661656 0 0 0
923 1 30.12868879588831 46.86851540925335 6.084196331764631 0 0 0
842 1 34.47208860690393 45.219948282769124 4.9915211719908426 0 0 0
841 1 33.24132219826806 46.64336303219828 3.2090637615297157 0 0 0
104 1 1.7066658833442792 47.095447724807286 3.2060036197009043 0 0 0
213 1 1.7434415808002275 50.045703131684945 6.113249997956102 0 0 0
112 1 4.811898982678909 49.91568838442059 3.2052383837290424 0 0 0
111 1 6.376708013542674 48.46145082504766 4.843012448584996 0 0 0
113 1 11.395859988548528 49.6272261186413 3.3588913547423096 0 0 0
115 1 12.932777418402283 48.393147012830084 4.959261994662702 0 0 0
117 1 17.551255675172655 50.03126791207637 3.4882347969728422 0 0 0
927 1 20.815630227128313 50.01667267932639 5.993765893779023 0 0 0
519 1 19.076061191323014 48.17040938406174 4.903400377047638 0 0 0
846 1 25.278078139404652 48.44287278694496 4.859355554393778 0 0 0
851 1 31.765307278275888 48.463131781138 4.493294852510666 0 0 0
122 1 6.18238957820405 0.37673453237999777 7.965957573342157 0 0 0
216 1 12.677752480114957 1.5723409811328473 7.920550299293149 0 0 0
217 1 14.260433308892175 50.18091228243783 6.529833897385538 0 0 0
447 1 19.00653611611393 1.400866941038807 7.707730669555408 0 0 0
930 1 27.159286530865206 50.31811073663226 6.600357247817633 0 0 0
928 1 25.274390511731216 0.6178550227184884 8.127947850131703 0 0 0
857 1 31.765989431042897 0.4419738105121247 7.686986549775014 0 0 0
119 1 2.675779890872386 4.615607729005115 7.5685296182024135 0 0 0
228 1 4.526342792171682 5.5399806189869825 9.256590403583319 0 0 0
124 1 9.783127149603192 4.103837948435983 7.850749659972276 0 0 0
222 1 8.106725797919317 2.718259883079659 9.359550625793299 0 0 0
127 1 17.301531697646496 3.024284366507286 6.271825387585348 0 0 0
128 1 16.067903526672566 4.655446142369252 7.899604179381809 0 0 0
223 1 14.249737216122627 3.1213884424587697 9.372065071380623 0 0 0
933 1 20.652323235223527 3.3368065252151795 9.189243433822156 0 0 0
854 1 23.672641888559454 2.7310774803914595 6.463499390695496 0 0 0
853 1 22.30531280679356 4.784953245646257 7.8131164448722785 0 0 0
856 1 30.181510718893005 3.0119839413288596 6.411907220498317 0 0 0
855 1 28.629091456102334 4.187099357826694 8.158617519622647 0 0 0
858 1 34.77122446124841 4.300223391354523 8.316146808513631 0 0 0
602 1 0.3654405443328491 7.695157954631647 7.858658749115724 0 0 0
131 1 6.119832637669962 7.625258123543842 8.015124293309619 0 0 0
132 1 7.913780845588781 5.835463946703705 6.653067503057675 0 0 0
134 1 12.875144771102406 7.578001216747315 7.876567967441755 0 0 0
133 1 14.647866148855762 6.037076845805834 6.288326282905031 0 0 0
860 1 20.516038904734252 6.328174189159366 6.701882687335443 0 0 0
379 1 18.738944306484484 7.631455803793283 7.6648337995178295 0 0 0
231 1 17.687782076497406 6.069505399712845 9.305576058195097 0 0 0
941 1 23.937443730541624 6.223324745143242 9.38796575363964 0 0 0
862 1 26.919373396616102 5.807782522507032 6.6796239811728455 0 0 0
861 1 25.55581666212069 7.700381682123197 8.099470689284166 0 0 0
863 1 33.058725054206086 5.9216279524736395 6.843042031871642 0 0 0
864 1 31.665196889049717 7.715974937126507 8.168478896080437 0 0 0
949 1 33.52262642131851 8.706121923753434 9.337252532949957 0 0 0
136 1 3.358693200844631 10.686965470582305 7.841086964873234 0 0 0
137 1 5.088664710028308 9.26406261119008 6.254547555645005 0 0 0
138 1 9.710104816653129 10.516971966784244 8.06630901595259 0 0 0
139 1 11.448277490639885 9.10120516426944 6.39983571623571 0 0 0
141 1 15.892631165147199 10.879846051308496 8.2905717519547 0 0 0
946 1 20.714073683594574 8.946125109513911 9.256473666274612 0 0 0
866 1 24.068895133204116 8.83858988986217 6.239218338801344 0 0 0
865 1 22.32222898365139 10.467980427339986 7.701728862509551 0 0 0
868 1 30.11253720620458 9.250635643925765 6.646526257330799 0 0 0
867 1 28.448674749225024 10.880454472695074 8.125402099892744 0 0 0
869 1 34.51577531769819 10.80875150460911 7.75719908335056 0 0 0
142 1 1.617265745026959 12.527302228892975 6.465909049177476 0 0 0
3562 1 34.95526465599134 32.90621743411515 23.564407702780226 0 0 0
143 1 6.616984541366353 14.0046047931739 7.792166929706951 0 0 0
240 1 5.00297379956548 12.17306446242201 9.300562569653094 0 0 0
144 1 7.956708513834383 12.337901264103696 6.429029931349473 0 0 0
146 1 12.767015995858815 13.677181436437554 7.62751159465692 0 0 0
145 1 14.510195893728367 12.2010718683682 6.3619170172896125 0 0 0
870 1 20.668217309572125 12.170457542218223 6.326892831678491 0 0 0
730 1 18.722328791716603 13.84296819671917 7.5127286503661015 0 0 0
952 1 23.527490824871567 12.488246342079554 8.956249269100324 0 0 0
872 1 26.975196376202174 12.393266103560485 6.3202536710677455 0 0 0
871 1 25.38443117195662 13.929417545279948 8.028544265488772 0 0 0
874 1 31.54196964565615 14.00342816577064 7.900308578583246 0 0 0
147 1 3.547848004678066 17.090025744559092 7.780619741863301 0 0 0
148 1 4.7176235218348985 15.24883754972973 6.417494132670713 0 0 0
149 1 9.74887438014158 16.932750697468865 7.966203716889975 0 0 0
150 1 11.1088701204749 15.296609201664301 6.2550857775161495 0 0 0
249 1 14.494258450552955 15.259524973372214 9.024772812339034 0 0 0
151 1 16.226894698114037 16.8947425767156 7.581252887276842 0 0 0
876 1 23.663224354224937 15.388871368772257 6.552258127446411 0 0 0
875 1 21.759995572368446 17.159261844481396 7.888388796673695 0 0 0
878 1 29.79232962796888 15.882088227638363 6.226201385911881 0 0 0
877 1 28.449167000817404 17.19578657844504 8.181496420684818 0 0 0
879 1 34.47283265215658 17.083774504233435 7.6981619391966145 0 0 0
154 1 1.7178656522518518 18.30952348532528 6.2239154782260355 0 0 0
56 1 0.49035814008026507 20.23025952869048 7.853765489873453 0 0 0
155 1 6.767672864461996 20.078613738196744 7.931850654821362 0 0 0
158 1 12.787822429667438 20.3647223143072 7.922504460547849 0 0 0
255 1 11.296775072772578 18.592881474126987 9.29426938182303 0 0 0
157 1 14.417861259988673 18.92454544914923 6.368222912873575 0 0 0
1377 1 19.31993922335501 19.975267082524635 7.738879746143288 0 0 0
257 1 17.711286289290275 18.385629853743808 9.288732757841863 0 0 0
964 1 20.815809600233116 21.418485451190566 9.337191496895992 0 0 0
886 1 23.795079711202934 21.33918145116051 6.2592354520553934 0 0 0
882 1 26.9082530602079 18.299983521726805 6.375666632698062 0 0 0
881 1 25.412225959487106 19.931186543261276 7.9682412954059245 0 0 0
888 1 30.122462752481614 21.459774539520073 6.856253570721992 0 0 0
883 1 32.900283377424216 18.67985793338033 6.219382038320708 0 0 0
884 1 31.686628535831154 19.838570165938865 8.200218182351994 0 0 0
160 1 3.56147911456861 23.510949420305447 7.715576158857026 0 0 0
260 1 2.3705761941666443 21.57961007104128 9.161448238218691 0 0 0
162 1 4.871285007357805 21.837524099337564 6.382079733753035 0 0 0
163 1 9.6885148430868 23.38708616118237 8.094203442107775 0 0 0
164 1 11.181538335692165 21.720735939795677 6.395901024375215 0 0 0
166 1 15.857642982958014 23.320523855028 7.802274588397497 0 0 0
885 1 22.323905504304907 23.181834861223606 8.04515794989365 0 0 0
892 1 26.992491429102717 24.598515683300985 6.254646588513194 0 0 0
887 1 28.929376135562375 23.1611459748654 8.35463172542083 0 0 0
2997 1 34.90913010001404 22.78163287195242 7.916717082914472 0 0 0
894 1 33.35684646150736 24.40224277859038 6.636639938020253 0 0 0
161 1 1.935511693725862 25.191426163760184 6.490508026357932 0 0 0
168 1 6.657047520467935 26.23763184643607 8.22048668279885 0 0 0
169 1 8.065638959677983 24.884248595524795 6.81140829586436 0 0 0
172 1 13.067411035653471 26.27995821421307 7.847331094794509 0 0 0
889 1 20.614507188706913 24.6441482265141 6.438244233953327 0 0 0
251 1 18.902888672737763 26.606207468097278 7.65089368325909 0 0 0
890 1 25.472280120195858 26.275476954491914 7.957054080549263 0 0 0
895 1 31.901663662949478 26.236880693950827 8.038764953200088 0 0 0
976 1 33.53101621176866 27.730241775038138 9.227538902717468 0 0 0
175 1 3.5024236311044197 29.439942959818886 8.026474507074429 0 0 0
176 1 1.7587860657491865 30.82713176030368 6.7133613134936025 0 0 0
179 1 9.495211412603323 29.684508461568374 7.998792500837517 0 0 0
170 1 11.126701476238907 28.210420722236545 6.563342883021228 0 0 0
173 1 17.28914160043744 28.031470988963385 6.4658321171138695 0 0 0
181 1 15.94129013201797 29.84037135431241 7.7400855209029125 0 0 0
281 1 14.503908881493803 28.32960769019334 9.263891444898034 0 0 0
972 1 20.639251956095077 28.053738855455737 8.729316969437962 0 0 0
896 1 22.273438232009664 30.093913784492887 7.804502229234711 0 0 0
893 1 29.987605287258553 28.126365865177085 6.524100087297816 0 0 0
898 1 28.21888296190975 29.74418398847987 8.168896446050221 0 0 0
901 1 34.829624242419946 29.64971466319768 7.891431984155648 0 0 0
830 1 31.4787303117232 48.487401701845755 23.51015261891925 0 0 0
183 1 6.816875874084812 32.89240000636393 7.666860116648694 0 0 0
279 1 4.7633015879847225 31.482528041143667 9.375615148434022 0 0 0
180 1 14.085791624380263 31.18529911138726 6.41939015632304 0 0 0
186 1 12.356260469701937 32.740883758952776 7.876181515909392 0 0 0
283 1 17.493135826704563 31.55639596763957 9.295294132187935 0 0 0
1303 1 19.46848384940192 32.80460746420468 8.056102232614803 0 0 0
899 1 26.866737488207907 31.22897939470933 6.570727820860828 0 0 0
903 1 25.365508037693893 32.82538888034014 7.957897098103878 0 0 0
900 1 33.15101049901854 31.030967979754983 6.457463744538852 0 0 0
906 1 31.642619716390055 32.57322328848478 8.115283224280294 0 0 0
189 1 3.3465537108723753 35.90591593475102 7.97645671169694 0 0 0
184 1 4.873758743482067 34.35035014300506 6.506825157433482 0 0 0
191 1 9.506904609088703 36.31860240398372 7.91956183729476 0 0 0
185 1 11.00879825494847 34.489777792788516 6.444233583558717 0 0 0
187 1 17.575336013626398 34.46226794286591 7.0879994932081996 0 0 0
193 1 16.041489894751148 36.402133929342625 8.257736705706716 0 0 0
904 1 23.648483864841936 34.29313291462748 6.265198362290467 0 0 0
908 1 22.50704426526726 35.81386547781557 8.233994397353118 0 0 0
909 1 27.09585116885952 37.31997884072641 6.665444937976943 0 0 0
905 1 30.272698942863936 34.22312606103753 6.48750143968829 0 0 0
910 1 28.656969456891765 35.76914921910459 8.04184089309492 0 0 0
188 1 1.725166847094907 37.375582819202265 6.327103523013517 0 0 0
196 1 6.500828822711746 38.951327682747944 7.821114981622001 0 0 0
195 1 4.858313105763258 40.506442643969734 6.301230460474888 0 0 0
301 1 8.396995927180038 40.54017410861164 9.178511800847291 0 0 0
197 1 11.236360359658622 40.23405580214029 6.600225360325138 0 0 0
198 1 12.805235823140729 38.93466017472319 8.134411730285924 0 0 0
192 1 14.593717062557197 37.41972222530944 6.415927047597917 0 0 0
907 1 20.715747050699296 37.48938030095216 6.880390485438062 0 0 0
859 1 19.293636083055606 39.16338223599347 8.419373663924528 0 0 0
912 1 23.751887460027024 40.41077562824894 6.389259323376608 0 0 0
913 1 25.55021056929498 39.1330041447446 8.001543503792737 0 0 0
914 1 30.57155987522574 40.292540657148095 6.4407511135741835 0 0 0
911 1 33.88673545675195 37.39120893744435 6.291717089353578 0 0 0
915 1 32.12223639165923 38.86451885845588 7.974716028275262 0 0 0