
# Create simulation box of size 50 x 50 x 50 Angstrom
#
lattice	            sc 1
Lattice spacing in x,y,z = 1.0000000 1.0000000 1.0000000
region 	            all block 0 ${X} ${YZ_LO} ${YZ_HI} ${YZ_LO} ${YZ_HI} units box
region 	            all block 0 53.4 ${YZ_LO} ${YZ_HI} ${YZ_LO} ${YZ_HI} units box
region 	            all block 0 53.4 0.3761817179682261.0 ${YZ_HI} ${YZ_LO} ${YZ_HI} units box
region 	            all block 0 53.4 0.3761817179682261.0 50.530938282029965.0 ${YZ_LO} ${YZ_HI} units box
region 	            all block 0 53.4 0.3761817179682261.0 50.530938282029965.0 0.3761817179682261.0 ${YZ_HI} units box
region 	            all block 0 53.4 0.3761817179682261.0 50.530938282029965.0 0.3761817179682261.0 50.530938282029965.0 units box
create_box          1 all
Created orthogonal box = (0.0000000 0.37618172 0.37618172) to (53.400000 50.530938 50.530938)
  3 by 1 by 2 MPI processor grid

# fill box with 4175 randomly distributed atoms
#
create_atoms        1 random 4608 63782 all
Created 4608 atoms
  create_atoms CPU = 0.001 seconds
mass                1 18.015

# Define potential
#
pair_style          sw
pair_coeff          * * /data/emrosky-sim/Freezing_Simulations/Melting/mW_fancy/mW.sw mW
Reading sw potential file /data/emrosky-sim/Freezing_Simulations/Melting/mW_fancy/mW.sw with DATE: 2019-02-27

# Run minimization
#
minimize            1.0e-8 1.0e-8 10000 1000
WARNING: Using 'neigh_modify every 1 delay 0 check yes' setting during minimization (../min.cpp:187)
Neighbor list info ...
  update every 1 steps, delay 0 steps, check yes
  max neighbors/atom: 2000, page size: 100000
  master list distance cutoff = 6.3065
  ghost atom cutoff = 6.3065
  binsize = 3.15325, bins = 17 16 16
  1 neighbor lists, perpetual/occasional/extra = 1 0 0
  (1) pair sw, perpetual
      attributes: full, newton on
      pair build: full/bin/atomonly
      stencil: full/bin/3d
      bin: standard
Per MPI rank memory allocation (min/avg/max) = 4.236 | 4.254 | 4.260 Mbytes
Step Temp E_pair E_mol TotEng Press 
       0            0    4753279.9            0    4753279.9    3381125.4 
     686            0    -52190.69            0    -52190.69    423.65068 
Loop time of 2.13454 on 6 procs for 686 steps with 4608 atoms

99.2% CPU use with 6 MPI tasks x no OpenMP threads

Minimization stats:
  Stopping criterion = max force evaluations
  Energy initial, next-to-last, final = 
      4753279.86672495  -52190.5328169724  -52190.6899483925
  Force two-norm initial, final = 1.0881577e+08 2.8526868
  Force max component initial, final = 57474501.0 0.50361874
  Final line search alpha, max atom move = 0.056086875 0.028246401
  Iterations, force evaluations = 686 1001

MPI task timing breakdown:
Section |  min time  |  avg time  |  max time  |%varavg| %total
---------------------------------------------------------------
Pair    | 1.8167     | 1.9167     | 1.9816     |   4.2 | 89.80
Neigh   | 0.045994   | 0.047053   | 0.048933   |   0.4 |  2.20
Comm    | 0.084198   | 0.1484     | 0.24836    |  15.2 |  6.95
Output  | 0          | 0          | 0          |   0.0 |  0.00
Modify  | 0          | 0          | 0          |   0.0 |  0.00
Other   |            | 0.02237    |            |       |  1.05

Nlocal:        768.000 ave         778 max         760 min
Histogram: 2 0 1 0 0 1 0 1 0 1
Nghost:        1707.33 ave        1724 max        1686 min
Histogram: 1 0 0 1 0 0 2 1 0 1
Neighs:        0.00000 ave           0 max           0 min
Histogram: 6 0 0 0 0 0 0 0 0 0
FullNghs:      25929.7 ave       26358 max       25548 min
Histogram: 2 0 0 1 0 1 0 0 0 2

Total # of neighbors = 155578
Ave neighs/atom = 33.762587
Neighbor list builds = 40
Dangerous builds = 0

# Add velocity/set timestep
#
velocity            all create ${TEMP} 120598 rot yes dist gaussian
velocity            all create 271 120598 rot yes dist gaussian
timestep            5.0

# Define output
#
compute	            1 all msd
thermo	            100
thermo_style        custom step temp press vol etotal ke pe c_1[4] density

# Neighbor lists
#
neigh_modify        delay 0 every 1 check yes

# Set fixes
#
fix                 1 all momentum 10 linear 1 1 1 rescale
fix                 2 all nve
fix                 3 all temp/csvr ${TEMP} ${TEMP} 500.0 928347
fix                 3 all temp/csvr 271 ${TEMP} 500.0 928347
fix                 3 all temp/csvr 271 271 500.0 928347
fix                 4 all press/berendsen iso ${PRES} ${PRES} 1000.0 modulus 20000
fix                 4 all press/berendsen iso -500 ${PRES} 1000.0 modulus 20000
fix                 4 all press/berendsen iso -500 -500 1000.0 modulus 20000

# Run 0.5 ns equilibration
#
dump                1 all custom 1000 eq.${NAME}.dump id type x y z vx vy vz
dump                1 all custom 1000 eq.liq_271K_-500atm_mW.dump id type x y z vx vy vz
run                 100000
Per MPI rank memory allocation (min/avg/max) = 3.504 | 3.507 | 3.510 Mbytes
Step Temp Press Volume TotEng KinEng PotEng c_1[4] Density 
     686          271    1690.1039    134327.68   -48469.158    3721.5324    -52190.69 6.5334498e-34    1.0261959 
     700    138.65293    1498.3914    135572.57   -48269.509    1904.0641   -50173.573  0.085541569    1.0167729 
     800     181.0015   -117.94982    138024.27   -46761.196    2485.6197   -49246.816    0.5172566   0.99871219 
     900    214.01757   -452.69469    138877.68    -45813.33     2939.016   -48752.346   0.97377198     0.992575 
    1000    229.23004   -251.33277    139234.72   -45171.927    3147.9226    -48319.85    1.4870763   0.99002977 
    1100    246.60633   -331.45169    139721.77     -44703.8     3386.544   -48090.344    2.1280225   0.98657865 
    1200    251.20721    -597.3484    139806.49   -44340.718    3449.7262   -47790.444    2.8434103   0.98598081 
    1300    258.67394   -406.30045    139816.11   -44038.221    3552.2637   -47590.485    3.7020254   0.98591294 
    1400    260.77026   -328.20237    139820.94   -43906.285    3581.0516   -47487.336    4.6282701   0.98587895 
    1500    264.64388    -451.2224    139918.06   -43737.781    3634.2465   -47372.027    5.6658113   0.98519462 
    1600    264.28955   -663.52497    139819.99   -43716.563    3629.3805   -47345.943    6.5801124   0.98588565 
    1700    261.54978   -551.50431    139569.05   -43672.084    3591.7564   -47263.841    7.6476796   0.98765817 
    1800    269.71571   -559.93367    139484.88   -43561.153    3703.8957   -47265.049    8.8210261   0.98825419 
    1900    265.85498   -485.13527    139483.07   -43540.125     3650.878   -47191.003    10.109611   0.98826701 
    2000    271.51935    -439.8668    139506.95   -43419.193    3728.6645   -47147.857    11.391458   0.98809783 
    2100    262.33839   -607.50693    139373.24   -43502.097     3602.586   -47104.683     12.44916    0.9890458 
    2200    268.54592   -609.06079    139401.94   -43476.478    3687.8315   -47164.309    13.617206   0.98884219 
    2300    268.12547   -273.95962    139294.72   -43421.119    3682.0577   -47103.177    14.889463   0.98960331 
    2400    267.30917   -479.66578    139434.03   -43384.804    3670.8478   -47055.652    16.069739   0.98861462 
    2500    268.92318   -432.88327    139626.39   -43368.596    3693.0122   -47061.609    17.241802   0.98725263 
    2600    271.33018   -499.88057    139317.12   -43291.779    3726.0667   -47017.845    18.699233    0.9894442 
    2700    274.33709   -525.04652    139106.86   -43239.993    3767.3593   -47007.352    20.183974   0.99093973 
    2800    267.45489   -733.34894    139041.62    -43362.68    3672.8488   -47035.529    21.576244   0.99140472 
    2900    269.93189   -572.85244    139227.39   -43303.575    3706.8644   -47010.439    22.782028   0.99008192 
    3000    273.03436   -421.51445    138989.94   -43228.648    3749.4694   -46978.118    23.979265   0.99177334 
    3100    273.95464   -460.90499    139047.33    -43239.81    3762.1072   -47001.917    25.313232   0.99136399 
    3200    270.34193   -492.00496    139205.74   -43269.426    3712.4954   -46981.921    26.483341    0.9902359 
    3300    271.70785   -619.80093    138886.39   -43303.749     3731.253   -47035.002    27.614139   0.99251281 
    3400    274.98769   -387.27468    139113.66   -43257.675    3776.2937   -47033.969    29.038588   0.99089128 
    3500    278.15243   -390.22232    139371.23   -43157.053    3819.7538   -46976.807    30.054345   0.98906004 
    3600    274.44993    -409.7679    139404.49   -43177.893    3768.9088   -46946.802    31.312004   0.98882409 
    3700    273.17462   -494.14338    139448.52   -43235.669    3751.3955   -46987.065    32.630839   0.98851189 
    3800    274.81629   -450.67262    139540.02   -43245.742      3773.94   -47019.682    33.737245   0.98786368 
    3900    267.04451   -563.93705    139387.26   -43376.281    3667.2133   -47043.494    35.210483   0.98894634 
    4000    269.09075   -427.80329    139148.49   -43412.032    3695.3135   -47107.346    36.510995   0.99064329 
    4100    268.99318   -680.97479     139167.4   -43369.874    3693.9735   -47063.847    37.861198   0.99050867 
    4200    270.08005   -416.19735    139299.19    -43377.02    3708.8991   -47085.919    39.498528   0.98957159 
    4300    275.65294   -391.30337    139000.88   -43365.805    3785.4293   -47151.234    40.540782   0.99169528 
    4400    270.02839   -365.55728    139038.01   -43351.697    3708.1896   -47059.886     41.48654   0.99143048 
    4500    273.57548   -353.75652     139122.8   -43277.237    3756.9004   -47034.138    42.731132    0.9908262 
    4600    269.62187   -612.22845    139397.57   -43317.596    3702.6072   -47020.203    44.158464   0.98887315 
    4700     265.7329   -398.04771    139157.96   -43319.427    3649.2014   -46968.629    45.396501   0.99057584 
    4800    273.88067   -497.56399    138943.72    -43280.48    3761.0915   -47041.571    46.707178   0.99210323 
    4900    271.07359   -478.33818    138956.37   -43279.116     3722.543   -47001.659    48.266999   0.99201295 
    5000    266.31274   -438.73317    138990.22   -43370.944    3657.1642   -47028.108    49.480398   0.99177133 
    5100     272.7392   -365.20331    139282.34   -43296.807    3745.4162   -47042.223    50.842953    0.9896913 
    5200    270.70336   -543.13887    139075.22   -43368.003    3717.4587   -47085.462    52.125984   0.99116522 
    5300     266.4061   -498.33604    138871.37   -43392.508    3658.4463   -47050.954    53.290912   0.99262012 
    5400    271.81704   -358.82933    138902.53   -43291.239    3732.7525   -47023.991    54.442167   0.99239747 
    5500    271.84237   -459.29182    139440.54   -43246.038    3733.1003   -46979.138    55.642558   0.98856845 
    5600    274.61068    -399.9888    139412.11   -43181.201    3771.1165   -46952.318    56.510457      0.98877 
    5700    272.60815   -603.85046     139088.5   -43317.194    3743.6165    -47060.81    57.829379   0.99107055 
    5800    272.25796   -536.42078    139183.27     -43229.3    3738.8075   -46968.107    59.343195   0.99039573 
    5900    269.44749   -616.14985    139330.07   -43292.248    3700.2124    -46992.46    60.979571   0.98935225 
    6000    272.78789   -600.93724     139157.6   -43363.794    3746.0847   -47109.878    62.437818   0.99057843 
    6100    269.58974   -612.45453    139279.76   -43384.195    3702.1659   -47086.361    63.669578   0.98970959 
    6200    270.41355   -582.41325    139309.18   -43370.726    3713.4789   -47084.205     65.18769    0.9895006 
    6300    265.05497   -360.92922     139128.8   -43412.622    3639.8918   -47052.513    66.343948    0.9907835 
    6400     267.7197   -292.79805    139128.64   -43359.444    3676.4853   -47035.929    67.903016   0.99078459 
    6500    273.56056   -754.16429    139185.42   -43323.452    3756.6955   -47080.148    69.141967   0.99038043 
    6600    267.06215   -514.83878    139276.12   -43395.366    3667.4555   -47062.822    70.698113   0.98973545 
    6700    274.09246   -277.74526    139118.28   -43370.882    3763.9999   -47134.882    72.006653   0.99085839 
    6800    268.67687   -564.18072    139327.85   -43468.501    3689.6298   -47158.131      73.3253   0.98936797 
    6900    265.12172   -500.40181    139447.35   -43416.273    3640.8084   -47057.081     74.38432   0.98852013 
    7000    268.60009   -790.91776    139127.59    -43294.16    3688.5755   -46982.736    75.448207   0.99079208 
    7100    267.41841   -457.12489    139005.79   -43376.632    3672.3479    -47048.98    76.882616   0.99166028 
    7200    272.38264   -642.88381    138998.84   -43375.798    3740.5196   -47116.318    77.708981    0.9917098 
    7300    271.73024   -636.77857    138595.02   -43423.995    3731.5605   -47155.556    78.363286   0.99459938 
    7400    271.08309   -626.84611    138807.24   -43473.794    3722.6734   -47196.468      79.6418   0.99307871 
    7500    272.32291   -458.74769    138740.27   -43434.518    3739.6993   -47174.218    80.996574   0.99355808 
    7600    272.48306   -366.21048    138993.99   -43377.053    3741.8986   -47118.952    82.063437   0.99174443 
    7700    275.72485   -440.69099    139443.18   -43324.896    3786.4168   -47111.312    83.675158   0.98854975 
    7800    271.10677   -325.52082    139579.65   -43382.493    3722.9987   -47105.492    85.122764   0.98758318 
    7900    267.37666   -695.53997    139355.97   -43439.338    3671.7746   -47111.113    86.401888   0.98916836 
    8000    273.69136   -646.01425    139155.58    -43459.69    3758.4918   -47218.182     88.12065   0.99059282 
    8100    268.58458   -462.71671    139102.68   -43380.807    3688.3624   -47069.169    89.409232    0.9909695 
    8200    268.52733   -550.69359    138986.62   -43388.136    3687.5763   -47075.712    90.970496   0.99179705 
    8300    270.11681    -623.6695    139014.71   -43361.726    3709.4039    -47071.13    91.818486   0.99159661 
    8400    268.23863   -418.23163    139211.87   -43380.731    3683.6116   -47064.343      93.3058   0.99019227 
    8500    269.33276   -663.45022    139255.43   -43460.077    3698.6369   -47158.713    94.213029   0.98988251 
    8600     270.9726   -632.05473    139252.37   -43339.083    3721.1562   -47060.239    94.852061   0.98990424 
    8700    271.20592    -480.6734    138965.26   -43323.373    3724.3602   -47047.733    95.791118   0.99194948 
    8800    272.35482   -495.80507    139275.59   -43247.512    3740.1376    -46987.65     96.44357   0.98973922 
    8900    269.71388   -403.44294    139157.39   -43272.467    3703.8707   -46976.338    97.609855   0.99057994 
    9000    272.19196   -622.74055    139192.72   -43234.129     3737.901    -46972.03     98.43469   0.99032848 
    9100    272.84251   -414.05926    139008.07    -43228.49    3746.8348   -46975.325    99.311754     0.991644 
    9200     270.9764   -572.00653    139169.08   -43274.249    3721.2084   -46995.457    100.80463   0.99049673 
    9300    271.33618   -590.96649    139177.02   -43256.118     3726.149   -46982.267    102.37137   0.99044021 
    9400    269.94318   -552.12444    139262.44   -43256.375    3707.0195   -46963.394    103.73016   0.98983269 
    9500    268.72013   -383.41951     139302.5   -43315.311    3690.2238   -47005.535    104.83655   0.98954807 
    9600    269.17755   -633.05567    139276.45   -43348.389    3696.5055   -47044.894    105.92742   0.98973312 
    9700    268.80868   -471.44232    139216.43   -43297.171    3691.4399   -46988.611    107.57429   0.99015984 
    9800    275.02204    -778.4885    139288.41   -43354.509    3776.7654   -47131.275    108.62617   0.98964814 
    9900    273.34484   -533.98951    139430.46   -43243.281    3753.7331   -46997.014    110.34199   0.98863991 
   10000    272.94334   -569.06703    139081.14   -43419.347    3748.2195   -47167.567    111.58592   0.99112301 
   10100    267.56299   -441.97336    138989.07   -43343.062    3674.3334   -47017.395    113.60882   0.99177956 
   10200    268.29897   -484.38579    139090.02   -43366.871    3684.4403   -47051.312    115.02764   0.99105973 
   10300    271.11081   -448.80303    139003.29   -43367.322    3723.0541   -47090.376    116.22502   0.99167812 
   10400    269.54722   -572.50668    138943.38   -43284.549     3701.582   -46986.131     117.1309   0.99210566 
   10500    271.35733   -639.92912    139059.27   -43279.358    3726.4394   -47005.798    119.16421   0.99127884 
   10600    270.80409   -284.64768    138851.65   -43288.541     3718.842   -47007.383    120.24592   0.99276111 
   10700    269.01871   -799.88302    138883.43    -43346.83    3694.3242   -47041.155    121.64554   0.99253396 
   10800    270.16068   -498.94978    138999.43   -43255.683    3710.0064    -46965.69    122.54544   0.99170565 
   10900    276.33163   -462.50348    139184.91    -43179.26    3794.7495   -46974.009    124.33807   0.99038408 
   11000    273.91089   -238.78641    139445.01   -43230.109    3761.5065   -46991.616    125.60724   0.98853678 
   11100    277.16783   -398.47861    139172.51   -43267.815    3806.2327   -47074.048    126.84057   0.99047233 
   11200     268.3457   -501.92712    139351.28   -43268.243     3685.082   -46953.325    128.24393   0.98920169 
   11300    267.01184   -527.62635    139142.19   -43291.336    3666.7647   -46958.101    128.98954   0.99068816 
   11400    269.79319   -268.64397    139503.67   -43301.932    3704.9598   -47006.892    130.32602   0.98812106 
   11500    264.86612   -627.79067    139459.71   -43433.076    3637.2984   -47070.375    131.99624   0.98843256 
   11600    267.89692    -649.8188    139240.99   -43497.022    3678.9191   -47175.942    132.86889   0.98998518 
   11700    266.16157   -637.37556    139058.24    -43427.21    3655.0882   -47082.298    134.26268    0.9912862 
   11800    268.24659   -514.69899     138949.6   -43371.577     3683.721   -47055.298    135.65954   0.99206125 
   11900    268.18016   -710.55648     138815.1   -43440.326    3682.8087   -47123.135    136.89846   0.99302247 
   12000    266.74978   -395.57223    138808.48   -43400.846    3663.1658   -47064.012    137.88417   0.99306983 
   12100    266.04927   -516.79058    139167.66   -43421.965    3653.5461   -47075.511    139.39794   0.99050679 
   12200    272.41192   -489.21294    138942.14   -43306.473    3740.9217   -47047.395    140.59415   0.99211451 
   12300     273.5292   -432.87554    138979.55   -43250.821    3756.2649   -47007.086     141.7203   0.99184746 
   12400      279.525   -445.06161    139008.55   -43167.138    3838.6027   -47005.741    142.65758   0.99164056 
   12500    274.11017   -530.67918    139250.75   -43211.628    3764.2431   -46975.871    144.21301   0.98991576 
   12600     276.7516   -507.15266    139006.38   -43241.669    3800.5168   -47042.185    144.84094   0.99165607 
   12700      272.493   -510.51058    139146.05   -43221.598    3742.0351   -46963.633    146.52693   0.99066068 
   12800    274.49451   -602.28628    139162.74   -43265.636    3769.5211   -47035.158    148.07507   0.99054182 
   12900    273.84735   -347.84487    139239.73   -43304.716     3760.634    -47065.35    149.10592   0.98999416 
   13000    274.51214   -556.42409     138989.5   -43316.006    3769.7632   -47085.769    150.33953   0.99177649 
   13100    272.69067   -513.37127    138993.02   -43322.061    3744.7497   -47066.811    151.61447   0.99175137 
   13200    273.74505    -377.7474    138577.56   -43277.327     3759.229   -47036.556    152.76391   0.99472465 
   13300    271.11171   -584.09505    138723.02   -43260.808    3723.0665   -46983.874    154.20375   0.99368161 
   13400    273.67585   -488.18424    139063.58   -43300.013    3758.2787   -47058.292     156.0166   0.99124813 
   13500    268.30668   -583.55301    138885.24   -43291.373    3684.5461   -46975.919    157.44328     0.992521 
   13600    270.07138   -260.79318    138766.13   -43322.153    3708.7801   -47030.933    158.39171   0.99337291 
   13700    272.40873   -562.14895    139041.33   -43317.031    3740.8779   -47057.909    159.91179   0.99140678 
   13800    267.76555   -337.66487    138579.61   -43363.347     3677.115   -47040.462    161.07819   0.99470997 
   13900    268.96925   -563.74434    138864.23   -43414.632     3693.645   -47108.277    162.05887   0.99267113 
   14000    271.11386   -479.12199    138768.51   -43485.931    3723.0961   -47209.027    163.08009   0.99335588 
   14100    268.66134   -633.66223    138940.14     -43468.2    3689.4166   -47157.617     163.7101   0.99212881 
   14200    269.69799   -571.33984    138971.91   -43393.341    3703.6525   -47096.994    164.74395   0.99190199 
   14300    271.36659   -420.35322    138680.16     -43394.9    3726.5667   -47121.466    165.40421   0.99398877 
   14400    266.16321   -407.41244    138626.57   -43433.443    3655.1108   -47088.554    166.76728   0.99437301 
   14500    264.53916   -529.08687    138775.37   -43385.175    3632.8083   -47017.984    168.31434    0.9933068 
   14600    273.22576   -328.13419    138808.61   -43314.389    3752.0978   -47066.487    169.93232   0.99306891 
   14700    276.77581   -420.42779     139099.4   -43243.219    3800.8493   -47044.068    171.17569   0.99099288 
   14800    267.54025   -489.57157    139028.43   -43293.023     3674.021   -46967.044    172.98237   0.99149877 
   14900    268.26891   -673.47029    139223.36   -43255.231    3684.0275   -46939.258    173.68859   0.99011058 
   15000     267.5812   -472.91549    138843.31   -43356.458    3674.5834   -47031.041    174.87015   0.99282075 
   15100    267.93362   -321.94713    139139.71   -43345.418    3679.4231   -47024.841    176.37448   0.99070578 
   15200    274.31839    -496.3514    139370.42   -43368.956    3767.1025   -47136.059    178.54614   0.98906579 
   15300    268.77216   -389.81163    139316.85   -43314.055    3690.9384   -47004.994    179.45989    0.9894461 
   15400     268.5662   -444.99526    139250.51   -43295.341      3688.11   -46983.451    180.40249   0.98991748 
   15500    275.62833   -517.81266    139423.71   -43301.588    3785.0914   -47086.679    181.66975   0.98868777 
   15600    271.14478   -387.21182    139565.35   -43360.393    3723.5207   -47083.913    182.73064    0.9876844 
   15700    269.25245   -406.89138    139720.57   -43378.289     3697.534   -47075.823    184.69222   0.98658713 
   15800    268.25601   -561.76037    139720.16   -43390.671    3683.8503   -47074.522    186.04389   0.98659006 
   15900    271.44723   -711.91644    139467.05   -43332.322    3727.6741   -47059.996    187.76326   0.98838049 
   16000     267.5486   -389.69102    138964.45   -43405.157    3674.1357   -47079.293    188.96695   0.99195529 
   16100     271.5111   -635.53039    139048.14   -43392.025    3728.5511   -47120.576     190.1826   0.99135825 
   16200    272.36855   -428.49201    139342.86   -43283.885    3740.3261   -47024.211    191.54498   0.98926141 
   16300    272.03619   -574.69457    138962.67   -43237.076     3735.762   -46972.838    192.35303   0.99196796 
   16400    270.85358   -518.34434    139270.03   -43191.117    3719.5216   -46910.639    194.41926   0.98977873 
   16500    271.24838    -393.8171    139402.39   -43196.848    3724.9433   -46921.792    195.86382   0.98883901 
   16600    271.63835   -520.99317    139240.67   -43259.402    3730.2986   -46989.701    196.75404   0.98998743 
   16700    270.09935   -356.70687    139178.72   -43285.373    3709.1642   -46994.537    198.47974   0.99042812 
   16800    275.61314   -581.40023    139310.55   -43315.119    3784.8828   -47100.002    200.31733   0.98949084 
   16900    269.21984    -432.4216    139085.51   -43346.414    3697.0861     -47043.5    201.54594   0.99109189 
   17000    272.96098   -455.36514     138914.8   -43354.141    3748.4618   -47102.603    202.85803   0.99230976 
   17100    271.60736   -291.62248    139093.36   -43368.208    3729.8731   -47098.081    204.65103   0.99103593 
   17200    272.04378   -363.17768    139398.39   -43294.432    3735.8663   -47030.299    206.61607   0.98886736 
   17300    279.37242   -495.86874    139348.35   -43243.225    3836.5075   -47079.733    208.36774   0.98922248 
   17400    271.16075   -362.95669    139412.09   -43336.876    3723.7399   -47060.616    210.26417   0.98877016 
   17500    271.74257   -472.79611    139349.64   -43334.957    3731.7299   -47066.687     212.0013    0.9892133 
   17600    271.97357   -500.57815    139295.73   -43378.883     3734.902   -47113.785    213.81432   0.98959612 
   17700    271.05279   -537.36366     139446.9    -43414.08    3722.2574   -47136.337    215.85202   0.98852338 
   17800    267.17866   -690.42572    139246.99   -43401.316    3669.0556   -47070.372    216.88296   0.98994252 
   17900    265.71171   -292.35974    139125.07   -43441.149    3648.9105    -47090.06    217.60335   0.99081001 
   18000    266.61012   -448.34357     139151.2   -43479.953    3661.2479   -47141.201    218.80985   0.99062402 
   18100    266.80757   -556.47148    139267.79   -43487.028    3663.9595   -47150.987    220.70395   0.98979466 
   18200    271.58607   -517.17051    139342.15   -43385.416    3729.5807   -47114.997    221.62209   0.98926648 
   18300    267.17797   -653.07242    139277.97    -43402.24     3669.046   -47071.286    222.38725   0.98972234 
   18400    269.11424   -559.93269    139122.12    -43453.17    3695.6361   -47148.807    222.97508   0.99083103 
   18500      269.112   -335.67368    139344.02   -43378.504    3695.6053   -47074.109    224.74156   0.98925316 
   18600    269.64811   -457.34281    139420.81   -43329.246    3702.9674   -47032.213    225.75322   0.98870834 
   18700    273.34955   -596.87706    139578.77   -43289.413    3753.7979   -47043.211    226.61517   0.98758946 
   18800    269.58996   -377.92042    139449.39   -43277.454    3702.1689   -46979.623    227.01497    0.9885057 
   18900    268.82281   -681.34789    139374.76   -43360.616    3691.6339    -47052.25    228.50546   0.98903497 
   19000    277.27388   -598.76436    139186.06   -43333.708     3807.689   -47141.397    229.96265   0.99037591 
   19100    269.65171   -470.41492    139317.65   -43362.241    3703.0169   -47065.258    231.66392   0.98944042 
   19200    268.44302    -689.2083    139351.01   -43354.675    3686.4184   -47041.093     233.1081   0.98920357 
   19300    267.19576   -465.42755    139249.72   -43309.957    3669.2903   -46979.247    234.72154    0.9899231 
   19400    264.80034   -259.75604    139391.41   -43319.553     3636.395   -46955.948    235.66966   0.98891688 
   19500    275.31084   -609.92565    139424.45   -43310.276    3780.7314   -47091.007    237.10252   0.98868255 
   19600    270.08902   -769.08086    139200.04    -43312.45    3709.0223   -47021.473     238.3027   0.99027639 
   19700     272.0004   -430.61145    139013.77   -43294.238    3735.2705   -47029.508    239.67573   0.99160334 
   19800    273.30226   -520.27784    138895.68   -43226.577    3753.1483   -46979.725    240.95919   0.99244643 
   19900    274.12885   -303.22113     139049.3   -43248.116    3764.4996   -47012.615     243.0305   0.99134994 
   20000    274.55119   -473.01048    139133.67   -43178.374    3770.2994   -46948.673    244.63083    0.9907488 
   20100    269.40729    -536.6452    139226.29   -43223.641    3699.6603   -46923.301     246.4124   0.99008969 
   20200    269.88324    -598.9656    139207.38   -43200.388    3706.1964   -46906.584    247.72961   0.99022424 
   20300    281.58402   -476.90727    139266.51   -43163.468    3866.8784   -47030.346    248.85188   0.98980379 
   20400    268.76438   -674.91003    139509.12   -43254.265    3690.8315   -46945.097    250.42553   0.98808249 
   20500    274.89887   -551.80108    139039.43    -43184.56    3775.0741   -46959.634    252.16929   0.99142034 
   20600     270.3038   -304.38314    138961.62    -43243.02    3711.9717   -46954.991    253.23178   0.99197542 
   20700    274.53804   -504.75879    139145.87   -43257.736    3770.1188   -47027.855    255.50619   0.99066196 
   20800    273.00172   -482.08345    139239.24   -43291.442    3749.0212   -47040.463    256.95975   0.98999764 
   20900    272.61705   -302.54155    139320.54   -43322.701    3743.7387   -47066.439    258.49994   0.98941989 
   21000    273.20295   -335.74316    139225.33   -43261.545    3751.7846   -47013.329    259.65184   0.99009652 
   21100    271.22339   -620.37315    139051.49   -43300.626    3724.6002   -47025.226    261.28041   0.99133432 
   21200    272.43004   -665.58541    139034.49   -43396.703    3741.1706   -47137.874      262.312   0.99145558 
   21300    269.58061   -449.15204    138840.16   -43445.304    3702.0406   -47147.344     263.0571   0.99284326 
   21400    265.53264   -534.73483     138853.4   -43386.997    3646.4514   -47033.448    263.95361   0.99274856 
   21500     274.2381   -514.81768    139016.66   -43222.231    3765.9999   -46988.231    265.63052   0.99158272 
   21600    270.37441   -540.74701    139021.05   -43332.538    3712.9415   -47045.479     266.8076   0.99155143 
   21700    269.15846   -394.26792    138996.79   -43320.419    3696.2432   -47016.662     267.8321   0.99172444 
   21800    274.69856   -359.69837    139391.93   -43235.111    3772.3233   -47007.434    269.17144   0.98891319 
   21900    273.83827   -633.41617    139393.17   -43251.711    3760.5092    -47012.22    269.89217   0.98890438 
   22000    268.92206   -551.71479    139433.03   -43270.761    3692.9969   -46963.758    271.68948   0.98862166 
   22100    277.26452   -758.26737    139290.42   -43228.525    3807.5605   -47036.086    272.98482   0.98963386 
   22200    269.43706   -433.08261    139071.94    -43173.64    3700.0692   -46873.709    273.98967    0.9911886 
   22300    272.98459    -371.6154    139182.15   -43193.618    3748.7859   -46942.404    275.87571   0.99040373 
   22400     271.7876   -511.34974    138990.76   -43340.697    3732.3482   -47073.046    276.97984    0.9917675 
   22500      266.374   -218.55788    138925.13   -43317.463    3658.0055   -46975.469    278.41846   0.99223598 
   22600    268.94972   -482.46968    138923.44   -43314.376    3693.3767   -47007.753    279.97178   0.99224808 
   22700    271.75204   -433.16123    138978.86   -43362.895    3731.8599   -47094.755    281.54121   0.99185243 
   22800    265.97298   -608.56666    138802.74   -43427.003    3652.4984   -47079.502    282.57221   0.99311094 
   22900    266.73268   -663.50235    138849.76   -43454.729     3662.931    -47117.66    284.01793   0.99277464 
   23000       272.92   -461.50601    138804.12   -43331.201     3747.899     -47079.1    285.19369   0.99310103 
   23100    271.07676   -415.36904    138880.77   -43301.283    3722.5865    -47023.87    287.12674   0.99255292 
   23200    272.75323   -488.31742    139005.56   -43291.848    3745.6088   -47037.457     288.3895   0.99166186 
   23300    272.77808   -703.37093    138713.79   -43320.265      3745.95   -47066.215    289.51942   0.99374778 
   23400    266.48306   -401.75602    139026.49   -43326.829     3659.503   -46986.332    291.15264   0.99151263 
   23500    270.44613   -442.45557    139197.41   -43285.559    3713.9263   -46999.485    292.49678   0.99029511 
   23600    265.55397   -556.03295     139111.8   -43330.998    3646.7443   -46977.742    292.64974   0.99090455 
   23700    271.13308   -481.98929     139336.1   -43367.121      3723.36   -47090.481    293.87554   0.98930939 
   23800    267.43925   -547.53218    139398.28   -43338.287    3672.6341   -47010.922    295.41039   0.98886811 
   23900    274.91829   -374.03579    139314.34   -43284.784    3775.3407   -47060.124    295.88293   0.98946397 
   24000    274.54972   -418.56724    139486.62   -43243.742    3770.2793   -47014.021    298.11955   0.98824189 
   24100    272.79307    -481.0666    139286.65   -43258.307    3746.1559   -47004.463    299.44246   0.98966063 
   24200    276.63038   -632.75122    139232.23   -43198.774    3798.8521   -46997.626    300.71972   0.99004747 
   24300    272.99278   -572.13767    139195.55   -43251.538    3748.8984   -47000.436    301.31086   0.99030833 
   24400     271.3869   -398.07136    139146.53   -43195.134    3726.8455   -46921.979    302.60973    0.9906572 
   24500    271.10686   -694.89099    139230.51   -43252.094    3722.9998   -46975.094    303.86232   0.99005972 
   24600     271.6324   -563.70087    139018.36   -43274.114    3730.2169   -47004.331    304.73693    0.9915706 
   24700    276.28687   -502.55877    138957.62   -43243.037    3794.1348   -47037.172     306.0608   0.99200404 
   24800    271.56857   -558.98779    138890.22   -43217.314    3729.3404   -46946.654    306.88999    0.9924854 
   24900    276.02545   -620.89704    138914.84   -43308.009    3790.5449   -47098.554    307.75126   0.99230954 
   25000    269.32151   -345.79985    138836.88   -43373.304    3698.4824   -47071.786    308.78379   0.99286671 
   25100    268.33809   -429.64408    138724.78   -43349.512    3684.9774    -47034.49    309.45649   0.99366902 
   25200    268.31133   -419.79093    138711.97   -43371.868      3684.61   -47056.478    310.98022    0.9937608 
   25300    274.67608   -426.18253    138923.79   -43392.149    3772.0145   -47164.163    312.72979   0.99224557 
   25400    271.17542    -546.8344    138865.61   -43390.352    3723.9414   -47114.294     313.7191   0.99266127 
   25500    272.06893   -391.64204    139060.49   -43348.704    3736.2116   -47084.916    314.90659   0.99127018 
   25600     269.6179   -635.77161    139235.36   -43413.635    3702.5526   -47116.188    315.90857    0.9900252 
   25700    271.04594   -654.54955    139187.35   -43434.201    3722.1633   -47156.364    317.08868   0.99036672 
   25800    265.65627   -391.52532    139046.34   -43425.908    3648.1492   -47074.057    317.98945   0.99137105 
   25900     264.6143   -470.65878    138767.23   -43535.077    3633.8402   -47168.917    319.19516   0.99336507 
   26000    271.22936   -428.67684    138896.92   -43395.097    3724.6821   -47119.779    320.36876   0.99243756 
   26100    268.70409    -413.1254    139092.45   -43444.821    3690.0036   -47134.824    321.75927   0.99104241 
   26200    270.29493   -564.95608    138804.94   -43329.499    3711.8499   -47041.349    322.70596    0.9930952 
   26300    272.26162   -587.95985    138673.84   -43285.653    3738.8577   -47024.511    323.78481   0.99403402 
   26400     271.0508   -417.32869    138767.13    -43358.41      3722.23    -47080.64    325.34225    0.9933658 
   26500    274.05115   -380.87527     138904.6   -43215.413    3763.4326   -46978.846    326.70464   0.99238269 
   26600    268.95112   -294.71182     138940.8   -43224.062     3693.396   -46917.458    327.74618   0.99212407 
   26700    266.82337   -699.91206    139051.01   -43280.957    3664.1764   -46945.133    328.67746   0.99133774 
   26800    273.61755   -464.77448    138940.33   -43292.865    3757.4782   -47050.344    330.33472   0.99212743 
   26900    272.35671   -464.66978    138938.91    -43374.49    3740.1636   -47114.654    331.42655   0.99213759 
   27000    269.54825   -378.75687    139037.96    -43417.11    3701.5961   -47118.706    333.22524   0.99143078 
   27100    269.95192   -452.80361    139091.65   -43376.835    3707.1395   -47083.975     334.6475   0.99104809 
   27200    277.97245   -614.11867    139456.49   -43315.595    3817.2822   -47132.877     336.8835   0.98845539 
   27300    272.48097   -456.85214     139487.4   -43305.151      3741.87   -47047.021    338.11096   0.98823634 
   27400    269.35971    -414.8772    139464.05   -43247.809    3699.0069   -46946.816    339.99046   0.98840181 
   27500    267.76818   -462.70047    139363.71   -43314.814    3677.1512   -46991.965    341.07301   0.98911345 
   27600    273.33447   -486.40131     139308.4   -43282.714    3753.5907   -47036.304    342.47173   0.98950615 
   27700    272.53389   -430.95345    138917.92   -43278.826    3742.5967   -47021.422    343.14093   0.99228754 
   27800    274.18842   -497.10104    138765.51   -43229.144    3765.3177   -46994.462    344.86066   0.99337738 
   27900     271.6757   -426.82624    138763.86   -43271.731    3730.8116   -47002.543    346.60968   0.99338916 
   28000    271.11107   -573.23931    138919.61   -43128.698    3723.0577   -46851.756     348.0627   0.99227547 
   28100    274.94058   -541.83385    138942.68   -43178.354    3775.6468   -46954.001    349.63261   0.99211071 
   28200    272.39703   -464.86311    138931.09   -43293.696    3740.7173   -47034.413    350.85904   0.99219346 
   28300     268.8937   -459.95808    138859.03   -43347.125    3692.6075   -47039.732    351.32332   0.99270833 
   28400    274.16748   -520.53071       139273   -43181.226    3765.0302   -46946.256    353.63244   0.98975766 
   28500    276.63611   -553.56552    139364.68   -43223.619    3798.9307    -47022.55     354.8162   0.98910654 
   28600    271.30817   -377.41229    139373.39   -43289.653    3725.7644   -47015.418    355.30165   0.98904475 
   28700    265.26792   -528.26651    139140.45   -43388.172    3642.8161   -47030.988    355.91063   0.99070055 
   28800    268.89055    -423.8736     139148.2   -43363.258    3692.5642   -47055.822     356.5057   0.99064531 
   28900    267.37118   -418.18684    139316.23   -43337.673    3671.6993   -47009.373    357.70946   0.98945054 
   29000    271.80596   -511.69847    139274.55   -43346.779    3732.6003   -47079.379    358.13066    0.9897466 
   29100    273.48205   -362.34075    139236.16   -43295.288    3755.6173   -47050.905    359.15162    0.9900195 
   29200    272.13135   -358.32145    139434.57   -43360.057    3737.0688   -47097.126    361.13587   0.98861079 
   29300     271.9298   -663.17727    139675.14   -43370.091     3734.301   -47104.392    362.76061     0.986908 
   29400     272.4537   -598.66597    139408.94   -43366.727    3741.4955   -47108.222    363.96682   0.98879251 
   29500    270.00319    -319.4689    139345.07   -43407.667    3707.8437   -47115.511    364.72035   0.98924577 
   29600    268.04208   -466.37218     139404.7   -43380.876    3680.9126   -47061.789    365.99862   0.98882259 
   29700     268.1627    -395.4078    139296.67   -43334.103    3682.5689   -47016.672    367.41825   0.98958947 
   29800    269.66277   -507.59422    139096.64   -43358.448    3703.1688   -47061.617    368.15601   0.99101255 
   29900    273.91806   -461.53341    139361.41   -43290.226     3761.605   -47051.831    369.15237   0.98912975 
   30000    273.95019   -454.94541    139665.57   -43308.722    3762.0462   -47070.768    369.81637   0.98697562 
   30100    268.93988   -641.64136    139699.48   -43274.913    3693.2416   -46968.154    371.49141   0.98673607 
   30200    271.55567   -567.15597    139587.98   -43298.893    3729.1631   -47028.056    372.27316   0.98752429 
   30300    265.95927   -553.88397    139457.64   -43260.293    3652.3101   -46912.603    373.38491   0.98844723 
   30400    273.14974   -764.05285    139426.69   -43368.512    3751.0539   -47119.566    374.06223    0.9886666 
   30500    268.68963   -386.24957    139290.27   -43425.533     3689.805   -47115.338    375.40695   0.98963495 
   30600    264.86497   -372.63227    139405.33   -43405.444    3637.2825   -47042.726    375.82792   0.98881815 
   30700    268.97201   -492.57626    139517.82   -43432.602    3693.6828   -47126.285    376.71184   0.98802083 
   30800    270.85202   -590.54398     139410.5    -43416.22    3719.5003    -47135.72    377.93339   0.98878143 
   30900    267.75771    -533.1007    139281.98   -43362.979    3677.0074   -47039.986    378.26836   0.98969386 
   31000    270.93763   -470.60504    139255.39   -43378.813    3720.6759   -47099.489    379.53843   0.98988282 
   31100    270.32998   -785.66035    139075.34   -43466.239    3712.3312    -47178.57    380.32619   0.99116436 
   31200     267.4983    -576.1952    138898.24   -43523.595    3673.4449    -47197.04    381.14168   0.99242813 
   31300    267.95954   -565.32375    139010.46    -43365.34     3679.779   -47045.119    382.23792   0.99162695 
   31400     266.8573   -424.15119    139053.34   -43432.271    3664.6424   -47096.913    383.54558   0.99132113 
   31500    271.46686   -546.18575    139063.25   -43362.275    3727.9436   -47090.218    384.62719   0.99125048 
   31600    269.67975   -321.94725    139089.99   -43304.325    3703.4019   -47007.727    385.98702   0.99105993 
   31700    276.13596   -791.02846    138987.22   -43313.422    3792.0624   -47105.485    386.58983   0.99179277 
   31800    268.55181   -500.63054    138988.36   -43321.537    3687.9124   -47009.449    387.30152   0.99178464 
   31900     272.4154   -437.57363    138845.98   -43313.622    3740.9695   -47054.591    387.67402   0.99280164 
   32000    273.30137    -371.7284    138713.94   -43297.157    3753.1362   -47050.293    388.48514   0.99374666 
   32100    271.62557   -560.48339    138249.26   -43369.563    3730.1231   -47099.686    389.25065    0.9970868 
   32200    273.87583   -400.12585     138383.2   -43301.207    3761.0251   -47062.232    390.94705   0.99612179 
   32300    265.48931   -316.54984    138522.38   -43355.716    3645.8563   -47001.572    392.63073   0.99512089 
   32400    273.37314   -594.36173    138888.76   -43267.152    3754.1218   -47021.274    394.90979   0.99249583 
   32500    271.28271   -424.56172    139009.44   -43331.852    3725.4147   -47057.267    396.18588   0.99163425 
   32600    274.90227   -449.84944    139451.24    -43353.95    3775.1207   -47129.071    399.17634   0.98849257 
   32700    269.09263   -506.66381    139280.49   -43349.732    3695.3392   -47045.071    399.38527   0.98970443 
   32800    272.75272   -567.16389    139234.07   -43402.273    3745.6017   -47147.875    401.13027   0.99003438 
   32900    267.73816   -374.87951    139287.79    -43485.03    3676.7389   -47161.769    402.17964   0.98965258 
   33000    267.55547   -749.96874    139256.73   -43448.421      3674.23   -47122.651    402.70766    0.9898733 
   33100    265.56103   -526.03783    138949.84   -43458.522    3646.8413   -47105.363    404.32943   0.99205955 
   33200    267.06406   -612.27865    139159.46   -43346.916    3667.4818   -47014.398    405.89771   0.99056517 
   33300    270.35008   -557.66761     138842.7   -43315.708    3712.6073   -47028.315    406.95839   0.99282512 
   33400    265.16623   -571.73415    138903.65   -43384.124    3641.4196   -47025.543     408.5059   0.99238948 
   33500    269.28292   -587.29763     138837.7   -43274.192    3697.9525   -46972.145    409.90846   0.99286087 
   33600      270.799   -301.29066    138936.75   -43298.396    3718.7721   -47017.168    411.75687   0.99215302 
   33700    272.42485   -363.74183    138994.77    -43304.14    3741.0993   -47045.239    413.87977   0.99173891 
   33800    270.77415   -454.70043    139136.93    -43277.53    3718.4309   -46995.961    415.20027   0.99072562 
   33900     270.8135   -515.80943     139275.2   -43298.625    3718.9713   -47017.597    416.91735   0.98974199 
   34000    272.50903   -550.07799    139254.56   -43282.408    3742.2552   -47024.664    419.25908   0.98988872 
   34100    274.46142   -503.99318    139170.84   -43353.154    3769.0667   -47122.221    419.49718    0.9904842 
   34200    268.30359   -441.51624    139160.48   -43338.694    3684.5037   -47023.198     421.4444   0.99055792 
   34300    270.44139   -473.44677     139185.2    -43314.67    3713.8613   -47028.531    422.86482   0.99038197 
   34400    274.57158   -506.63148    139291.33   -43193.535    3770.5795   -46964.115    424.28159   0.98962738 
   34500    271.48667   -653.48909    139291.37   -43164.172    3728.2157   -46892.388    425.91854   0.98962708 
   34600     274.9066   -547.00766    139420.09    -43205.99    3775.1801    -46981.17     427.5078   0.98871343 
   34700     271.5161   -561.19515    139421.57   -43281.277    3728.6197   -47009.897    428.19688   0.98870294 
   34800    264.58182   -589.55406    139457.77   -43311.252    3633.3942   -46944.646    429.97402    0.9884463 
   34900    269.78875   -612.18209    139120.61   -43314.948    3704.8988   -47019.846     430.4391   0.99084179 
   35000    269.28735   -556.15069    138893.37   -43364.474    3698.0133   -47062.487    431.58377   0.99246288 
   35100    269.17058   -420.71108    138688.49   -43320.023    3696.4098   -47016.433    432.19722     0.993929 
   35200    279.19255   -449.21828    138930.51   -43234.755    3834.0374   -47068.792    434.41391   0.99219761 
   35300    273.06423   -572.37939    139079.79   -43245.081    3749.8797   -46994.961    435.70052   0.99113264 
   35400    270.72796   -342.15467    139000.88   -43345.288    3717.7965   -47063.084     436.3937   0.99169526 
   35500    270.01316   -588.60766    139133.58   -43351.499    3707.9806    -47059.48    437.67133   0.99074946 
   35600    266.96275   -498.16805    139220.43    -43375.28    3666.0905   -47041.371    439.32079   0.99013138 
   35700    268.46258   -668.85973    139251.48   -43328.682    3686.6871   -47015.369    440.63711   0.98991062 
   35800     271.3357   -537.76361    139371.82   -43303.653    3726.1425   -47029.796    443.12358   0.98905587 
   35900    271.25875   -547.02415    139320.22   -43310.855    3725.0858   -47035.941    444.16844   0.98942219 
   36000     270.5458   -537.06541    139176.53   -43337.864     3715.295   -47053.159    445.35455   0.99044366 
   36100    270.20216   -364.90694     139262.1   -43355.864    3710.5759    -47066.44    446.78501   0.98983512 
   36200    275.22733   -387.91408    139383.29   -43294.812    3779.5847   -47074.396    448.76038    0.9889745 
   36300    275.02896   -513.05429    139587.85    -43298.21    3776.8605    -47075.07     450.4079   0.98752518 
   36400     273.4463   -489.46921       139571   -43272.048    3755.1264   -47027.175    452.09382   0.98764438 
   36500    271.92382   -597.21219     139344.4   -43192.139    3734.2188   -46926.358    452.50345   0.98925047 
   36600    268.54887   -550.40917    139156.11   -43311.905    3687.8721   -46999.777    452.24617   0.99058903 
   36700     273.7183   -557.57223    139140.52    -43300.55    3758.8616   -47059.412    453.25469   0.99070003 
   36800    271.10857   -427.34074    138986.55   -43353.674    3723.0234   -47076.697    453.83365   0.99179749 
   36900    269.05919   -449.44212    139049.54   -43372.813    3694.8801   -47067.693    455.35638   0.99134822 
   37000    272.73752   -764.08863    139139.83   -43301.878     3745.393   -47047.271    457.03669   0.99070496 
   37100    269.95227   -526.93852     138967.1   -43354.893    3707.1444   -47062.037    458.16621   0.99193632 
   37200    269.40489   -543.77816    138770.59   -43336.709    3699.6275   -47036.336    459.45809     0.993341 
   37300    267.69181   -642.17226    138656.08   -43348.576    3676.1024   -47024.679    459.97543   0.99416133 
   37400    270.62977   -400.31371    138677.79   -43388.643    3716.4482   -47105.091    460.87299   0.99400575 
   37500    267.85983   -609.81987    138763.91    -43400.14    3678.4097    -47078.55    461.61625   0.99338882 
   37600    268.34295   -453.93809    138980.89   -43325.171    3685.0442   -47010.215    463.51797   0.99183795 
   37700      275.948   -684.38934    138546.53    -43355.13    3789.4812   -47144.611    462.95844   0.99494743 
   37800    263.60774   -340.65132    138604.81   -43385.518    3620.0176   -47005.536    464.67188   0.99452913 
   37900    265.64189   -540.49465    138605.61    -43392.08    3647.9516   -47040.032    465.66699   0.99452338 
   38000    268.94154   -479.50816    138619.91   -43383.766    3693.2644   -47077.031    466.66872   0.99442078 
   38100    266.80409   -346.71032    139037.54   -43380.974    3663.9117   -47044.886    469.13964   0.99143382 
   38200    267.00705   -414.70362    139006.17   -43417.285    3666.6989   -47083.984    469.80976   0.99165757 
   38300    267.60486   -487.02559    139231.99   -43426.782    3674.9084   -47101.691    471.63094   0.99004919 
   38400    265.80487   -378.38707    138913.92   -43492.469    3650.1899   -47142.658    471.36134   0.99231607 
   38500    264.35239   -522.31218    138811.69   -43546.601    3630.2435   -47176.845    472.87805   0.99304691 
   38600    270.74559   -385.36413    138832.16   -43435.888    3718.0386   -47153.926    474.15234   0.99290047 
   38700    268.86756   -526.22401     139133.7   -43378.747    3692.2485   -47070.996     476.3108    0.9907486 
   38800    271.48697   -452.83856    139066.69   -43321.627    3728.2198   -47049.847    476.80902     0.991226 
   38900    272.72985   -497.60356    139179.08    -43243.86    3745.2877   -46989.148    478.18164   0.99042557 
   39000    272.48995   -651.88666    139127.51    -43306.43    3741.9932   -47048.423    479.41709   0.99079267 
   39100    273.40802   -469.71601    139194.44   -43307.224    3754.6007   -47061.825    481.46875   0.99031622 
   39200    269.70005   -612.45216    139197.89   -43329.906    3703.6808   -47033.586    482.58198    0.9902917 
   39300    270.94191   -415.62771    139380.76   -43297.747    3720.7347   -47018.481    484.09533    0.9889924 
   39400     270.2219   -541.38023    139472.45   -43312.745    3710.8471   -47023.592    485.17393   0.98834224 
   39500    269.04388   -537.06123    139425.26   -43272.503    3694.6699   -46967.173     485.9321   0.98867677 
   39600    271.23648   -607.63972    139252.01   -43281.089    3724.7798   -47005.869    486.36381   0.98990686 
   39700    273.10846   -328.50033    139296.87   -43300.415     3750.487   -47050.902    488.07052   0.98958805 
   39800    268.65572   -652.79025    138964.16   -43368.473    3689.3394   -47057.813    488.37093   0.99195729 
   39900    267.05996   -657.62469    138673.66    -43456.84    3667.4254   -47124.266    488.98786   0.99403533 
   40000    268.17225   -404.68849    138587.45   -43450.229    3682.7001    -47132.93    490.80381   0.99465369 
   40100    266.70741   -418.45322    138579.91   -43358.556     3662.584    -47021.14    492.53673   0.99470783 
   40200    269.60036   -470.79154     138798.4   -43310.952    3702.3117   -47013.264    493.84158     0.993142 
   40300    276.32462   -406.41591    139127.71   -43278.666    3794.6533   -47073.319    495.82673   0.99079122 
   40400    267.81972   -352.05115    139135.74   -43324.963    3677.8589   -47002.821    497.18352   0.99073404 
   40500    265.23556   -606.39703    139067.94   -43338.937    3642.3718   -46981.309    497.98482    0.9912171 
   40600    277.56493    -259.1737    139100.53   -43282.773    3811.6859   -47094.459    500.32895   0.99098487 
   40700    274.21949   -453.27114    139275.84   -43361.497    3765.7443   -47127.241    502.25171   0.98973749 
   40800    273.64165   -556.31073    139246.48   -43348.013    3757.8091   -47105.822    502.69322   0.98994616 
   40900    267.76475   -275.08856    139162.03   -43350.376     3677.104    -47027.48    503.85503   0.99054687 
   41000    270.37229    -623.0159    139030.82   -43367.431    3712.9123   -47080.343    504.29337    0.9914817 
   41100    267.61119   -416.65452    138985.67   -43408.938    3674.9953   -47083.934    504.44994   0.99180379 
   41200    273.82928   -600.76457    138973.62   -43280.334    3760.3858    -47040.72    504.79372   0.99188983 
   41300    269.80717   -461.50252    139013.97   -43395.741    3705.1517   -47100.893    506.18789    0.9916019 
   41400    266.66574   -344.59823    138997.81   -43370.703    3662.0118   -47032.715     507.8217   0.99171716 
   41500     271.4899   -540.55448     138739.9   -43392.204      3728.26   -47120.464    508.95692   0.99356071 
   41600    274.73713   -260.60973    139087.02   -43310.429    3772.8529   -47083.281    511.24345   0.99108108 
   41700    266.77946   -566.20447    139264.87   -43437.645    3663.5734   -47101.218    512.57561   0.98981541 
   41800    270.75389   -435.17439     139111.9   -43321.891    3718.1526   -47040.043     513.6028   0.99090388 
   41900    272.58583   -445.76657    139088.47   -43254.932      3743.31   -46998.242    514.34155   0.99107078 
   42000    267.23722   -248.82892     139001.8   -43332.423    3669.8597   -47002.282    514.90285   0.99168873 
   42100    274.11745   -831.74253    139041.22   -43314.039    3764.3431   -47078.382    516.35855   0.99140755 
   42200    266.56376   -506.33458     138641.7   -43332.159    3660.6113   -46992.771    516.74144   0.99426449 
   42300    266.63755    -543.6356    138636.74   -43388.092    3661.6247   -47049.716    518.54163   0.99430003 
   42400    267.02939   -341.06758    138393.52   -43435.703    3667.0057   -47102.709    519.22819   0.99604751 
   42500    268.69004    -673.2028    138328.04   -43370.286    3689.8107   -47060.096     520.2536   0.99651894 
   42600    269.11863   -567.86376    138379.99   -43380.341    3695.6963   -47076.037    521.91959   0.99614489 
   42700    269.04313   -592.82484    138350.44   -43377.201    3694.6595    -47071.86    522.93326   0.99635766 
   42800    267.97928   -513.43013    138527.52   -43478.856    3680.0501   -47158.906    524.79065   0.99508397 
   42900    270.13515   -462.14513    138814.16   -43430.655    3709.6557   -47140.311    527.13219   0.99302919 
   43000     265.7996   -351.83611    138894.22    -43363.94    3650.1175   -47014.058    529.52581   0.99245684 
   43100    265.83174   -452.52967    138971.14    -43397.63    3650.5588   -47048.189    530.67862   0.99190751 
   43200    270.31471    -374.0293    139042.31   -43362.164    3712.1215   -47074.286    532.63162   0.99139981 
   43300    268.44406   -512.17812    138985.55   -43393.168    3686.4327     -47079.6    533.78028   0.99180463 
   43400    270.40385   -593.28092    138797.52   -43444.718    3713.3457   -47158.064    535.61146   0.99314828 
   43500    269.27752   -519.24938    138953.67   -43398.246    3697.8783   -47096.124    536.82584   0.99203221 
   43600    271.89103   -298.63997    138943.98   -43377.529    3733.7685   -47111.297    538.59976   0.99210139 
   43700    266.98133   -552.92296    139038.39   -43383.178    3666.3456   -47049.524     540.6723   0.99142774 
   43800    271.05485   -466.59268     139100.9   -43328.825    3722.2856    -47051.11    541.76651   0.99098222 
   43900    267.26223   -534.32415    139037.85   -43314.508    3670.2031   -46984.711    542.84423   0.99143162 
   44000    273.07047   -563.68509     138895.9   -43311.757    3749.9653   -47061.722    543.21909    0.9924448 
   44100    270.39217   -504.94487    138918.47   -43259.239    3713.1853   -46972.424    545.66908   0.99228356 
   44200    272.01564   -596.60438    138620.29   -43270.325    3735.4798   -47005.805    546.25763   0.99441807 
   44300    266.92202    -575.1511    138554.21   -43352.702    3665.5312   -47018.233    547.37662   0.99489231 
   44400    268.90298    -319.1755    138666.18   -43387.049    3692.7349   -47079.784    548.87411   0.99408892 
   44500    267.20166   -456.29488    138705.28   -43460.965    3669.3713   -47130.336    549.28175   0.99380873 
   44600    264.04236   -389.06952    139006.67   -43443.717     3625.986   -47069.703     551.2915   0.99165399 
   44700     266.6705   -701.55462    139030.72   -43457.337    3662.0771   -47119.414    551.86645   0.99148243 
   44800    271.30459   -400.16581    139075.01   -43421.244    3725.7152    -47146.96    552.72788   0.99116667 
   44900    268.86344    -758.1201    138992.35   -43395.899    3692.1918   -47088.091    554.22518   0.99175617 
   45000    267.87604    -406.6176    139077.24   -43371.404    3678.6323   -47050.037    555.59187   0.99115082 
   45100    273.25206   -596.88369    139207.98   -43404.569     3752.459   -47157.028    556.94351   0.99021993 
   45200    267.54217   -406.04098    139154.49   -43414.625    3674.0475   -47088.672    558.13821    0.9906006 
   45300    267.16714   -483.44428    139110.76   -43413.657    3668.8973   -47082.554    559.79412   0.99091193 
   45400    267.76208   -457.90549    138967.73   -43456.986    3677.0674   -47134.054    560.44368   0.99193188 
   45500    273.02152   -405.16428    139048.87   -43396.439    3749.2931   -47145.732    561.99893   0.99135305 
   45600    269.98838   -570.20335    139120.95   -43402.536    3707.6402   -47110.176    563.81904   0.99083942 
   45700    271.01448   -464.67562    138842.58   -43414.216    3721.7312   -47135.947    563.93111   0.99282595 
   45800    269.47795   -612.04858    138874.98   -43293.714    3700.6307   -46994.345     564.7604   0.99259432 
   45900    270.61961   -516.63784    138827.18    -43311.33    3716.3087   -47027.638     565.9688    0.9929361 
   46000    275.28565   -678.21034    139052.12   -43338.689    3780.3854   -47119.074      567.707   0.99132982 
   46100    270.87437   -518.87678    139174.67    -43368.97    3719.8072   -47088.777    568.40345   0.99045695 
   46200    267.07699   -441.39801    139009.17    -43364.49    3667.6592    -47032.15    569.51976   0.99163616 
   46300     273.9139   -348.84867    139473.51    -43276.92    3761.5478   -47038.468    571.20933   0.98833472 
   46400    272.78568   -579.99701    139340.46   -43285.066    3746.0545   -47031.121    572.63586   0.98927846 
   46500    269.06232   -559.89516       139186   -43317.198     3694.923   -47012.121    574.17664   0.99037628 
   46600    274.30677   -554.38204    139511.99   -43246.725     3766.943   -47013.668    576.84141   0.98806214 
   46700    273.23065   -647.33901    139237.61   -43207.958     3752.165   -46960.123    577.35826    0.9900092 
   46800     276.2109    -663.4465    138781.45   -43152.326    3793.0915   -46945.417    576.92645   0.99326325 
   46900    272.04961    -469.3626    138656.95   -43218.373    3735.9463   -46954.319    577.94832   0.99415511 
   47000    270.70129   -796.82942    138591.72    -43238.94    3717.4303   -46956.371     579.4419   0.99462303 
   47100    272.76193   -567.64052    138631.58   -43248.923    3745.7283   -46994.651    581.86018   0.99433705 
   47200    271.74626   -531.72056    138454.58   -43218.394    3731.7806   -46950.174    581.46377   0.99560821 
   47300     273.6764   -453.13157    138447.31   -43270.508    3758.2863   -47028.794     582.3316   0.99566049 
   47400    275.07709   -622.62417    138637.78   -43242.715    3777.5214   -47020.237    583.41885   0.99429257 
   47500    275.97153   -508.68101    138714.73   -43281.349    3789.8044   -47071.153    584.21456   0.99374105 
   47600    271.60911   -399.03162    138820.68   -43250.949     3729.897   -46980.846    586.26488    0.9929826 
   47700    273.03549      -606.83     138956.6   -43311.894     3749.485   -47061.379    587.44585    0.9920113 
   47800    273.40278   -565.88928    138866.66   -43313.134    3754.5288   -47067.663    588.90237   0.99265377 
   47900    268.92979   -419.93366    138839.87   -43320.089    3693.1031   -47013.192    589.33976    0.9928453 
   48000    270.23433   -491.09998    138968.24   -43432.518    3711.0178   -47143.536    591.50991   0.99192821 
   48100    268.22421   -356.36052     139177.5   -43410.151    3683.4136   -47093.565    593.40374   0.99043677 
   48200     268.7541   -508.02647    139284.82   -43379.348    3690.6904   -47070.039    594.87673   0.98967364 
   48300    264.14809   -526.49004    139211.36   -43358.288    3627.4379   -46985.726    596.41522   0.99019587 
   48400    273.11929   -647.17033    138982.58   -43302.913    3750.6357   -47053.549    597.16113   0.99182585 
   48500    267.83798   -356.82632    139116.27   -43341.369    3678.1097   -47019.479    599.31264    0.9908727 
   48600     269.6276   -467.10534    139005.29   -43395.071    3702.6858   -47097.756    600.26338   0.99166383 
   48700    266.88163   -601.59024    138958.38   -43446.514    3664.9764    -47111.49    601.54463   0.99199861 
   48800    271.27633   -320.48226     138799.7   -43434.658    3725.3271   -47159.985    602.22334   0.99313265 
   48900    264.92427   -283.83298    138601.57   -43386.905    3638.0969   -47025.002    603.13172   0.99455237 
   49000    263.22538   -370.15782    138644.75    -43400.43    3614.7667   -47015.197     603.7668   0.99424262 
   49100    269.05663   -429.80498    139083.74   -43384.017    3694.8449   -47078.862    607.08742   0.99110451 
   49200     267.0244   -813.67326    138995.92   -43476.807    3666.9371   -47143.744    608.20604   0.99173064 
   49300      264.074   -641.06743     138752.1   -43486.559    3626.4205   -47112.979    608.75846   0.99347339 
   49400    271.35429   -431.00985    139131.71     -43355.5    3726.3977   -47081.898    611.12282   0.99076279 
   49500    269.18217    -379.9621    139209.17   -43359.612    3696.5689   -47056.181    612.30933   0.99021144 
   49600    270.72831   -513.61782    139334.16   -43406.938    3717.8014   -47124.739     613.7232   0.98932319 
   49700    270.72197   -633.65319    139385.69   -43392.471    3717.7144   -47110.186    614.69715   0.98895744 
   49800    269.65294   -583.50501    139292.31   -43318.198    3703.0337   -47021.232    616.04153   0.98962042 
   49900    267.11501   -356.13366    139286.33    -43402.85    3668.1814   -47071.031    617.48187   0.98966291 
   50000    268.63903   -571.95564    139223.48   -43419.985    3689.1102   -47109.095    618.90338    0.9901097 
   50100    270.74074   -409.75753    139121.08     -43482.5    3717.9721   -47200.472    619.76644   0.99083843 
   50200    266.26561    -345.0981    139256.55   -43430.358    3656.5169   -47086.875     621.2255   0.98987459 
   50300    267.30843   -624.38948    139018.24   -43405.281    3670.8376   -47076.119    622.78467   0.99157146 
   50400    270.38556   -422.27582    139069.45   -43358.683    3713.0946   -47071.778    624.35732   0.99120631 
   50500    268.28067   -317.40662    139073.53    -43394.89     3684.189   -47079.079    626.37753   0.99117725 
   50600    266.93544   -369.49763    138996.65   -43369.439    3665.7155   -47035.155     627.7072   0.99172543 
   50700    270.35267   -488.42941    138835.57   -43340.384    3712.6428   -47053.027    628.40415   0.99287609 
   50800    271.76506   -610.76968    138946.18   -43257.586    3732.0387   -46989.625    630.40258   0.99208569 
   50900    273.78821   -488.78362    138870.99   -43277.636    3759.8218   -47037.458    631.91745   0.99262284 
   51000    265.83669   -355.08059    138928.54   -43343.224    3650.6268   -46993.851    633.93555   0.99221165 
   51100    269.93947    -476.2793    139315.19   -43320.148    3706.9686   -47027.117    636.22682   0.98945789 
   51200    270.23617   -333.88109    139220.09   -43255.879    3711.0431   -46966.922    636.99768   0.99013382 
   51300    274.64035   -528.63971    139301.43   -43167.723    3771.5238   -46939.247    638.41854   0.98955564 
   51400    272.06558   -516.59499    139230.13   -43380.358    3736.1656   -47116.523    639.33912   0.99006239 
   51500    266.76319   -550.35026    138800.26   -43398.827      3663.35   -47062.177    639.15562   0.99312865 
   51600    265.85717   -465.84304    138838.79   -43410.616    3650.9081   -47061.525    638.63506   0.99285303 
   51700    274.07448   -464.42752    138628.23   -43385.355     3763.753   -47149.108    639.02382   0.99436106 
   51800    267.28144   -518.33329    138616.72   -43443.555     3670.467   -47114.022    640.77226   0.99444364 
   51900    270.76255    -693.1917    138511.18   -43478.263    3718.2717   -47196.535    641.47525   0.99520135 
   52000     272.1736   -607.88777    138578.66   -43473.217    3737.6489   -47210.866    643.54355   0.99471678 
   52100    266.68017    -616.8979    138481.67   -43445.721      3662.21   -47107.931      644.148   0.99541348 
   52200    270.82345    -381.6823    138526.16   -43485.386    3719.1079   -47204.494    644.95757   0.99509378 
   52300    266.25795   -351.62713    138683.08   -43383.502    3656.4117   -47039.913    647.38213   0.99396782 
   52400    274.79279   -513.01282    138861.17   -43292.602    3773.6172   -47066.219    648.87948   0.99269305 
   52500    272.91133   -543.73941    138742.39   -43332.364    3747.7799   -47080.144    650.25231   0.99354287 
   52600    267.25628   -540.18412    139038.23   -43393.236    3670.1214   -47063.357      652.518   0.99142887 
   52700    265.44451   -408.04371    138967.73   -43358.859    3645.2411   -47004.101    654.82073   0.99193185 
   52800    269.94877   -529.00312    138899.76    -43430.08    3707.0964   -47137.176    655.80021   0.99241725 
   52900    264.81913   -525.25211    138813.17   -43479.042     3636.653   -47115.695    656.92112   0.99303627 
   53000    264.68999   -564.16323    139043.79   -43534.466    3634.8796   -47169.345     657.8647   0.99138923 
   53100    266.61638   -464.77145    139185.98   -43573.358     3661.334   -47234.692    658.83298   0.99037643 
   53200    272.84271   -578.25546    139328.29   -43407.251    3746.8376   -47154.089     660.1672   0.98936485 
   53300    266.63812   -610.67842    139073.33   -43481.921    3661.6325   -47143.554    661.45407   0.99117863 
   53400    272.36488   -477.80521    139064.79   -43349.383    3740.2758   -47089.659    663.09031   0.99123951 
   53500    273.88851   -585.28075    138919.08   -43312.149    3761.1991   -47073.348    663.95679   0.99227924 
   53600    270.23486   -598.20164    138759.99   -43339.413    3711.0251   -47050.438    665.51322   0.99341687 
   53700     271.2392   -480.82727    138762.62   -43291.517    3724.8172   -47016.334    667.00846   0.99339803 
   53800    267.92337   -467.23766    138654.65   -43423.903    3679.2823   -47103.186    667.46914   0.99417163 
   53900    266.84404   -585.09055    138625.18   -43422.858    3664.4603   -47087.319    668.41817   0.99438296 
   54000    269.17183   -446.64145    138789.71   -43359.386    3696.4269   -47055.813    669.98437   0.99320419 
   54100    268.47894   -351.94632    138807.65   -43315.591    3686.9117   -47002.503    670.62262   0.99307582 
   54200     267.7682   -553.26417    138983.08   -43275.531    3677.1515   -46952.683    671.84563    0.9918223 
   54300     272.8608   -562.24134    139017.82   -43290.489     3747.086   -47037.575    674.25202   0.99157445 
   54400    271.65237   -382.35973    139009.19   -43304.921    3730.4911   -47035.412    675.26292   0.99163599 
   54500    271.12302     -401.902    138963.37   -43348.895    3723.2218   -47072.117    675.67491   0.99196298 
   54600    264.79302   -610.94194    138892.41   -43329.072    3636.2945   -46965.366    676.81549   0.99246977 
   54700    271.87806    -347.6279    139084.72   -43321.124    3733.5905   -47054.715    678.63565   0.99109752 
   54800    269.72254   -650.30886    139010.21   -43359.063    3703.9895   -47063.052    679.10745   0.99162875 
   54900    273.31943   -528.39974    138909.88   -43268.329    3753.3842   -47021.713    680.23821   0.99234496 
   55000    270.19565   -729.09689    139075.57   -43234.395    3710.4866   -46944.881    682.94334   0.99116268 
   55100     272.8826    -386.1772    139117.08   -43165.426    3747.3853   -46912.811    683.81324   0.99086697 
   55200    269.68612   -556.29134     139168.5   -43233.371    3703.4894    -46936.86    685.18574   0.99050081 
   55300    270.85967   -503.06488    138952.25   -43219.349    3719.6053   -46938.954    686.03228   0.99204232 
   55400    274.75841   -541.55178    138963.82   -43237.003    3773.1451   -47010.148     688.2673   0.99195977 
   55500    274.25891   -492.39825    138651.83   -43213.596    3766.2857   -46979.882    689.07871   0.99419186 
   55600    271.55103   -613.52745    138837.11   -43184.587    3729.0995   -46913.687    690.82901   0.99286507 
   55700      268.136   -447.52623    138720.23   -43209.323    3682.2022   -46891.525    691.52054   0.99370163 
   55800    270.97366   -505.91161    139034.77   -43260.562    3721.1707   -46981.733    693.68352   0.99145357 
   55900    270.69623   -338.14721    139138.37   -43350.403    3717.3609   -47067.764    695.27392   0.99071537 
   56000    264.75965   -505.04354     138997.5   -43439.686    3635.8362   -47075.522    697.00808   0.99171942 
   56100    271.46173   -494.05888    139339.46   -43394.061    3727.8732   -47121.935    699.80289   0.98928556 
   56200    271.43952   -525.19242    139271.95   -43369.185    3727.5681   -47096.753    700.95902   0.98976513 
   56300     273.4444   -313.69826    139249.45   -43342.097    3755.1003   -47097.197    701.86753   0.98992503 
   56400    275.71083   -651.97799    139155.22   -43322.787    3786.2244   -47109.011    701.16112   0.99059534 
   56500    268.43455   -498.48607    139117.68   -43294.128    3686.3021    -46980.43    701.08238   0.99086265 
   56600    274.58548   -596.89101    139032.98   -43250.076    3770.7704   -47020.847    701.37285    0.9914663 
   56700    271.98688   -563.38988    139133.02   -43259.957    3735.0849   -46995.042     703.4821   0.99075346 
   56800    277.11428   -545.20009    138945.32   -43221.913    3805.4973    -47027.41     704.3115   0.99209186 
   56900    272.58223   -288.98218    138737.88   -43288.935    3743.2605   -47032.196    705.14571   0.99357521 
   57000    272.69855   -489.35271    138761.28   -43371.911    3744.8579   -47116.769    706.91319   0.99340768 
   57100    272.41186   -570.74848    138922.27   -43388.767    3740.9208   -47129.688    709.30384   0.99225641 
   57200    265.34136   -406.16586    138952.32   -43451.806    3643.8247   -47095.631    710.40526   0.99204187 
   57300    267.18704    -553.4976    139020.73   -43474.966    3669.1706   -47144.136    711.79773   0.99155369 
   57400    265.65665   -583.09127    139179.69     -43431.1    3648.1544   -47079.254    713.78268   0.99042122 
   57500    271.67273   -709.59483    139015.05   -43392.219    3730.7707    -47122.99    715.03856   0.99159418 
   57600    266.38213   -436.64221    139135.17   -43441.965     3658.117   -47100.082    717.94546   0.99073811 
   57700    266.89855   -482.44165    139229.42     -43441.2    3665.2088   -47106.408    719.98945   0.99006743 
   57800    274.59731   -680.26799     138852.8   -43337.747    3770.9327   -47108.679    719.99221   0.99275285 
   57900    276.00707   -658.44345    138968.01   -43340.892    3790.2924   -47131.185    722.83165   0.99192985 
   58000     264.9521   -386.27575    139026.01   -43459.295    3638.4791   -47097.774    725.03827   0.99151606 
   58100    271.25975   -516.04589    139268.98   -43350.576    3725.0994   -47075.675     726.6816   0.98978619 
   58200    271.27256   -511.05901    139195.66   -43363.344    3725.2754   -47088.619    727.65667   0.99030756 
   58300    266.19014    -408.0703    139251.67    -43441.69    3655.4806   -47097.171    729.03267   0.98990923 
   58400    267.95866   -315.59878    139430.94   -43339.944    3679.7669   -47019.711    730.59033   0.98863652 
   58500    272.67146    -395.7376    139593.24   -43298.066     3744.486   -47042.552    732.78057   0.98748702 
   58600    272.44861   -670.62285    139537.77   -43379.223    3741.4256   -47120.648    733.64067   0.98787957 
   58700     268.9871   -614.57238    139219.24   -43311.833      3693.89   -47005.723    733.94728   0.99013982 
   58800    271.56499   -706.91623    139187.03   -43326.453    3729.2912   -47055.744    735.51076   0.99036896 
   58900    275.68862   -591.46768    139260.04   -43251.085    3785.9193   -47037.004    737.10334   0.98984978 
   59000    269.90472   -733.38569    139067.19   -43326.672    3706.4914   -47033.164    736.66256   0.99122242 
   59100    273.40783   -430.92853    138777.16   -43328.447    3754.5982   -47083.046    736.55538   0.99329398 
   59200    270.51918   -510.99063    138916.07   -43395.034    3714.9294   -47109.964    738.71071   0.99230075 
   59300    268.92776   -573.64491    138858.18   -43424.882    3693.0752   -47117.957    739.67842   0.99271441 
   59400    272.47547   -193.85187    138969.49    -43342.73    3741.7945   -47084.524    742.11163   0.99191929 
   59500    268.84391   -472.42669    139308.94   -43364.952    3691.9236   -47056.876     744.9234   0.98950233 
   59600    277.50656   -509.30625    139278.56   -43293.815    3810.8843   -47104.699    745.98676   0.98971813 
   59700    266.36226   -432.70722    139188.92    -43314.57    3657.8442   -46972.414    745.18089    0.9903555 
   59800    271.40967   -544.59242    138997.04   -43282.182    3727.1583   -47009.341    746.32312    0.9917227 
   59900    265.26832   -530.17235    138954.87   -43368.649    3642.8215   -47011.471     748.0901   0.99202366 
   60000    269.97659   -502.38175    138916.79    -43346.75    3707.4783   -47054.229    748.62648   0.99229559 
   60100    274.33296   -455.21525    139030.87   -43282.975    3767.3026   -47050.278    750.10682   0.99148133 
   60200    272.43657   -565.90445    138990.28   -43401.529    3741.2603   -47142.789    750.98153   0.99177092 
   60300    271.36612    -476.0266       139003   -43387.092    3726.5602   -47113.652     753.2139   0.99168014 
   60400    265.00274   -629.75747    139014.54   -43349.026    3639.1745   -46988.201    754.46982   0.99159783 
   60500    268.73727   -405.74239    139071.71   -43431.927    3690.4593   -47122.386    756.65992   0.99119019 
   60600    270.88879    -657.1955    139168.88   -43422.691    3720.0051   -47142.696    758.32499   0.99049814 
   60700    269.80817   -506.85185    139127.14   -43415.118    3705.1655   -47120.284    759.06192   0.99079532 
   60800    270.77096   -461.14091    139054.98   -43417.431    3718.3871   -47135.818    760.97318   0.99130943 
   60900    273.83895   -488.04307    139254.76   -43350.478    3760.5185   -47110.997    762.56534   0.98988728 
   61000    275.97102   -660.95047    139214.66   -43313.233    3789.7973    -47103.03     762.8323   0.99017241 
   61100    271.26864    -431.2453     139050.1   -43244.033    3725.2215   -46969.254    763.88174   0.99134424 
   61200    271.77698   -404.71961    139136.21   -43320.728    3732.2023    -47052.93    764.88819    0.9907307 
   61300     272.9266   -593.05836    139141.81   -43270.266    3747.9896   -47018.255    765.45136   0.99069085 
   61400    273.38975   -444.70278     139393.7   -43121.747    3754.3499   -46876.097    768.09382   0.98890059 
   61500    276.67064    -478.8123    139396.78   -43153.715     3799.405    -46953.12    768.41345   0.98887879 
   61600    272.95486   -635.93557     139127.8   -43233.034    3748.3777   -46981.412    767.66623   0.99079057 
   61700    269.04457   -505.64371    139077.85   -43278.897    3694.6793   -46973.576    769.36897   0.99114643 
   61800    267.83064    -612.7434    138786.78   -43300.444    3678.0089   -46978.453    769.31296   0.99322514 
   61900    273.75768   -385.89822    138597.21   -43209.442    3759.4024   -46968.844    770.99727   0.99458361 
   62000    269.41113   -537.58015    138888.58   -43303.234    3699.7131   -47002.947    773.40943   0.99249711 
   62100    269.33444   -392.57689    138796.72   -43319.177      3698.66   -47017.837    774.56945   0.99315401 
   62200    267.93196   -389.21402    138886.02   -43302.079    3679.4002   -46981.479     776.1891    0.9925154 
   62300    272.22332   -561.49809    138954.75   -43335.552    3738.3318   -47073.884    777.74347   0.99202449 
   62400    268.13505   -574.17497     138875.6   -43403.035    3682.1892   -47085.225    778.86511   0.99258992 
   62500    268.00501   -485.46688    138915.95   -43391.376    3680.4034   -47071.779    780.77593    0.9923016 
   62600    268.32561   -377.61003    139083.57   -43335.084    3684.8061    -47019.89    783.23703   0.99110569 
   62700    269.96225   -621.72319       138996   -43319.644    3707.2814   -47026.926    783.21539   0.99173011 
   62800    270.66278   -527.51115    138913.67   -43351.593    3716.9014   -47068.494    783.72978   0.99231787 
   62900     269.5123   -435.02784    139076.28   -43324.293    3701.1024   -47025.395    785.66307   0.99115763 
   63000    272.40235   -543.91059    139022.42   -43365.538    3740.7904   -47106.328    786.91073   0.99154164 
   63100     271.4026   -362.05433    138839.27   -43338.308    3727.0612   -47065.369    787.60397   0.99284965 
   63200    267.56857   -527.20041    138702.37   -43353.297      3674.41   -47027.707    788.64891   0.99382957 
   63300    269.85534   -522.88901     138668.3   -43374.063    3705.8132   -47079.876    791.15028   0.99407372 
   63400    267.45949   -377.76086    138558.13   -43437.992     3672.912   -47110.904    791.98376   0.99486417 
   63500    270.85162   -392.05234    138795.25   -43374.878    3719.4948   -47094.373    793.39447   0.99316448 
   63600    271.12864   -658.83665    139030.17   -43332.468     3723.299   -47055.767    794.49544   0.99148637 
   63700    267.35606   -529.52206     138936.3   -43345.884    3671.4916   -47017.376    794.83025   0.99215625 
   63800    271.86409    -597.6161    138777.56   -43380.829    3733.3986   -47114.227    795.71143   0.99329113 
   63900    273.20943   -526.27951    138869.03   -43317.906    3751.8737    -47069.78    797.63588   0.99263683 
   64000    271.21045   -471.99847    139051.82   -43392.158    3724.4224    -47116.58     799.1835   0.99133198 
   64100    265.60176   -267.55735     139170.1   -43450.462    3647.4006   -47097.862    800.87793   0.99048947 
   64200    271.04477    -630.4866    138996.69   -43431.549    3722.1472   -47153.697    801.97856   0.99172519 
   64300    268.57808   -438.86221    138733.17   -43463.092    3688.2732   -47151.366    802.49852   0.99360894 
   64400    268.29647   -340.32437    138731.29   -43440.958     3684.406   -47125.364    803.43307   0.99362238 
   64500    265.52674   -697.43167    138658.13   -43492.106    3646.3703   -47138.476     804.1711   0.99414666 
   64600     269.0959   -388.17243    138611.36   -43384.639    3695.3841   -47080.023    806.70801   0.99448214 
   64700    269.65892   -372.97489    138830.79   -43326.527    3703.1159   -47029.643    809.03015   0.99291029 
   64800    276.14144   -461.44062    139101.87   -43270.849    3792.1377   -47062.986    811.97407   0.99097526 
   64900    271.33916   -715.39075    139054.08   -43276.272    3726.1899   -47002.462    814.74682   0.99131587 
   65000    272.79966   -536.31117    139006.65   -43345.419    3746.2464   -47091.665    815.27687   0.99165412 
   65100    269.26346   -535.29813    138898.56   -43424.192    3697.6853   -47121.877     815.3207   0.99242585 
   65200    269.49435   -480.22242    138670.73   -43395.948     3700.856   -47096.804    815.55204   0.99405635 
   65300    269.63617   -394.81423    138786.74   -43423.833    3702.8035   -47126.637    817.56162   0.99322544 
   65400    264.51702    -590.3896     138965.7   -43439.976    3632.5042    -47072.48    820.23765   0.99194635 
   65500    268.81054    -568.2352    138558.34   -43366.214    3691.4655   -47057.679    819.33053   0.99486261 
   65600    273.81221   -414.48661    138617.91   -43345.135    3760.1513   -47105.286    820.93597   0.99443509 
   65700    268.13718   -281.02896    138838.95   -43288.671    3682.2184    -46970.89    823.17163   0.99285193 
   65800    267.11232     -388.548    138791.02   -43369.119    3668.1444   -47037.264    823.76455   0.99319477 
   65900     271.3065   -139.69724    139144.94   -43332.604    3725.7414   -47058.346    825.12302   0.99066853 
   66000    268.78829   -592.93216    139296.79   -43306.288    3691.1599   -46997.448    828.04066    0.9895886 
   66100    269.08038   -683.39797    139168.33   -43316.865     3695.171   -47012.036    829.22242   0.99050202 
   66200     272.2528   -508.70731    138931.44   -43270.606    3738.7366   -47009.342    828.46565   0.99219093 
   66300    272.69126   -416.14645    139167.22   -43271.066    3744.7578   -47015.824     831.0476   0.99050992 
[...]
   84600     271.5172   -382.69772    139047.77   -43420.518    3728.6349   -47149.152    1065.6609   0.99136087 
   84700    266.13233   -546.89669    139328.69   -43464.954    3654.6867   -47119.641     1068.265   0.98936205 
   84800       266.66   -441.97323    139287.78   -43371.821     3661.933   -47033.754    1069.4237    0.9896526 
   84900    269.01281   -494.74331     139221.2   -43341.557    3694.2432     -47035.8    1071.0859   0.99012592 
   85000    270.26627   -417.45014    139122.47   -43318.722    3711.4564   -47030.178      1073.33   0.99082858 
   85100    270.20977   -513.83924    139281.95   -43349.601    3710.6805   -47060.281    1074.5711   0.98969406 
   85200    269.14482    -433.1919    139137.01   -43361.113    3696.0559   -47057.169    1075.9154   0.99072499 
   85300    268.19765   -435.37831    139116.14   -43322.941    3683.0488    -47005.99    1075.7285   0.99087361 
   85400    269.16173   -478.58938    138970.22   -43298.165    3696.2881   -46994.453     1075.748    0.9919141 
   85500    270.62824   -386.77884     138689.4   -43312.068    3716.4271   -47028.495    1075.3155   0.99392252 
   85600    271.60841    -540.4743    139009.14   -43280.433    3729.8875    -47010.32    1077.7529   0.99163635 
   85700    274.14541   -401.33028    138998.72   -43311.145     3764.727   -47075.872    1078.7663   0.99171067 
   85800    270.87255   -372.50612    139200.15   -43295.697    3719.7821   -47015.479    1080.6289   0.99027562 
   85900    271.74634   -430.76135    139208.37   -43364.056    3731.7816   -47095.838    1081.6255   0.99021718 
   86000    267.71542   -544.87174    139574.02   -43346.023    3676.4266   -47022.449    1084.9769   0.98762306 
   86100    273.60559    -492.5031    139468.67   -43371.885    3757.3139   -47129.199    1084.1407   0.98836907 
   86200    268.25072   -484.81644     139379.7   -43383.284    3683.7776   -47067.061    1084.5894   0.98899998 
   86300    270.29427   -403.98239    139422.24   -43401.993     3711.841   -47113.833    1086.9655   0.98869816 
   86400    273.38804   -702.26478    139267.67    -43350.75    3754.3264   -47105.076    1087.2283   0.98979551 
   86500    274.38768   -423.99091    139017.01   -43359.182    3768.0541   -47127.236    1086.4144   0.99158021 
   86600    271.10593    -596.8643    138865.81   -43347.772    3722.9871   -47070.759    1086.8056   0.99265989 
   86700    277.21886    -704.5795    138861.89   -43374.148    3806.9335   -47181.081    1087.1311   0.99268788 
   86800    275.92769   -559.79566    138733.03   -43347.429    3789.2024   -47136.632    1087.0842   0.99360994 
   86900    270.23503   -536.76132    138791.01   -43381.465    3711.0274   -47092.493    1090.7308   0.99319486 
   87000    266.85396   -491.34357    138881.13     -43422.5    3664.5965   -47087.097    1092.0629    0.9925504 
   87100    268.00295     -356.158    139053.14   -43443.681    3680.3752   -47124.057    1094.8853   0.99132255 
   87200    272.69219   -551.06161    138869.47   -43429.805    3744.7706   -47174.576    1095.2434   0.99263369 
   87300    274.09802   -476.71575    139076.53   -43313.089    3764.0763   -47077.165    1097.4958   0.99115586 
   87400     271.6763   -516.39557    139221.05   -43358.529    3730.8197   -47089.349    1099.5882   0.99012698 
   87500    271.40922   -611.05588     139053.9   -43442.858    3727.1521    -47170.01    1100.4985   0.99131715 
   87600    273.73758   -399.38852     138997.3   -43403.853    3759.1264    -47162.98    1102.0486   0.99172079 
   87700    270.98249   -574.58462    139050.11   -43435.564     3721.292   -47156.856    1104.9516   0.99134418 
   87800    272.73893   -358.63094    139371.48   -43335.647    3745.4125    -47081.06    1107.4917   0.98905826 
   87900    274.97398   -534.24745    139449.89   -43337.002    3776.1055   -47113.108    1109.4446   0.98850215 
   88000    272.54175   -454.14063    139362.99   -43329.842    3742.7046   -47072.547    1109.8507   0.98911856 
   88100    271.83562   -557.18588     139148.3   -43402.033    3733.0076   -47135.041    1110.2845   0.99064465 
   88200    273.37424   -453.91718    139373.57   -43336.683    3754.1369    -47090.82    1112.0163   0.98904343 
   88300    273.30692   -595.10296     139239.8   -43329.531    3753.2124   -47082.743    1113.0077   0.98999361 
   88400    269.54205   -508.04416    139221.88   -43334.502     3701.511   -47036.013    1114.2856    0.9901211 
   88500    266.53271   -707.24753    139114.09   -43404.225    3660.1849    -47064.41    1114.5376   0.99088828 
   88600    271.59621   -307.60578    139001.08   -43388.391    3729.7199   -47118.111    1115.3604   0.99169387 
   88700     266.6157   -778.24456    138806.73   -43422.443    3661.3247   -47083.767    1115.9558   0.99308237 
   88800    268.29915   -407.37646    138929.52   -43380.391    3684.4428   -47064.834    1117.2626   0.99220466 
   88900    268.22991   -387.61406    138921.96   -43426.789    3683.4919   -47110.281     1118.706   0.99225866 
   89000    268.14014   -489.63943     138833.4   -43384.977    3682.2591   -47067.236    1118.9988   0.99289161 
   89100    264.75059   -649.14535    138874.13   -43348.732    3635.7118   -46984.444    1120.7791    0.9926004 
   89200    265.69108    -268.6062    138677.53   -43399.118    3648.6272   -47047.745    1121.5395   0.99400758 
   89300    273.12529   -537.79083    138498.54   -43398.419    3750.7182   -47149.138    1122.0495   0.99529218 
   89400    269.62252   -519.35128    138932.52   -43308.086     3702.616   -47010.702    1125.2763   0.99218324 
   89500    273.85888   -497.26954    138877.48   -43419.663    3760.7922   -47180.455    1125.5706   0.99257646 
   89600    272.04587   -515.52853    138982.79   -43407.274    3735.8949   -47143.169    1127.5121   0.99182435 
   89700    268.85955   -567.65352    138881.44   -43354.351    3692.1384   -47046.489    1128.5594   0.99254814 
   89800    270.19864   -473.60206    138694.33   -43411.716    3710.5277   -47122.244    1129.8961    0.9938872 
   89900    268.16694   -353.08663    138812.91   -43374.335    3682.6272   -47056.962    1130.3108   0.99303815 
   90000      267.048   -531.43156    138895.99   -43396.712    3667.2612   -47063.973    1131.6585   0.99244417 
   90100    274.53835   -450.67198    138569.75   -43318.871    3770.1231   -47088.994    1131.8551   0.99478073 
   90200     267.3387   -261.99381    138732.88   -43429.102    3671.2533   -47100.356    1134.5507   0.99361097 
   90300    268.43994   -275.21732     138774.6   -43473.846    3686.3762   -47160.222    1136.5502   0.99331227 
   90400    274.17366   -437.71022    139095.69   -43372.193    3765.1149   -47137.308    1138.7582   0.99101932 
   90500    272.03202   -609.25234    139355.51   -43301.704    3735.7046   -47037.409    1141.6743   0.98917164 
   90600    271.49584   -343.72101    139283.78   -43342.856    3728.3416   -47071.198    1143.1126   0.98968102 
   90700    270.28855   -377.71123    139283.82   -43358.326    3711.7623   -47070.088    1145.1222   0.98968077 
   90800    270.79263   -622.76001    139204.65   -43295.478    3718.6847   -47014.163    1144.6175   0.99024362 
   90900     267.1059   -660.83647    139032.22   -43382.288    3668.0563   -47050.344    1145.0369   0.99147173 
   91000    270.49589   -367.16213     138897.1   -43354.689    3714.6097   -47069.299    1144.8243   0.99243628 
   91100    274.92503    -452.8076    139208.48   -43312.497    3775.4332    -47087.93    1146.7801   0.99021636 
   91200    269.54127     -667.108    139075.46    -43344.09    3701.5003    -47045.59    1147.7126   0.99116347 
   91300    265.36831   -647.93783    138980.42   -43372.761    3644.1947   -47016.956    1149.3847   0.99184131 
   91400    268.71539   -493.69984    139102.15   -43446.558    3690.1588   -47136.716     1150.598   0.99097333 
   91500    269.34264   -379.93118     138926.9   -43430.205    3698.7726   -47128.978    1151.5268   0.99222338 
   91600    268.38442   -483.23409    139028.88   -43424.912    3685.6138   -47110.526    1153.3771   0.99149557 
   91700    273.14281   -531.30669    139015.82   -43460.175    3750.9588   -47211.134    1154.5423   0.99158871 
   91800    269.36834   -491.91068    139107.27    -43537.87    3699.1254   -47236.996    1156.1021   0.99093685 
   91900    267.47728   -737.84316    139168.16   -43481.443    3673.1564   -47154.599     1157.687   0.99050327 
   92000    270.48973   -634.84233    138955.29   -43397.971    3714.5251   -47112.497    1157.0399   0.99202061 
   92100    273.81735   -447.59616    139007.77   -43363.967    3760.2219   -47124.189    1156.7019   0.99164615 
   92200    273.59519   -611.83266     138817.1       -43306    3757.1711   -47063.171    1157.4337   0.99300821 
   92300     275.6731   -716.76919     138761.2   -43327.127    3785.7061   -47112.833    1159.5568   0.99340823 
   92400    265.38995   -228.18894    138559.91   -43401.208    3644.4919     -47045.7    1159.3788   0.99485138 
   92500    268.50573   -510.28226    138945.01   -43327.514    3687.2797   -47014.794      1162.64   0.99209405 
   92600     272.0045   -293.26064    139021.59   -43333.785    3735.3268   -47069.112    1165.0923   0.99154755 
   92700    269.70653    -677.2048    139254.04   -43370.738    3703.7697   -47074.508    1167.2713    0.9898924 
   92800    273.24239   -349.77107    139344.57   -43344.708    3752.3262   -47097.035    1168.2663   0.98924926 
   92900    266.54081   -526.80817    139222.17   -43350.685    3660.2962   -47010.981    1169.4166   0.99011902 
   93000    272.02399   -528.64936    139322.81   -43265.796    3735.5945   -47001.391    1171.1525   0.98940377 
   93100    268.55472   -562.04547    139229.36   -43369.932    3687.9523   -47057.884    1170.8902   0.99006786 
   93200    270.96898   -457.32897    139261.02   -43299.436    3721.1064   -47020.542    1170.4203   0.98984278 
   93300    273.52099   -389.94896    139455.99    -43202.02    3756.1522   -46958.173      1172.16   0.98845889 
   93400    270.29293   -448.57369    139336.26   -43303.438    3711.8225   -47015.261    1172.3862    0.9893083 
   93500    270.62983   -658.00275     139354.9   -43342.329     3716.449   -47058.778    1174.2772   0.98917596 
   93600    268.51866   -613.40419    139090.02   -43363.511    3687.4572   -47050.968     1173.283   0.99105975 
   93700    266.08161   -434.23406     139267.5   -43352.506    3653.9902   -47006.496    1175.5577   0.98979677 
   93800    274.25651   -243.93027    139447.25   -43247.951    3766.2528   -47014.204    1177.8255   0.98852088 
   93900    274.12607   -418.27927    139516.16   -43349.537    3764.4615   -47113.998    1179.4276   0.98803264 
   94000    267.74492    -422.0856    139617.81   -43387.814    3676.8317   -47064.645    1180.7741   0.98731329 
   94100    266.98654   -803.43335    139276.09   -43447.128    3666.4171   -47113.546    1178.7043   0.98973568 
   94200    269.08969   -442.80015    139036.45   -43440.915    3695.2989   -47136.213    1180.2836   0.99144157 
   94300    268.40505   -418.79946    139193.29   -43350.219     3685.897   -47036.116    1182.7346   0.99032445 
   94400    271.96857   -497.53278    139106.86   -43340.463    3734.8333   -47075.296     1183.778   0.99093972 
   94500    269.64864   -349.20961    139228.03    -43385.44    3702.9747   -47088.415    1185.1884   0.99007732 
   94600    267.83562   -518.86761    139127.08   -43468.985    3678.0773   -47147.062    1185.7199   0.99079573 
   94700    271.81506   -427.65402    138869.97   -43437.804    3732.7253   -47170.529    1184.7761   0.99263012 
   94800    271.59403   -456.10618    139059.86   -43378.347    3729.6899   -47108.037    1188.5146   0.99127464 
   94900    269.25709   -398.64913    139102.36   -43328.347    3697.5978   -47025.945    1189.6851   0.99097177 
   95000     271.3642   -437.73561    139308.39   -43318.008    3726.5338   -47044.542    1192.2549   0.98950623 
   95100    269.78503    -442.5693    139380.56   -43323.336    3704.8477   -47028.183    1192.6855   0.98899385 
   95200    275.54537    -542.0255    139291.53   -43294.919    3783.9522   -47078.871    1193.6792   0.98962596 
   95300    270.18678   -361.47548    139258.01   -43333.721    3710.3648   -47044.086    1193.9241   0.98986416 
   95400    271.81057   -656.85151    138964.75   -43365.308    3732.6636   -47097.972    1193.8073   0.99195313 
   95500    271.93293    -403.0375    138885.45   -43316.534    3734.3439   -47050.878    1195.1341   0.99251951 
   95600    266.46249   -505.88704    139130.52   -43421.406    3659.2206   -47080.627    1198.4026   0.99077124 
   95700    272.11927   -425.01004    138862.11   -43412.784    3736.9029   -47149.687    1197.5986   0.99268632 
   95800    267.51407   -626.63467     138965.4   -43387.117    3673.6616   -47060.779    1199.7294   0.99194849 
   95900    267.38951   -604.54966    138909.63   -43410.447     3671.951   -47082.398     1200.502   0.99234671 
   96000    275.43808   -444.53433    138526.37   -43359.424    3782.4787   -47141.903     1198.848   0.99509227 
   96100    269.38169   -434.74147    138654.88   -43361.247    3699.3088   -47060.556     1200.186      0.99417 
   96200    272.00306   -358.02435    138883.75   -43334.796     3735.307   -47070.103    1203.1391   0.99253162 
   96300    272.80303   -478.90969    139186.73   -43330.589    3746.2926   -47076.881     1203.895   0.99037108 
   96400    268.09022   -524.50697    139331.61   -43397.387    3681.5736    -47078.96    1205.6566   0.98934129 
   96500    270.45225   -509.11711    139355.17   -43321.297    3714.0104   -47035.307    1207.5366   0.98917403 
   96600    275.31459   -555.09233    139100.45   -43314.975    3780.7829   -47095.758    1207.5401   0.99098542 
   96700    272.60861   -584.34745    139023.63   -43298.955    3743.6227   -47042.578     1208.337   0.99153301 
   96800    275.22113   -481.65229    139148.95   -43270.527    3779.4994   -47050.026     1210.973      0.99064 
   96900    269.78541   -541.96559    139621.61   -43281.574    3704.8529   -46986.427    1216.1459   0.98728637 
   97000    274.06338   -492.17538    139355.27   -43336.991    3763.6005   -47100.592    1215.7711   0.98917336 
   97100    275.14152   -420.67842    139359.59   -43330.033    3778.4062    -47108.44    1218.4856   0.98914269 
   97200    268.25358   -453.01567    139216.95   -43317.289    3683.8169   -47001.106    1219.9837   0.99015612 
   97300    269.49646   -500.54984    139238.92   -43340.989    3700.8849   -47041.874    1221.5995   0.98999989 
   97400    269.38069   -564.67621    139165.04   -43320.998    3699.2951   -47020.293    1223.5151   0.99052551 
   97500      272.922   -497.17219    139122.74   -43325.262    3747.9264   -47073.189    1223.3836   0.99082663 
   97600    267.97327   -269.43009    139368.08   -43321.076    3679.9675   -47001.043    1227.6019   0.98908244 
   97700    272.87621   -475.43592    139283.89    -43401.96    3747.2976   -47149.258    1228.1901   0.98968026 
   97800    269.83059   -377.27406    139407.17   -43397.077    3705.4734    -47102.55    1229.5187    0.9888051 
   97900    274.68005    -479.7835    139594.95    -43317.96     3772.069   -47090.029    1230.6979   0.98747495 
   98000    271.62407   -580.09102    139608.77    -43247.74    3730.1025   -46977.843    1231.5402   0.98737717 
   98100    272.46333    -598.2798    139478.94   -43307.379    3741.6277   -47049.007    1231.1938   0.98829624 
   98200    272.31161   -540.42884    139222.77   -43299.712    3739.5442   -47039.257    1230.1228   0.99011477 
   98300    269.93946   -488.26561     138987.6   -43239.624    3706.9685   -46946.592    1230.0363      0.99179 
   98400    273.24596   -394.48644       139136   -43208.497    3752.3753   -46960.873    1231.8758   0.99073222 
   98500    272.31508   -600.97737    139041.45   -43274.117    3739.5919   -47013.709    1232.4326   0.99140592 
   98600    264.29498   -484.05439    138962.79   -43261.592    3629.4551   -46891.048    1232.0153   0.99196712 
   98700    267.18391   -234.22868    139062.19   -43339.692    3669.1276    -47008.82    1234.1894   0.99125809 
   98800    271.95542   -704.84685    138941.86    -43329.64    3734.6527   -47064.293    1235.3698   0.99211654 
   98900    269.91079   -570.13334    138994.74    -43315.42    3706.5748   -47021.995    1237.7952   0.99173912 
   99000    273.02297    -499.8989    139140.16   -43234.951     3749.313   -46984.264    1239.8109   0.99070261 
   99100    270.15308   -513.07458    138757.84   -43341.818    3709.9021    -47051.72    1238.5545   0.99343224 
   99200    270.71768   -476.81655    138784.63   -43287.751    3717.6554   -47005.407    1241.2531   0.99324051 
   99300    275.92382   -546.73542    138681.06   -43313.532    3789.1492   -47102.681    1241.2335   0.99398227 
   99400    276.51977   -327.54353    138708.92   -43251.709    3797.3331   -47049.042    1243.3773   0.99378267 
   99500    274.93553   -493.66399    138903.12   -43287.322    3775.5774   -47062.899    1246.8307   0.99239327 
   99600    274.48235    -362.8207    138665.21   -43362.429     3769.354   -47131.783     1246.981   0.99409593 
   99700    276.25513    -329.5681    139026.09   -43321.491     3793.699    -47115.19     1251.195   0.99151543 
   99800    269.47614   -534.64685    139007.05   -43369.634    3700.6059    -47070.24    1250.6561   0.99165129 
   99900    274.43174   -772.97025    138941.61   -43364.155     3768.659   -47132.814      1252.04   0.99211829 
  100000    266.41864   -569.86708    139104.46   -43341.239    3658.6185   -46999.858    1255.1848   0.99095686 
  100100    275.60272   -476.85027    139007.43   -43337.864    3784.7397   -47122.604    1255.9707   0.99164855 
  100200     270.2775   -518.79701    139223.97   -43302.297    3711.6106   -47013.908    1259.0189   0.99010623 
  100300    265.10779   -529.33768    138889.86   -43296.718    3640.6171   -46937.335    1258.3026   0.99248801 
  100400    268.42141   -418.98398    139203.18   -43314.873    3686.1217   -47000.995    1262.1792   0.99025406 
  100500    273.60634   -690.96985    138779.16   -43311.833    3757.3242   -47069.157    1261.0765   0.99327965 
  100600    271.07742   -315.39505    138809.21   -43375.336    3722.5956   -47097.931    1262.9853   0.99306461 
  100686    269.91559   -215.63627    139232.95   -43298.978    3706.6407   -47005.619    1266.8984   0.99004231 
Loop time of 182.046 on 6 procs for 100000 steps with 4608 atoms

Performance: 237.303 ns/day, 0.101 hours/ns, 549.313 timesteps/s
99.3% CPU use with 6 MPI tasks x no OpenMP threads

MPI task timing breakdown:
Section |  min time  |  avg time  |  max time  |%varavg| %total
---------------------------------------------------------------
Pair    | 160.03     | 162.04     | 163.76     |  11.5 | 89.01
Neigh   | 7.4216     | 7.554      | 7.6945     |   3.6 |  4.15
Comm    | 7.739      | 9.6765     | 11.752     |  48.7 |  5.32
Output  | 0.17281    | 0.17351    | 0.17681    |   0.4 |  0.10
Modify  | 1.8658     | 1.9588     | 2.0363     |   3.6 |  1.08
Other   |            | 0.6412     |            |       |  0.35

Nlocal:        768.000 ave         778 max         758 min
Histogram: 1 0 1 0 1 0 1 1 0 1
Nghost:        1670.67 ave        1690 max        1648 min
Histogram: 1 0 0 0 3 0 0 0 1 1
Neighs:        0.00000 ave           0 max           0 min
Histogram: 6 0 0 0 0 0 0 0 0 0
FullNghs:      25528.3 ave       26029 max       24994 min
Histogram: 1 1 0 0 1 0 0 2 0 1

Total # of neighbors = 153170
Ave neighs/atom = 33.240017
Neighbor list builds = 7020
Dangerous builds = 0

undump              1
unfix               2
unfix               3
unfix               4


################################################
#######         Run Simulation         #########
################################################

reset_timestep      0
log                 log.run_${NAME}
log                 log.run_liq_271K_-500atm_mW
