
# Import phase coexistance setup
#
read_data           data.coexist_${TEMP}K_${PRES}atm_mW
read_data           data.coexist_271K_${PRES}atm_mW
read_data           data.coexist_271K_-500atm_mW
Reading data file ...
  orthogonal box = (0.35766794 -0.33372546 -0.33372546) to (104.22076 50.563054 50.563054)
  3 by 1 by 2 MPI processor grid
  reading atoms ...
  8515 atoms
  reading velocities ...
  8515 velocities
  read_data CPU = 0.026 seconds

# Define potential
#
pair_style 	    sw
pair_coeff	    * * /data/emrosky-sim/Freezing_Simulations/Melting/mW_fancy/mW.sw mW
Reading sw potential file /data/emrosky-sim/Freezing_Simulations/Melting/mW_fancy/mW.sw with DATE: 2019-02-27

# Reset velocity/set timestep
#
velocity	    all create ${TEMP} 120598 rot yes dist gaussian
velocity	    all create 271 120598 rot yes dist gaussian
timestep	    10.0

# Define output
#
compute	            1 all msd
compute             2 all orientorder/atom nnn NULL degrees 2 4 12
thermo              1000
thermo_style        custom step temp press vol etotal ke pe c_1[4]

# Neighbor lists
#
neigh_modify        delay 0 every 1 check yes

# Set fixes
#
fix                 1 all momentum 10 linear 1 1 1 rescale
fix                 2 all nph iso ${PRES} ${PRES} ${PCOUPL}
fix                 2 all nph iso -500 ${PRES} ${PCOUPL}
fix                 2 all nph iso -500 -500 ${PCOUPL}
fix                 2 all nph iso -500 -500 10000.0
fix                 3 all temp/csvr ${TEMP} ${TEMP} ${TCOUPL} 837492
fix                 3 all temp/csvr 271 ${TEMP} ${TCOUPL} 837492
fix                 3 all temp/csvr 271 271 ${TCOUPL} 837492
fix                 3 all temp/csvr 271 271 5000.0 837492

# Run very short equilibration
#
dump		    1 all atom 50 eq.${NAME}.dump
dump		    1 all atom 50 eq.melt_271K_-500atm_mW.dump
run	            500
Neighbor list info ...
  update every 1 steps, delay 0 steps, check yes
  max neighbors/atom: 2000, page size: 100000
  master list distance cutoff = 6.3065
  ghost atom cutoff = 6.3065
  binsize = 3.15325, bins = 33 17 17
  2 neighbor lists, perpetual/occasional/extra = 1 1 0
  (1) pair sw, perpetual
      attributes: full, newton on
      pair build: full/bin/atomonly
      stencil: full/bin/3d
      bin: standard
  (2) compute orientorder/atom, occasional, copy from (1)
      attributes: full, newton on
      pair build: copy
      stencil: none
      bin: none
Per MPI rank memory allocation (min/avg/max) = 4.597 | 4.600 | 4.605 Mbytes
Step Temp Press Volume TotEng KinEng PotEng c_1[4] 
       0          271   -570.49449    269055.49   -80013.075    6877.6051    -86890.68            0 
     500    314.65639   -416.23951    261948.65   -81729.337    7985.5439   -89714.881    16.288529 
Loop time of 1.70118 on 6 procs for 500 steps with 8515 atoms

Performance: 253.942 ns/day, 0.095 hours/ns, 293.914 timesteps/s
99.7% CPU use with 6 MPI tasks x no OpenMP threads

MPI task timing breakdown:
Section |  min time  |  avg time  |  max time  |%varavg| %total
---------------------------------------------------------------
Pair    | 0.96263    | 1.2008     | 1.4733     |  18.6 | 70.59
Neigh   | 0.1583     | 0.15972    | 0.16201    |   0.3 |  9.39
Comm    | 0.031656   | 0.3036     | 0.54298    |  37.1 | 17.85
Output  | 0.0078215  | 0.0083737  | 0.0088974  |   0.4 |  0.49
Modify  | 0.023063   | 0.023695   | 0.024399   |   0.3 |  1.39
Other   |            | 0.004952   |            |       |  0.29

Nlocal:        1419.17 ave        1449 max        1400 min
Histogram: 1 0 1 2 1 0 0 0 0 1
Nghost:        2231.17 ave        2254 max        2216 min
Histogram: 2 0 0 2 0 0 1 0 0 1
Neighs:        0.00000 ave           0 max           0 min
Histogram: 6 0 0 0 0 0 0 0 0 0
FullNghs:      45713.3 ave       46673 max       44847 min
Histogram: 1 1 0 0 1 1 1 0 0 1

Total # of neighbors = 274280
Ave neighs/atom = 32.211392
Neighbor list builds = 81
Dangerous builds = 0

reset_timestep      0
undump              1
unfix               2
unfix               3


################################################
#######         Run Simulation         #########
################################################

log                 log.run_${NAME}
log                 log.run_melt_271K_-500atm_mW
