LAMMPS data file via write_data, version 29 Oct 2020, timestep = 200000

4608 atoms
1 atom types

-0.02308135962915614 53.42308135962968 xlo xhi
-0.12220641484377737 51.02932641483773 ylo yhi
-0.12220641484377737 51.02932641483773 zlo zhi

Masses

1 18.015

Atoms # atomic

3379 1 0.3354814902565104 22.672758618170896 8.895025215509945 0 1 0
3916 1 0.35493769504267925 3.7683845723544227 1.8784896438321086 0 1 1
1046 1 1.3482785432947502 14.667998540329089 13.414332371401082 0 1 0
4091 1 0.13820673869002037 18.364669554331016 23.70933618510058 1 -2 0
3874 1 8.94000139658176 22.46935833641059 23.534437298584454 0 -1 1
643 1 1.155635118793656 18.120407099816532 10.887117087469353 0 0 0
4257 1 0.776504181367908 49.05051338609914 6.911010138356325 1 0 1
965 1 7.070999305764082 2.7948338630269167 0.44362050133587005 0 1 1
2281 1 12.203012188974899 3.3299228324746886 3.361294394058946 0 0 1
1540 1 0.3144356443320813 39.556475107450794 13.382754349094101 1 -1 1
1664 1 0.8023144859752027 45.1411235242939 23.39676456203435 0 -1 1
4196 1 2.509919974270748 8.690349730106517 2.4832629532296493 1 0 1
2064 1 2.7614446164574464 8.447697823546303 18.326571009199107 0 2 -2
3279 1 8.956897417252623 9.405792225850828 2.8206098254587 0 1 0
1000 1 13.872191779261229 5.260521605536271 2.189280890507023 0 1 0
2906 1 1.543894443511895 9.989575221385918 4.797770587867267 0 0 0
3105 1 3.6081652576827503 1.5504323439981906 23.91970585313482 2 1 0
2824 1 5.66148299370036 10.153554897093445 2.9283877963072324 2 0 1
3090 1 7.896634120068161 12.106353270697003 3.2485197265919696 1 0 -1
3678 1 1.2641202775987748 33.19862353369325 23.77239429520947 1 0 -1
734 1 10.878779385933239 29.515304526603938 0.28072909422712644 1 0 0
3941 1 4.461838320390725 13.202357042011307 2.5686536743440653 1 1 2
997 1 4.371740386623882 11.01514440531622 0.13242527113482228 0 0 0
3033 1 6.845080777357554 14.313243915970933 0.7324455965939739 1 1 1
1288 1 9.600891259184104 47.693489569156995 0.31094185904878385 0 -1 0
373 1 16.120545778194185 11.837339499202645 21.97971525997056 0 0 1
2881 1 3.411653651268186 18.15206354213987 2.668952426936268 0 0 0
281 1 4.960440912885849 19.66191856571079 0.6116662537631021 -1 0 0
1195 1 0.03954144239133786 3.305574953109595 11.962898330739032 1 1 1
2033 1 1.2226354619912774 14.927086104643116 4.397141689673917 0 0 0
4468 1 6.4960228882242 16.466415382002893 2.4800341705631843 2 0 1
3539 1 4.1001631742631535 15.790214084561555 4.039352681825367 1 -1 0
3862 1 14.478320641492763 18.314130569918134 2.8422776144324646 1 0 1
3397 1 14.02864494242615 15.974024334990975 4.436894969403057 1 0 0
4022 1 4.279153495002418 22.280368932645413 1.3531102692791515 1 0 1
841 1 15.12253578902178 43.675732559782034 0.47540536976060577 0 -1 2
601 1 11.276302589926578 19.32604863386618 4.505626487105107 -1 -1 0
1996 1 11.488874464602212 17.084300358369337 3.2337106648662592 1 -1 -1
4124 1 15.642056891635827 22.070655380138405 4.234204647709714 0 -1 0
4347 1 6.930602640445786 22.612062149701917 2.64623069886219 1 0 0
1693 1 9.747722284458723 25.0533419189458 2.561830288968702 0 0 0
4204 1 13.368057477785074 23.54833529792203 3.3490318128216607 0 0 1
2539 1 0.7870579428928219 47.80993721001052 12.034561378466153 0 1 1
2417 1 0.6710713136010957 27.87101274720128 22.254835895380644 0 0 1
3832 1 2.161616468366684 26.408250041100548 4.622762884520461 1 0 1
3884 1 3.1504322041028234 22.266601060823096 4.943629041185307 0 0 1
823 1 6.35796537455444 26.067046520417662 5.496318172106364 0 0 1
2658 1 14.190100171255196 25.984912617947973 2.5895651048035524 1 0 1
2433 1 12.329365095924196 44.43590892132967 1.9506745621023578 1 -1 1
3418 1 7.366492588562932 9.875254516610841 0.23650597603262907 1 1 0
2114 1 0.8649008739519806 29.557556043752864 3.8594864892664704 1 0 0
645 1 7.533598959313893 26.39720940162628 1.9132593840288639 0 0 1
2032 1 12.863882142532933 28.735047564286614 2.3484326920435996 0 -1 1
301 1 11.573129600828706 26.289623980360837 0.8898328854883206 1 1 1
2715 1 0.8272881117320396 30.01461307633652 20.735255737988105 1 -1 1
4166 1 17.0092295317589 8.362898168184211 9.672090135081115 0 0 0
3194 1 1.3014607635643967 25.218093572923078 2.1868711096512428 1 -1 0
2198 1 4.974545668938241 30.78720831329586 1.1687664582861086 1 -1 1
3927 1 9.970961297559178 4.05828734721952 0.277240268513462 1 1 1
802 1 7.180351931492811 31.79898949307913 1.868426591170701 0 -1 2
3010 1 15.378030854546989 6.508265125571851 8.237209037246085 0 0 0
3550 1 11.435932684418498 35.76453336427521 24.04781214118094 1 0 -1
235 1 3.3353819078700098 35.628862183878255 5.421469946197019 0 1 0
2803 1 0.9992938062879193 12.411954038575246 5.882763714814098 0 0 1
1561 1 6.774955271549798 37.66159925902849 1.2784735982804407 1 -1 0
3981 1 6.193995221328607 35.90096679429746 3.6220381527083574 1 1 0
992 1 3.822410050815215 37.87918852010121 1.9151796834744665 0 -1 0
4096 1 1.5689864152367212 43.552936353357524 3.9178095463212657 1 1 0
557 1 3.1555522490516736 35.088419144201126 2.72549221371182 0 0 1
4026 1 4.503075446255333 15.04541772014753 23.483858172560613 1 0 0
4141 1 14.792242070854115 32.41402098058147 0.5529031249390141 2 1 1
3313 1 12.821131998336275 37.27057391640341 2.449818393948327 1 0 0
3998 1 16.29018992517347 48.04308387226493 7.557742718689942 0 0 0
4481 1 14.07500803207028 43.13282228211068 20.633032087221213 0 0 -1
1971 1 0.13436920090018417 49.93209548365189 18.892292847006534 1 -2 0
1754 1 10.721588702330713 17.24696266008712 0.5645409385945975 1 0 1
143 1 9.882318256706165 43.467662532850454 3.268813046782722 0 -1 0
3301 1 4.166411625737317 41.97902651809876 2.260079896399738 2 -1 0
3564 1 15.331291128963768 50.481750464305094 23.76147604799629 0 -1 0
961 1 10.264758598446969 9.494963705095842 24.933755268757142 0 0 0
2262 1 4.763600605432299 24.504031376256837 4.075860075527995 0 0 1
2215 1 1.4160405074675213 44.32690886524556 1.2308711679310373 0 0 1
4318 1 6.97732226525945 42.324872254091986 3.2103061049904635 0 -1 1
3452 1 4.919991300471522 4.2413510224837 24.80794232638829 2 1 0
2101 1 16.87112768316967 19.00773328899012 3.9567476711448766 0 0 0
2200 1 8.199246627395466 35.0483583578126 24.17110227760718 1 -1 1
1477 1 13.938165181939869 45.80235233550597 3.608854157292288 0 0 1
3623 1 0.762445417740943 19.23850912194985 13.804464681617143 1 0 0
1584 1 2.386182598738536 46.47628987423913 4.048940231003341 1 -1 1
3347 1 12.227477397013836 14.31049317680262 0.9700237301279833 1 0 -1
4301 1 6.110383687852082 48.812984254625746 2.013707780578079 0 1 1
2550 1 3.0022959683760146 26.40314115950723 0.07572379659757306 1 0 1
1468 1 13.633169177478804 40.31628571034527 24.54528538809321 0 1 0
3574 1 0.19473724664046335 31.50715769736487 1.7334967661757905 1 0 -1
1931 1 1.8654735429533975 48.97826617602726 0.3247706487398633 0 0 0
2287 1 0.8694715031118374 50.38064188362358 10.584187840161613 0 0 1
941 1 9.418936282780873 3.383400492011972 3.0277683418310715 0 1 1
238 1 14.326107377678394 48.54235340842668 2.034309435168214 0 1 0
973 1 0.5735274127142113 3.7941358570370873 9.26862651145259 -1 0 0
3877 1 4.542178387474538 1.9778458499817484 2.8947255292648726 0 0 1
2507 1 9.012289314582386 0.6229296194066902 3.9541057348632247 0 0 1
280 1 8.289091342447175 1.6535156079389388 6.529506194493243 1 1 1
946 1 9.150181730768818 0.746668120607585 0.6749095550986108 1 0 1
1740 1 9.533525144223796 36.62241521435655 2.0507008853012136 1 0 0
3147 1 14.198686999987153 1.0548040880353429 2.296221001434866 1 0 1
4170 1 2.01577456458415 4.570651977201217 5.5751514657158605 0 1 1
764 1 3.943901077910201 4.316085231900364 1.4615798038596075 0 1 1
4418 1 8.101666933587452 5.307631722299534 4.428206387430728 1 1 1
2409 1 12.073806361750316 6.308861874461209 5.340665176262299 0 1 0
3060 1 12.813283577309006 3.5244764314269394 6.0524414850281625 0 1 0
3078 1 7.298812753792383 7.187495404883448 2.8243219948272253 1 0 0
648 1 11.455477742280014 7.819561730196048 2.9977721545637874 0 0 1
3682 1 14.388389766754242 7.660563230541891 5.986874271277939 1 1 0
247 1 16.94796019539505 6.603432410866597 5.295963038654655 -1 -1 0
3096 1 3.1035750444028976 8.86853833354233 6.617158611296606 0 0 0
2586 1 13.715968806422474 22.250117992420037 0.6666371764838295 1 0 1
2171 1 3.3922814023874945 12.968515320540673 7.5260995430844435 1 1 -1
1915 1 6.442046554211113 9.41357256434452 6.326370899020965 0 1 -1
1319 1 8.083175361151195 12.38053440622801 6.2942405159344 0 1 0
4230 1 9.216509733646241 9.457416155701274 5.832983529970217 1 0 0
4272 1 12.015904965705145 10.447380680155542 4.260814599733998 2 1 1
2512 1 14.729580277703949 10.067327465511605 3.90702929822454 0 -1 1
3552 1 1.1652198789023342 16.107893022411854 6.819030750405557 1 0 1
2882 1 5.2346320533312705 12.03675070959011 5.3346789899293805 -1 2 1
3267 1 10.421783599716766 15.59842415409155 9.817552555787682 1 2 0
1839 1 10.874212691464935 11.740358604529293 2.034480670681895 -1 1 0
3023 1 2.2933610203179153 18.600032787151264 8.198229124334619 0 0 0
3490 1 1.8240824763516528 22.74169572441874 2.68647021335487 1 0 -1
692 1 4.175455755987702 15.906531033135238 6.635746822327636 0 1 0
2284 1 8.940465320741447 16.263482046745924 4.2148175225441875 0 1 1
3205 1 14.707822294683016 17.30079991872624 6.622585231786957 1 1 1
4158 1 17.561950037821365 19.143822152145894 6.958911964452454 1 -1 1
1502 1 4.90115197050029 18.350229398995147 7.413866138224903 -1 1 1
2509 1 7.429557797369962 19.12821751116362 1.8491566583630819 1 0 1
2205 1 6.8643955518322 20.289552637262133 4.5503726793096035 0 0 -1
794 1 8.902250239309632 18.859272854789218 5.879229633584043 0 0 1
998 1 12.03965184282309 19.94307035824273 -0.0952368215893051 1 0 1
1223 1 2.634133743690204 23.86777802241126 7.43676601834825 0 0 1
2628 1 4.219842927545241 19.632344407932216 5.154204012104478 0 0 1
3136 1 10.523820844505687 23.419336986584046 4.517324775997348 0 1 -1
115 1 15.013269451802126 24.191157994527593 7.934441754928086 -1 0 0
2400 1 0.8917238363967291 20.70178777192307 1.2952424587637719 0 -1 0
1640 1 1.5921353440504873 13.652168006004757 17.467443899683264 0 1 0
3375 1 8.952505670411202 26.690339300887747 7.053075539221352 0 0 1
1405 1 9.041465555415932 29.10550266467415 8.317918154002939 0 0 0
4045 1 14.429937450540368 26.119628561273952 5.544602695868045 0 0 0
1043 1 16.78352781795419 42.72761177334593 25.37546348497654 0 0 0
3179 1 15.460268440404977 28.64323047703103 6.1204975039502605 1 0 0
4083 1 2.443092238425751 31.867923686245934 5.046082330682343 0 1 2
4472 1 4.411788656909946 28.619061618808725 4.810311871753329 0 0 2
3866 1 7.198401668676125 28.88281660774723 3.0817817380474173 1 0 0
1252 1 9.429963776421477 27.31923172098083 4.4260351503353625 -1 0 1
2996 1 11.294939999800068 29.49549549344894 4.365158285137578 0 -1 0
1654 1 13.157065890791808 30.095162810592868 6.645612588245071 1 -1 0
658 1 0.9644647330574591 45.52568925910383 15.09288531252641 0 0 0
3019 1 3.0138403652830075 32.38388064655028 2.292170352929528 0 -1 0
3507 1 4.277279877358344 34.071732308935424 7.452378511487135 0 0 -1
1988 1 4.644569906958193 30.977272959934826 6.366208033877525 0 -1 -1
3462 1 4.242792503295136 32.57125710075259 24.247120801953702 0 -1 0
560 1 10.304930062741049 33.14154002054802 4.286349093516674 1 1 0
1490 1 13.147377890992876 32.72353499619041 4.993072369784756 1 0 1
3554 1 3.8559237454500854 44.98587729025864 -0.04237421467784236 1 -1 1
3103 1 14.30283700558576 30.90880203454381 2.9575808718489958 1 -1 0
1746 1 5.637645233524447 37.11690545387363 8.166731040582876 0 -1 0
335 1 5.030653474127183 37.65800446233496 5.507230553750629 0 0 0
2893 1 9.455464313832612 37.790353323809 5.3291429725254575 -1 -1 1
37 1 12.817887465284702 17.55372550445471 24.788600913864006 0 0 0
4016 1 2.891936694637223 16.94191803311759 0.0863131487022516 1 -1 1
1141 1 2.8789476269277103 28.39035316321396 1.9605524016216131 0 -1 0
3253 1 8.072874253019322 43.108500223915755 5.877679629374308 1 -2 0
1350 1 8.61431453422122 35.181249044310434 4.631577377868331 0 1 1
1517 1 11.961021561536363 38.342585094948205 5.159324180740711 0 -2 1
3906 1 15.173559166214773 37.74311162346541 4.238709125893346 1 0 -1
3644 1 0.08556653518399575 42.408908174368264 14.635473492194658 1 -1 1
2127 1 16.45780178028043 40.054194758231134 3.5508000941955324 0 0 0
1857 1 5.160766579534978 40.725259722155286 5.33766707897724 1 -1 -1
397 1 2.888198510568419 40.26871034030664 3.9778400514798147 -1 0 0
2874 1 7.063607083736195 40.98439626194789 7.867905248886919 0 0 1
1072 1 11.659098144974086 41.766563281788535 4.780495059928701 0 -1 0
3401 1 11.909464253731686 43.40941530388733 7.2506218854167885 0 -1 1
2496 1 10.514066893421901 46.13836835760169 3.94339022454459 1 -2 0
2531 1 6.827680181311345 45.53285319194484 4.712957165573842 0 -1 0
4473 1 9.905687046379143 44.94081695825987 6.579469720918578 1 0 0
2180 1 16.150372320149188 43.448686335880794 4.5481211579931955 1 -2 -1
4043 1 0.2818114354487875 46.75729169342492 18.066025683754603 1 -1 1
3551 1 1.155378452604708 45.335506774266165 6.645973853991 1 0 0
1803 1 4.61508578502014 44.823813476727764 3.191280051255128 0 1 1
782 1 8.066333956137937 46.86838488460228 2.648254543278096 1 0 0
4006 1 10.803651029973818 49.5615172488354 4.548076333339947 1 0 0
1081 1 15.697236180868794 49.609533656466795 4.421335301575093 -1 -2 1
3650 1 2.346205253908269 0.3381517103067026 2.379162231671474 1 1 0
3152 1 6.7132097831421245 0.19276566006165297 2.5087191472808787 1 1 1
2384 1 5.584367732632987 46.88855715887644 6.767376172122258 0 -1 2
2367 1 4.169079192844269 48.318016370852675 4.3712441587617645 1 0 1
820 1 11.473221797217361 48.571414228297954 1.9316096402771659 0 0 2
938 1 12.237189834034004 47.38072061485883 6.47461541773705 0 0 0
2892 1 14.008059038192705 49.46347818213826 6.656374091113062 0 -1 1
586 1 16.629599076397792 22.576457579460484 1.5008471604794449 0 0 0
4064 1 1.5884143797189139 27.444185926840806 24.907221907422397 0 -1 0
503 1 4.341934900279273 2.5962828429903273 5.470601102299959 0 0 1
3318 1 7.108164804866315 4.8098829152388145 8.899929716328923 0 0 1
3996 1 10.827746002473264 2.6160576335125905 7.60243557779731 1 1 0
1611 1 9.933677528832522 5.208735251298533 9.089342344980784 0 0 0
4038 1 2.941379792185712 5.259429438519252 8.653317367823366 0 0 1
774 1 6.746873755892139 3.7167570913761403 6.374829890764593 0 -1 0
3210 1 6.391243094416874 3.605240473500916 11.19098500640547 1 0 0
371 1 9.501948586412217 6.93257946773235 6.589434766095371 0 1 0
1791 1 12.184054982781417 7.329957703573009 9.191150114609668 0 1 0
3041 1 2.92758680753844 7.614748735677319 10.25972578294237 1 2 0
3520 1 4.805214764478574 5.833965827461244 6.338335922089393 1 0 0
130 1 8.458163857291074 8.41797435468802 9.03546158953795 0 1 -1
2993 1 6.103843893431707 7.354522468898517 8.803885523366588 0 1 1
4401 1 11.35752059300534 10.953760096593445 11.12536865870859 1 1 0
974 1 11.357173464892472 9.852632441177407 8.15685285583601 0 0 1
3316 1 16.891928301753605 17.502827041231985 24.489252016278098 0 -1 -1
2860 1 2.1280263015173193 10.606191912768796 11.236561834238591 1 1 1
1827 1 4.988206482162794 7.856881299280081 4.473725691650498 1 1 1
2764 1 2.162629040338934 13.487723143942809 9.97897908442534 1 0 2
3327 1 11.71451810776711 13.269952168883401 9.338786243716557 1 0 0
2326 1 14.314291735602048 10.263797194846434 7.206518789193413 1 -1 1
303 1 1.1478841962884305 3.2524643077302158 15.051727380461754 0 1 -1
2229 1 8.58849111422084 16.485087580717643 7.727530448261266 1 1 -1
3863 1 5.805192116455178 15.753960883249997 10.82231935035969 2 0 1
467 1 10.333953062456994 13.538266418895633 4.550861187964261 -1 0 0
1396 1 12.231488728491088 12.420697388567183 6.716541803999516 0 1 1
149 1 15.516553873945082 20.356998006579463 25.207889331113677 -1 0 0
2239 1 1.3305651698830794 21.100262184205643 11.026563153035221 1 0 0
152 1 7.119112715654084 18.66783590240187 9.076053276229592 -1 0 -1
2542 1 13.157711606158871 16.44312663374819 8.658294252070009 1 1 1
3882 1 16.408965120687363 37.578096101232205 13.902131426235714 0 -1 0
3772 1 9.773119450295638 20.443717448165764 8.136219112696034 0 1 0
305 1 11.847127666993988 18.69090297695601 9.313856121883118 0 1 1
1840 1 16.601149776067288 18.01940094489328 10.246681940265587 0 0 0
2951 1 13.711038533008075 19.849394560605116 5.558076505047958 0 1 1
3950 1 2.3688043946529156 50.23279089694938 4.969752592599762 1 -1 1
766 1 8.61854983086308 22.401429881354492 6.455964787192754 0 1 0
3063 1 1.0754554366820857 20.91431470651445 6.841579432275401 1 1 -1
4314 1 12.577638298710651 21.586882173232823 7.921456807443752 0 0 1
2958 1 15.543134699266608 23.140029463461225 11.873040354251604 1 -1 0
3045 1 15.013615738175597 22.011124182289397 9.475104748272265 0 1 -1
2806 1 10.83996548878362 34.42374424449585 0.5961199405183906 0 -1 0
2741 1 1.5221257439271982 27.910693889125533 12.216380314564166 1 -1 1
275 1 4.098491205823828 24.489719350858664 9.802476027349641 0 0 0
4348 1 6.438643424450402 25.95259533086841 8.740703730352276 1 1 0
4214 1 11.790373570004276 25.56414305695343 6.191794578035113 0 0 0
2491 1 16.540173522092683 26.49656449428088 8.350748650747095 1 0 1
4189 1 0.09274362195913168 1.5042301543040595 2.9674762449071963 1 -1 0
3293 1 1.476006965812671 28.03301594509068 9.298839757914665 -1 -1 1
464 1 4.331544163965919 27.66990803576827 7.6188112982982545 0 0 -2
3762 1 11.738220927549818 29.793789622709696 8.903157154368827 0 -1 -1
2401 1 16.181532744743908 30.280834354552244 8.594910878489813 0 -1 0
2279 1 17.517358137499762 7.504442343937147 1.925302513836654 0 1 0
2523 1 5.970160227417776 32.86005536292039 10.732464178189074 1 1 1
3829 1 6.901035337905434 31.77751587950575 4.59585227444823 1 0 0
3025 1 9.267924743213243 30.848864033920083 5.953738916296836 1 1 0
4265 1 1.6819534541565406 13.404518047355209 1.127463838256354 0 0 2
913 1 17.33676537949243 28.189137232791992 23.82957432262288 0 0 1
1552 1 15.85725791709021 33.7780913067586 4.4975768530027 1 -1 -1
3260 1 1.994833644697886 33.074563974603365 8.608151014367623 1 -1 -1
2536 1 4.4132874452184 35.544772218381326 10.20058652224128 0 -1 1
82 1 11.844025956611286 38.17510992855483 8.315634248444566 0 1 0
3220 1 13.508177942667215 34.788445747180745 6.93336599246287 1 -1 -1
533 1 1.629503099582492 39.39111913392989 8.593147779191307 0 -1 -1
3373 1 1.3309267342311135 35.538429771422855 10.448414612220798 1 0 1
2601 1 7.906485868511806 38.338252127065715 8.008553848148056 0 0 0
4254 1 12.435551234943137 34.47405649605423 11.42980559563671 0 -1 1
1240 1 15.868516572377596 36.264001489354655 6.39957062336372 0 0 0
621 1 14.388843741737638 37.981076641970034 10.546789358603451 0 1 -1
647 1 4.250904103508418 39.157251508522975 9.444437414336281 -1 0 1
4224 1 8.602975503077834 38.60432358959716 10.716734217989064 0 -1 1
4456 1 14.434670376532566 38.73928109162435 7.290363277946471 1 0 2
2612 1 10.06762083901686 40.70202231549821 7.266383136142767 0 0 0
95 1 10.968959192693184 42.258499420154564 9.718176915696048 0 0 0
375 1 0.22347644590120483 38.23284556929822 10.450910209057183 -1 0 1
3828 1 10.931129529699316 39.693696282621005 10.484862649226844 0 0 1
3629 1 0.8334426306977127 25.99785037444845 7.37684339431413 0 0 1
3822 1 1.4662915450766274 41.91194196495772 7.973253967710715 1 -1 0
542 1 6.41255890229427 44.495546092515795 8.124318027250238 0 -1 0
3567 1 14.619781859786332 43.38797404807383 7.915228117570992 0 -1 -1
723 1 16.37461974121759 41.0052688864032 8.665726624913324 0 -1 0
1760 1 3.270582375349964 45.51076290114645 8.282330796816316 1 0 0
2020 1 4.053288089379226 42.57645988148565 7.7598828729032725 1 -1 0
1904 1 5.472816479641665 49.87734482156597 8.345354979641254 1 -1 0
3820 1 9.515293200444281 48.370966482927855 6.885406385031293 1 0 0
1215 1 7.321047673954215 48.25174322787399 10.317000729258845 1 -1 1
1719 1 8.902312310533596 45.884449396450336 9.230038685604036 0 0 -1
1912 1 15.257221063401598 45.71535049742883 6.005733492498217 0 0 0
71 1 12.424844015293301 12.994839420745606 25.353222106240107 0 1 0
2148 1 3.6238777374980917 0.5958601288946226 6.997210613655069 1 1 -1
2493 1 3.892316262382143 2.6740077901691457 10.170148138418185 1 1 1
2165 1 4.002991576221072 50.87031592431679 10.44262075803048 1 -1 0
2040 1 8.145656958272939 50.73598674154279 8.348513083233348 0 0 0
2663 1 12.912713801419057 0.675308606843873 5.0303269176746985 0 1 1
607 1 4.336157075948262 40.29837653140025 22.391332595760613 0 0 -1
4005 1 11.98739275203639 47.385886772307416 23.54373424556383 2 -1 0
966 1 3.639990397379107 3.826602314649751 12.935346060226578 1 0 2
3458 1 7.922313273453642 2.6081565423904935 13.518522624066621 0 1 -1
2362 1 11.346695866496065 0.4399393036744855 9.286498721700148 0 1 1
1217 1 13.995968348543128 2.8589626190306827 9.773395674094216 0 1 1
48 1 15.370704185443884 3.856865993334264 7.215741908818076 0 0 1
409 1 1.439909491493661 6.100857032218 11.924888252857981 0 1 0
4089 1 5.267454275509036 6.731442918542857 11.716631751261355 1 0 0
674 1 7.385355655479492 0.6195541566557888 11.077753730933456 0 0 1
1949 1 10.589149041358265 0.9788082898965069 11.917984704921917 0 1 0
4150 1 15.255092769637772 5.235270231244026 10.848026395814038 -1 1 0
3188 1 16.835374668740958 23.81573984787025 5.988642377882357 1 0 1
877 1 5.4631040134996445 43.58690702054865 23.826385299005903 0 0 -1
353 1 10.506766135982502 8.356361193178882 11.255488400876027 -1 0 1
1713 1 12.805046051521934 6.00362887896516 11.845254545011958 0 0 1
3767 1 3.0659782380460885 10.554362310679036 14.148824029534238 1 2 -1
597 1 1.500365152652872 8.067110893253343 14.253730015208722 0 1 0
1069 1 4.2519786379510265 10.49629902370515 8.715027259990615 0 0 0
3330 1 6.580335120091415 14.927175537218785 8.281371357995651 1 0 1
3878 1 7.118569284390933 8.64409494270339 12.107622526006278 1 0 1
1458 1 13.943728047728907 13.203569878120264 11.02734384251058 -1 1 2
4402 1 10.160791237375584 12.592919727970665 13.347833917789293 1 1 -1
4570 1 13.216617238614477 8.848636420517874 12.40393100894992 1 0 1
2387 1 15.361536815210428 44.928360895960026 24.86526560520703 1 0 0
2986 1 9.06735896059986 14.152814041000926 11.515118974934978 0 0 2
2845 1 7.92431718193037 17.338507768662666 11.655873928054842 0 1 0
329 1 10.71661381034827 17.840500618900368 11.867314327509622 -1 0 -1
1246 1 15.882081689096022 14.377849035371241 8.858274092528578 -1 1 1
653 1 0.5628591095979326 38.57969513945207 2.881364813913452 1 -1 0
3 1 3.890293735820926 17.51690881846989 14.151018959763071 1 0 -1
3620 1 7.331671457463253 23.25575598181457 14.068274782287414 1 0 0
622 1 14.29783970278602 19.547003195876155 10.83383323276147 1 0 0
2370 1 14.437998010166243 15.94793043072243 11.175679353791471 0 0 2
1116 1 3.8249578388360517 22.292394786391753 11.562905409816418 0 1 0
4512 1 10.252257274927192 20.4765962539189 12.590547359592 0 0 1
2172 1 6.2241022754377875 20.45899158103846 11.196173021283528 0 0 1
1481 1 13.863091462585759 19.018994016424976 13.350745840408662 0 0 1
3808 1 17.452336497749048 44.31667121336747 1.9518792722772385 1 -1 1
1883 1 1.3243841151018525 23.05301473884905 13.645355548762666 0 0 0
2773 1 8.839338202353517 24.19651524439288 8.742121842700879 0 0 1
3378 1 8.755777506287183 21.74166584756736 10.446508897671968 1 1 0
185 1 13.98362000469332 22.92259137230088 14.381034225200159 -1 1 1
1805 1 14.76806093228022 13.436444629225512 0.598424452312014 0 1 1
333 1 0.7076791104896726 31.40212792008363 13.231413817176445 0 0 0
291 1 2.6794558263771857 25.49123606577906 12.317763190438392 -1 0 0
4312 1 11.608274212614727 24.379855359868003 8.558954296373386 1 0 0
1393 1 6.890874456765353 26.521671906989265 11.411220302809085 1 0 -1
1708 1 11.069326973777315 24.173400669993303 12.799018821267582 1 1 0
2079 1 15.617596981226617 37.94521666337653 19.647907763858022 0 0 0
1587 1 5.793924699875671 29.593155351149317 12.753042259195075 1 0 0
4019 1 8.894769670561727 28.214208636949948 11.203522759051056 0 -1 1
3840 1 12.537036271344174 27.08238483160797 9.380848026911657 1 -1 0
2633 1 14.584993715177811 32.539854863179684 8.555638143802037 0 -1 0
2944 1 15.722497907369972 2.848739427231982 24.419539782305993 0 0 -1
4094 1 2.992603311371261 30.696873793177275 9.336350463385305 0 0 0
1893 1 9.475050237463188 31.424391195284503 10.31777351044985 1 0 -1
1407 1 6.267554010672453 30.79862590149921 8.931247230670225 1 -1 1
3894 1 12.564383133729764 31.929553199921184 10.622465648246674 1 -1 1
3989 1 14.824522999140777 35.04065933163385 10.390998962011498 1 0 1
1887 1 5.91232329711713 -0.04214253891002025 24.914565814287933 0 1 0
2107 1 9.002989815868482 26.848114484158963 24.76753624064576 0 0 -1
2676 1 8.67278277223636 34.05668462756148 9.698173824834921 0 0 1
2111 1 11.371927708297298 35.36211901363231 8.860820533685406 1 -1 0
2274 1 8.387900342410633 31.135939717548894 12.63271707216375 1 0 0
3926 1 7.418194878162492 34.796314716643735 7.3412135017040585 0 0 0
1837 1 1.2834545902961148 44.20133575413756 19.356544101044584 -1 0 0
1661 1 2.943733683292388 37.85845122482574 23.243991743103333 1 -1 0
241 1 17.347101727051857 31.686399466204193 11.123342577841209 1 0 0
3012 1 8.87084786047561 36.24334923099795 11.633629813164626 0 -2 1
3308 1 11.214608679903371 36.554906782032845 12.873597504285167 0 -2 -1
2599 1 12.776248777908933 38.94348057230857 12.701736630329064 0 0 1
4215 1 4.386203203458009 41.69553357397811 10.84171279598921 0 0 0
3016 1 4.424344062311862 38.41063770461814 11.91100102048713 0 -1 0
1942 1 6.881897995519761 40.65439419306932 12.037205053796646 0 -2 -1
3394 1 13.065549641963134 46.38113948325824 13.857070930977967 0 0 -1
2857 1 17.638105131818556 27.07483548258094 1.8747970357385964 -1 0 0
3361 1 15.292737716338069 36.500093679290416 22.49491968143352 0 0 0
3582 1 1.0647854335800913 43.73098100947752 10.190250685038812 2 -1 0
2726 1 8.237131923437925 42.236830249894524 10.15205365990622 0 0 1
3165 1 12.668014219215113 44.91212348967744 11.046827825583076 -1 -1 0
3688 1 16.933307952080114 41.72717611369977 11.59033603632251 2 -1 0
3913 1 2.6908442965393586 46.22719814398728 10.868188925843862 1 -1 1
331 1 7.321614341084252 49.41289324525174 12.779285479383734 -1 -1 0
3162 1 9.743161519666781 47.9517229963447 13.130038236662148 0 0 1
3683 1 12.360368141844699 46.795116981766796 9.141356314476006 2 0 0
3935 1 14.632613702740828 48.28511331138789 10.484314931538002 1 1 0
4104 1 14.58695725795382 10.299452023479352 0.09254000196676387 0 0 0
4516 1 4.798183963453136 7.107385354244987 25.01138432900268 1 1 0
1129 1 1.7878115611716678 1.3358919909530815 12.510577052538936 0 0 1
174 1 4.798910145073814 0.01812093031470363 13.28246952321986 -1 0 -1
41 1 10.324013612722545 48.77984128768513 10.034019730381184 -1 0 1
3392 1 11.427993266432694 50.214527688513215 13.839620785013489 0 0 0
691 1 14.114293874521717 50.85489774512476 9.60570681802463 1 -1 0
1285 1 1.864965623783179 4.410734173972288 18.015669845008386 0 1 0
387 1 11.463401535239802 1.070767837815024 15.828284805065698 1 1 0
4185 1 15.032192329194016 -0.11247235733671346 18.401601985815937 2 1 1
4387 1 15.179805778363018 1.663619939640623 12.135461819812383 0 0 0
2147 1 3.2118442995480985 5.548910087775022 15.203254940829375 1 0 0
4262 1 5.398549606566561 2.701664161090715 15.097324684109617 1 0 1
244 1 9.368968072992573 4.924772798395802 12.202839900675269 -1 0 -1
356 1 9.409013190584606 7.741020702147277 13.939455609579808 0 1 0
190 1 11.61091291541113 3.3128689505465494 12.57087490569004 0 0 -1
1199 1 11.402662822037605 6.521488663819442 16.53659651253772 -1 0 1
3416 1 15.819479861532129 1.423621645552757 14.988371732555196 0 0 0
4565 1 5.681059388393112 7.307267147478079 14.990839064578232 1 1 1
389 1 11.095009983997308 9.676350717909262 15.251633795601588 -1 1 -1
639 1 13.04545547975582 4.625093808110984 14.760404745303928 0 1 0
2135 1 4.717346680545894 9.843412209252444 16.57437916500468 1 -1 -1
2450 1 6.268236529942372 10.742585839566022 13.580795313536115 0 0 1
3429 1 6.533319194452308 14.676105042461364 14.945260067191848 0 0 -1
3780 1 8.486771750922125 11.345709199204665 15.340324229916988 1 1 0
1228 1 13.812082655273164 9.635381295571309 15.03003838341465 1 0 1
4381 1 14.043513812987515 12.3737245445256 15.578286261022841 1 1 0
2219 1 15.954701353443562 7.881386328551079 12.071457993638218 1 1 0
507 1 3.1088391866252145 16.3943115604566 11.782728577627646 -1 0 1
3337 1 3.6319187369921417 13.466733634251547 14.601895191764738 0 0 0
2253 1 6.865520287411326 10.999994872720713 10.111817808144561 0 0 0
1144 1 8.975430218343613 12.20528081835108 9.046962388283553 -1 1 0
1976 1 12.788424205279073 13.47135463888529 13.407501589473362 1 0 0
2295 1 0.6575131728432753 49.30601652061141 14.698649381309668 1 0 1
3248 1 17.67100845688815 3.025163601079707 14.311120755370837 1 0 0
687 1 6.416736077708823 13.158586247429591 12.191977393339341 0 0 0
1806 1 7.833892903433942 20.50937378258017 13.814718118560162 0 0 0
2340 1 11.617606617299543 19.48881543576801 16.751828546412487 1 0 0
1670 1 12.410692039631469 16.718465776301308 13.489084890884067 -1 1 0
215 1 16.878423927411497 15.655768929286591 12.976875048483148 0 0 0
2848 1 4.440016735547409 23.558361841397158 14.342802933891852 0 0 1
1450 1 3.195871244961097 20.349420851595355 13.978399940681054 -1 1 1
728 1 6.5377516547033805 17.77439240938991 14.125732530635059 0 0 1
1063 1 9.035847592946034 19.930571712074457 16.338228276734384 -1 0 1
587 1 12.105558999341657 20.820212145140395 14.518063212003263 0 0 1
131 1 12.999191366116483 21.72344436901831 18.028488885374127 -1 0 -1
3219 1 16.988655618495358 15.619034500166803 15.682088327136965 0 0 0
3606 1 1.8873831416387974 24.581548253979964 17.652245386061374 0 0 0
2459 1 8.381366480162452 24.299543444925444 12.037794473061707 0 0 1
1148 1 15.956229103258012 18.890902940085283 15.398142078842229 0 0 1
3556 1 16.42341064454908 22.11031695403658 19.10984115836433 1 1 -1
1955 1 16.74376094345818 46.16804421681482 22.50791193065948 0 0 0
2505 1 2.274297397013524 27.54635191693873 17.964710892668993 0 0 1