LAMMPS data file via write_data, version 29 Oct 2020, timestep = 100000

8535 atoms
1 atom types

-0.3145039153405804 104.63830172236555 xlo xhi
-0.1967871822278191 51.206364023786634 ylo yhi
-0.1967871822278191 51.206364023786634 zlo zhi

Masses

1 18.015

Atoms # atomic

98 1 2.723226109787925 1.1618861952440622 1.6689702586302195 0 0 0
100 1 7.607269648472499 -0.16070686154537628 0.35936004150123924 0 0 0
198 1 9.350658858997194 1.5937413428127862 1.8738052423170672 0 0 0
101 1 13.927571495977489 -0.12316218410341673 0.07738951213895079 0 0 0
193 1 15.830837660723915 1.4883240634940127 1.6002757478296883 0 0 0
838 1 20.468751317135247 0.4397925835516361 0.1337485470151044 0 0 0
918 1 22.240928565240598 1.7392530211071937 1.7253157428469739 0 0 0
843 1 28.66990041964082 1.3939328962213349 1.7422716421139897 0 0 0
840 1 33.66694889721128 0.06060993964710781 0.23490825514981173 0 0 0
195 1 1.4328804860403888 3.1243912119950012 3.03995134146439 0 0 0
176 1 11.305902417525976 41.73729810935512 0.0234585016438201 0 0 0
104 1 4.322109232644647 3.037769399912941 0.2225168320234912 0 0 0
201 1 6.43083180853277 4.823325406508757 1.8025807647297207 0 0 0
105 1 10.78366045478549 3.103492140731589 0.11974214694572899 0 0 0
205 1 12.578762910475762 4.870683876103052 1.7871499928307366 0 0 0
108 1 17.40531669579819 3.207305086659083 0.3946147798380948 0 0 0
737 1 18.840865439539282 4.764918582372855 2.0939735816791725 0 0 0
925 1 25.084460592662854 4.904718506765494 2.065531525293857 0 0 0
842 1 23.553843524719543 3.530917659629429 0.05500767471569645 0 0 0
844 1 30.27242683623761 3.424246992855705 0.48439276433295786 0 0 0
923 1 31.823189954353786 4.904836180270626 2.214605468715472 0 0 0
111 1 2.9337559830394087 7.7655814474270635 1.7173373573847401 0 0 0
112 1 8.089890868342943 6.330324361637375 0.21904871149663768 0 0 0
113 1 9.548302913706165 7.86303752561215 1.9367985202394014 0 0 0
114 1 14.410139406918516 6.415934176981832 0.10651694691633679 0 0 0
206 1 15.807621191482514 8.145171055139583 1.8202608147345085 0 0 0
847 1 20.388044271027994 6.555656799965574 0.24188855104335028 0 0 0
931 1 21.747850495281583 7.993435311184761 2.153225296456379 0 0 0
850 1 26.582993747049624 6.6499861701985665 0.6375182716018992 0 0 0
927 1 28.430989136874278 8.172239085406833 2.155430823052408 0 0 0
852 1 33.549407559788285 6.531836219176178 0.6213787961252554 0 0 0
208 1 1.3224180701956656 9.838130040742612 3.0070785462257814 0 0 0
115 1 4.608856034617798 9.676824629710552 0.23321918225846 0 0 0
210 1 7.882714138795761 9.859421759933113 3.036583413361832 0 0 0
116 1 11.260780750325702 9.420935871616312 0.34955493254504 0 0 0
118 1 17.344677485956293 9.730945890158084 0.3273400479676718 0 0 0
853 1 23.202260980460824 9.866421351847661 0.6721421247829618 0 0 0
855 1 30.091863105586224 9.535612117718236 0.317447858142624 0 0 0
214 1 4.466754676447352 12.779638575638009 3.1840148260101557 0 0 0
213 1 6.141576384848167 11.466545291609775 1.4658662786185888 0 0 0
117 1 12.530709863152062 11.618318883375752 1.742320170083667 0 0 0
365 1 18.726734587792027 11.358728805829923 2.1778696761835272 0 0 0
857 1 20.270861142389215 12.954811303562021 0.3350143991449478 0 0 0
936 1 25.171994848586788 11.312487305531919 1.9265104040370153 0 0 0
859 1 26.668302733207327 12.889972199481965 0.10423526295682017 0 0 0
937 1 28.390846345192188 14.130212435249113 1.8344776115304233 0 0 0
938 1 31.84591999267532 11.377096164045042 1.636029914645141 0 0 0
221 1 1.2170863341022744 16.262186984026364 3.1690070229750753 0 0 0
128 1 3.015737708439791 14.577461002465883 1.4880732470866256 0 0 0
129 1 9.356519918806802 14.51414351493582 1.7021140513935071 0 0 0
130 1 10.809349681837015 16.260675357141082 0.059923333626933195 0 0 0
131 1 15.934597928972995 14.43655097543134 1.8725398897098846 0 0 0
132 1 17.51877170484363 16.100937649556357 0.4772154363465666 0 0 0
941 1 22.07066128369448 14.671618607024994 1.6675335315626676 0 0 0
864 1 29.937033692676415 15.720146687704721 0.10630261834610366 0 0 0
945 1 31.59023762474506 17.225476623905614 1.70593846998864 0 0 0
133 1 1.0084073599501258 19.235519501425532 0.15515201766459535 0 0 0
225 1 6.185146763810095 17.806382789818212 1.6638582568693099 0 0 0
134 1 7.541721893262585 19.531657564609475 0.17154622537577896 0 0 0
228 1 12.479653396729852 17.65033554802576 1.8152728591788474 0 0 0
733 1 18.897503534531786 17.539297241363432 2.015777086471811 0 0 0
865 1 20.520998466804457 19.159880547074955 0.28008366916307664 0 0 0
943 1 25.224662373195716 17.549236636032038 1.7831116942204999 0 0 0
868 1 27.238983352165764 19.212685669892704 0.4733500926660881 0 0 0
870 1 33.10854118919382 19.011293719947975 0.38227569933977 0 0 0
140 1 2.6796474783219595 20.909758290876947 1.8784756987324114 0 0 0
139 1 4.260963582006434 22.5150200876296 0.21151364710281367 0 0 0
233 1 7.573014169109834 22.435364663997284 2.7778774148308703 0 0 0
136 1 9.487312683142738 21.04606353266916 1.322525826527665 0 0 0
145 1 15.598653997189823 20.4956226815841 1.8903048135733775 0 0 0
146 1 17.020473450222102 22.3955239072298 0.5267602355354802 0 0 0
951 1 22.010730416228572 20.708173402198405 1.774223858924847 0 0 0
871 1 23.476727249930775 22.517378318063773 0.24997936891887224 0 0 0
953 1 26.99794878634315 22.24626311534295 3.185894764361667 0 0 0
952 1 28.88200300875739 20.86991383540758 1.905126829682657 0 0 0
873 1 30.553565335656877 22.424661334384698 0.1723275137871942 0 0 0
148 1 1.2359032103017198 25.34145432457354 0.33143470581701917 0 0 0
236 1 4.751683012978955 25.629221798447926 3.10588300144982 0 0 0
238 1 6.368246570853489 24.248480989853213 1.3157743868149518 0 0 0
149 1 8.254114533678042 26.21833573624466 0.11378091111775196 0 0 0
144 1 12.427024788858159 24.146349965631973 1.9521333053839127 0 0 0
151 1 13.954157990252156 25.39739669683817 0.21909649722893887 0 0 0
766 1 18.941908750157257 23.716312248701765 1.8160803568184876 0 0 0
875 1 20.774833780072786 25.76840321496242 0.10339335619944873 0 0 0
956 1 25.208297555728684 24.239629121112326 1.7212149623137802 0 0 0
877 1 26.94190221891123 25.75382628345065 0.2337319942052261 0 0 0
954 1 32.04525797016619 23.896120214504208 1.7910676446563378 0 0 0
879 1 33.50064291604752 25.55243248150487 0.2331563694102416 0 0 0
242 1 2.791923545489408 27.190274998926462 1.8202952925769762 0 0 0
152 1 4.557919975375612 28.98426150253144 0.5457643644680932 0 0 0
237 1 9.814161453554629 27.57715721748666 2.1494471883877475 0 0 0
153 1 11.26825061875334 29.087977381243046 0.3529724979315635 0 0 0
249 1 15.72728086057699 26.88687368630482 1.7917074662328767 0 0 0
881 1 21.907419057373012 27.295742308797358 2.178753245390205 0 0 0
882 1 23.37839789670883 28.83445200230081 0.16253379043401062 0 0 0
958 1 28.579255452359465 27.196184425072452 1.8831822822669992 0 0 0
883 1 30.544506353654587 28.73458882896779 0.4758793397372941 0 0 0
158 1 1.1328173016698682 31.652641666633766 0.04637718068458754 0 0 0
159 1 6.4660962711722005 30.787319534898593 1.8507630812757605 0 0 0
160 1 7.963432842308567 32.327366746036006 0.07607255311748007 0 0 0
247 1 12.574438518812416 30.67834675855444 2.0087129809658486 0 0 0
161 1 14.506131373777809 32.3663110226904 0.3748199915475934 0 0 0
549 1 18.71702145572714 30.21473810901497 1.8574708554107309 0 0 0
886 1 20.309413696402935 32.39073611139638 0.42733140155863525 0 0 0
962 1 25.30638589212629 30.589240730034295 1.8431745503451622 0 0 0
888 1 26.75590205232819 32.09986512870836 0.07601226416458412 0 0 0
885 1 31.909468498823422 30.280612482587266 2.0914590794841406 0 0 0
890 1 33.49991733060411 31.904509214834153 0.5738203553190055 0 0 0
259 1 2.9214035757879135 33.172411287333176 1.6440383391441376 0 0 0
163 1 4.749862241039009 35.18001487256301 0.09415505477601305 0 0 0
254 1 9.640313967733421 33.82975878355877 1.710153690469429 0 0 0
162 1 16.048506500831056 33.81405663017587 2.0637492495179086 0 0 0
166 1 17.330218886626756 35.48879402605081 0.13734056123635163 0 0 0
968 1 20.703789164719478 35.22102763481077 2.8243250352004425 0 0 0
887 1 22.560668942122636 33.97065115690323 1.3903426121585134 0 0 0
889 1 28.38398295670383 33.46318517332398 1.8862938661914042 0 0 0
894 1 30.43704822254721 35.11281695140083 0.6125730191066311 0 0 0
168 1 1.20228258578773 38.4190642258242 0.32404038904853116 0 0 0
911 1 33.12272205919081 45.001133856176295 -0.05033665419687605 0 0 0
164 1 6.182541499320908 37.104536783682136 1.5854146035336178 0 0 0
165 1 11.237100541330951 35.65867649237293 0.18459859619631036 0 0 0
264 1 12.901599143732653 37.18397116079234 1.780929032448521 0 0 0
267 1 17.35284762130609 38.38535398313127 3.127028014027987 0 0 0
783 1 19.064521811810664 36.917665165998656 1.391981473037513 0 0 0
973 1 24.008079304217997 38.27655524267408 3.2070395513722945 0 0 0
893 1 25.77050639518516 36.874670444897944 1.5306304877951038 0 0 0
895 1 31.835811603389196 36.93000415815062 2.20088953037 0 0 0
269 1 2.8078092637534944 39.908129446686885 1.8972464431755633 0 0 0
172 1 4.420018551544719 41.46532620297744 0.147182105772529 0 0 0
173 1 9.50348405863102 40.05238272785128 1.5414441062793907 0 0 0
170 1 14.296024255063653 38.62423536922293 0.04322217409184864 0 0 0
273 1 15.75246769281273 40.33953663910262 1.7301410042409449 0 0 0
896 1 20.75187039651185 38.66696989559826 0.325554865381644 0 0 0
897 1 22.427852461677293 40.20202140469108 1.9451615417793948 0 0 0
974 1 28.54729740212352 40.235275401616136 1.6455810543615057 0 0 0
900 1 33.04930164336417 38.65908814639603 0.15262505949754124 0 0 0
901 1 23.848074438540248 41.81127999746785 -0.08332905151873256 0 0 0
174 1 6.15467131095711 43.04970789179528 1.544767192907664 0 0 0
180 1 12.8901316927915 43.31748895767177 1.9807405298992884 0 0 0
177 1 17.364554497832277 41.96888594464383 0.2772648513392475 0 0 0
1238 1 19.026089526448764 43.488541722284666 1.8510191168806083 0 0 0
978 1 20.684793239376333 41.88778231740774 3.2016999840660305 0 0 0
902 1 25.27757777283067 43.376601483998854 1.5257108842267229 0 0 0
982 1 26.845324401145042 41.63195080284703 3.150127762663497 0 0 0
988 1 31.480492428487302 43.30932725586658 1.5104786599527515 0 0 0
178 1 1.2695874472898478 44.81644482449525 0.34051838922030964 0 0 0
280 1 2.860864471613304 46.4077570530293 2.152357353743517 0 0 0
179 1 7.924894427538424 44.94190718283748 0.1269113102672662 0 0 0
276 1 9.43890982865666 46.61676647620827 2.020359208792759 0 0 0
181 1 14.119195302761446 45.205545620639555 0.0950020572520412 0 0 0
183 1 15.707477668497031 46.67965910740912 1.6904268035977787 0 0 0
905 1 20.620966659614776 45.226600202206484 0.237770416755969 0 0 0
906 1 22.19592532970195 47.07992928358502 1.615737196865938 0 0 0
984 1 23.84798450658838 45.13367231006612 2.8489138353509307 0 0 0
907 1 26.818322184563044 45.27891781745636 0.07500409566660804 0 0 0
909 1 28.46605675353858 46.43356013054512 1.7686789749103147 0 0 0
2234 1 33.16247676622703 48.1443226609974 23.033376049484147 0 0 0
282 1 5.983990992548803 49.705578011973174 1.8515056167670392 0 -1 0
185 1 4.490359268099057 47.861368730886724 0.5432812384148945 0 0 0
187 1 11.227278743963208 48.07040356873277 0.6199204444736202 0 0 0
284 1 12.522651493535996 49.59769222217183 2.1976321969894888 0 -1 0
735 1 18.83911342766914 49.997499449584225 1.5113282303665425 0 -1 0
913 1 23.985685157252913 48.66096253399033 0.25243260801599215 0 0 0
914 1 25.487424661136217 49.641921469603005 2.0024071745163696 0 -1 0
915 1 30.224992894912454 48.009107545190986 0.19869543667428569 0 0 0
916 1 31.75688902026917 49.96299471736292 1.7153216613417457 0 -1 0
994 1 33.39344128817784 48.60319768846942 3.224895468844472 0 0 0
61 1 -0.20180219234200764 1.8373021195347996 4.754395189562378 0 0 0
189 1 4.186452385601468 51.14827937055689 3.474246296387254 0 -1 0
190 1 5.741813749340739 1.5741878477335611 4.774565520445549 0 0 0
191 1 10.873755432565162 -0.06522265390644019 3.7231096518999776 0 0 0
290 1 12.518368366513124 1.7734294873249534 4.8068772634179 0 0 0
291 1 14.235187006197258 -0.03149654810514621 6.4045199686722665 0 0 0
194 1 17.016805483291954 51.09658145921796 3.3629006584507053 0 -1 0
736 1 18.87373097934323 1.4443811144131768 4.7968204265168595 0 0 0
919 1 23.680433970976534 -0.003182191645771354 3.4171253222571645 0 0 0
996 1 25.231100837272663 1.2542142727270273 5.203074050564163 0 0 0
920 1 30.009398788720286 -0.17615962391062695 3.3168378102204272 0 0 0
998 1 31.93419298869822 1.2880905069757287 4.962101998386818 0 0 0
196 1 2.857471436406125 4.785230605256115 4.749903770366965 0 0 0
293 1 4.473244040307384 3.5104634970781374 6.343087089487021 0 0 0
197 1 7.650114172584349 3.0221864639887746 3.4983212552715255 0 0 0
204 1 9.339955397930161 4.659456744520244 5.1609302454395065 0 0 0
199 1 14.467644755098718 3.3741712642299286 3.4624227765672337 0 0 0
296 1 16.05730438146991 4.970647084292841 5.220424072901613 0 0 0
921 1 20.292311252971214 3.100550248559022 3.345981499526663 0 0 0
1006 1 21.811012327360103 4.680713305740583 5.2332415871433495 0 0 0
922 1 26.963578589334958 3.079751717287309 3.314447720108658 0 0 0
1002 1 28.394465481956793 4.544011988842649 4.872770117631766 0 0 0
1003 1 30.386158187299532 3.085019281495358 6.402209830739733 0 0 0
924 1 33.60394562189893 3.192448534644222 3.6852990491999438 0 0 0
298 1 1.4218427945476222 6.532753623198106 6.384550975289135 0 0 0
121 1 0.09151462445813863 8.229692848511455 4.6443548104569325 0 0 0
200 1 4.768353754558807 6.330096471481183 3.358681094922849 0 0 0
202 1 6.443874737202116 8.206632148545728 4.765693460138117 0 0 0
203 1 11.01271103820188 6.275039763199232 3.4515329776819303 0 0 0
212 1 12.835869790861501 7.895437416146748 4.853407976558062 0 0 0
207 1 17.46723381691632 6.867252500183176 3.7103895815073553 0 0 0
926 1 23.127471468228524 6.423448826524066 3.6893004820000286 0 0 0
1011 1 25.324196447946537 7.782879386507131 4.869133609568456 0 0 0
928 1 30.118794613696505 6.2889000106745545 3.5911751567476355 0 0 0
929 1 32.11738337914862 7.989992818293311 4.922913519409438 0 0 0
304 1 4.600571949438536 9.650617466238023 6.193415977914725 0 0 0
305 1 11.249982888558318 9.45438219349251 6.332152126531149 0 0 0
311 1 9.60771092894826 11.079110284848426 4.851786247206238 0 0 0
211 1 14.117138777443506 9.611124222356047 3.301056800976584 0 0 0
312 1 15.520105421282516 11.04585646969852 5.136830711399586 0 0 0
876 1 19.043579684393332 8.448987176384108 5.430462199006334 0 0 0
932 1 20.673667195334264 10.122894329697191 3.6725341690807207 0 0 0
933 1 26.999230188276304 9.887561751078223 3.4438075750967783 0 0 0
1013 1 30.310983462332103 9.852423875461431 5.998321048540735 0 0 0
934 1 33.41848276689095 9.856843666082765 3.389979540555052 0 0 0
215 1 2.7106590290592822 11.405156814509066 4.818398993908777 0 0 0
308 1 1.052704258694004 12.862433671891779 6.361882998308614 0 0 0
97 1 0.8495172377781361 51.20385341036916 -0.17047701919745525 0 -1 0
216 1 10.732485697430363 12.612021721753703 3.251143566717806 0 0 0
217 1 12.282888948536405 14.181305088673318 4.899709630882532 0 0 0
218 1 16.777684595446843 12.698758156908363 3.7808685313644834 0 0 0
1014 1 22.429426695278405 11.481372352100163 4.999350047742632 0 0 0
935 1 23.57592297188966 13.330961171377496 3.340380222062651 0 0 0
1012 1 28.143296722139752 11.73465378325516 5.309577584475898 0 0 0
939 1 29.978179898442704 12.740297408029104 3.522833369692925 0 0 0
317 1 6.351180103455939 14.461479565439884 4.695899194700813 0 0 0
222 1 7.8444714320402245 16.396192866463675 3.366572302871855 0 0 0
224 1 13.995475128865108 15.955693468184176 3.363900599210563 0 0 0
321 1 15.772465816583562 17.2488715338471 5.2188073108999475 0 0 0
979 1 19.046722028835838 14.405480175493995 5.084580106884791 0 0 0
942 1 20.5878896998727 15.996231336150629 3.5376144715544195 0 0 0
1016 1 25.30863969183928 14.684691341313663 4.862342755372091 0 0 0
944 1 27.11410657700161 16.176420239785347 3.452602348409102 0 0 0
1019 1 31.551726961427054 14.337204172275964 5.0555882297228285 0 0 0
946 1 33.303354127107504 16.188336978575084 3.5216041227026693 0 0 0
314 1 3.0085821051126875 17.7273225415171 4.7898503406849 0 0 0
226 1 4.510244077656716 19.579900554947855 3.4306985771571012 0 0 0
223 1 9.404239446346203 17.799530769790486 5.184887473849857 0 0 0
227 1 11.065152883122876 19.527581086502487 3.523406915518097 0 0 0
229 1 17.286515338117084 18.968416920725005 3.6035707904657004 0 0 0
1023 1 22.014118389365475 17.726294944103486 5.155815588238228 0 0 0
947 1 23.452358138457317 19.073157665203567 3.4258056246676865 0 0 0
1021 1 28.63962098318946 17.7483542224319 5.088650541734759 0 0 0
948 1 30.477882451888362 19.176285917205814 3.4278111251488794 0 0 0
232 1 1.1343871484191488 22.45231415695945 3.69464787366671 0 0 0
327 1 6.472282056520828 20.70967846053917 4.97052070344317 0 0 0
330 1 12.413064342160297 21.119761166923603 5.322749014643542 0 0 0
234 1 13.982531790309235 22.343104957266238 3.515354725836822 0 0 0
331 1 17.540960716523536 22.439017590915345 6.441361060126654 0 0 0
775 1 18.986668391208433 20.729179585352227 4.948620964915195 0 0 0
950 1 20.70855486093208 21.937441950100833 3.59727553483032 0 0 0
1025 1 25.10563734560267 20.86751680255779 4.814692874922153 0 0 0
1028 1 23.783377566633632 22.59454649328551 6.353927818519552 0 0 0
1030 1 30.55351722641125 22.398351036087245 6.168739498390128 0 0 0
949 1 32.05526596529946 20.699197616930256 4.771248725889939 0 0 0
955 1 33.67227710935961 22.175629744842997 3.334420937174879 0 0 0
333 1 1.28560513974045 25.497681932395373 6.3705418776027045 0 0 0
332 1 3.1108371106015884 24.00707477190429 4.914749710522106 0 0 0
239 1 9.098279638712528 23.90927719977633 4.921697975647945 0 0 0
240 1 10.968440380570582 25.585153794202636 3.6261018089363546 0 0 0
235 1 15.477268093577237 23.83588233308713 4.9743020500364254 0 0 0
241 1 17.24975596216848 25.241796084002242 3.4239156939318036 0 0 0
1033 1 22.056618616010404 24.097253740294644 4.891072599072438 0 0 0
957 1 23.655201631861107 25.58568649352954 3.40103546775842 0 0 0
1034 1 27.23046648045665 26.084492812083674 6.309119252776934 0 0 0
959 1 30.224612825140653 25.411946066175073 3.260252652720092 0 0 0
1029 1 28.54438336563351 23.77434071576103 4.755512228840266 0 0 0
243 1 1.1462524393613076 28.953209923829633 3.442936236462238 0 0 0
339 1 6.174173418406523 27.577397459405457 5.107280429769734 0 0 0
244 1 7.871754734451422 28.914426005587945 3.448862111748321 0 0 0
246 1 12.705427704741664 26.940256235784126 5.008513689849587 0 0 0
248 1 14.450220852175446 28.48414226601671 3.5333746660208334 0 0 0
734 1 18.711736280007138 27.127050634261945 4.82537989977931 0 0 0
343 1 17.20458067432861 28.809563555302752 6.261459909351304 0 0 0
960 1 20.577717523700223 29.001551061634956 3.487279744963878 0 0 0
961 1 25.151196835518427 27.429870334123397 4.756897650505526 0 0 0
963 1 26.885815278848657 28.88558030286412 3.4039451752032375 0 0 0
1038 1 31.896121930251596 27.06622645045403 5.292038235687986 0 0 0
964 1 33.71642912007322 28.62070086117866 3.39260002305674 0 0 0
252 1 2.744627245985697 30.898444756211987 4.953009801084359 0 0 0
253 1 4.6784189119338215 32.268894202115405 3.5835866912624175 0 0 0
245 1 9.338369895142032 30.23916873624586 5.485780222957466 0 0 0
255 1 10.657801743321713 31.894415487448132 3.4462210218454086 0 0 0
250 1 15.663251979515831 30.614729226773772 4.882285913768063 0 0 0
256 1 17.4973132574006 32.21864834463385 3.6887862099776245 0 0 0
1043 1 21.914677959404386 30.634044203456067 5.016304115966396 0 0 0
965 1 23.705027532346843 32.05139856732886 3.4375124239362687 0 0 0
1039 1 28.509665664929493 30.327711523719948 5.142707232066823 0 0 0
966 1 30.297226647207598 31.802346443902696 3.689236812267458 0 0 0
258 1 1.5657739232380532 34.915907815369934 3.437690281284387 0 0 0
6225 1 0.08695329636954757 35.96089244650388 1.3237079956302722 2 1 -1
353 1 6.304548789846704 34.12736322649015 5.06377036065651 0 0 0
354 1 11.025212276135932 35.20092960055864 6.454656998633593 0 0 0
348 1 12.62658624052247 33.57271566679431 4.935333799378104 0 0 0
261 1 14.362652714932349 35.293924938813774 3.6145467329906276 0 0 0
1165 1 19.351987032799638 33.98561786087188 5.068757757315002 0 0 0
1044 1 25.574348179796907 33.59007801275877 4.843224366138232 0 0 0
969 1 27.02469705374266 35.374806795585044 3.6135312538387847 0 0 0
967 1 31.633183130122315 33.48628646027487 5.227979238434631 0 0 0
970 1 33.348427961723836 35.33173722157204 3.866929688446821 0 0 0
360 1 2.716127378900769 36.737339431500445 5.107842556009224 0 0 0
263 1 4.414746132565292 38.449060165507376 3.32610361352256 0 0 0
260 1 7.79570461094778 35.60715964938399 3.3439952824670183 0 0 0
355 1 9.538233681371361 36.988762802844235 4.813570511917392 0 0 0
266 1 16.159757547387557 36.74940304118192 5.065323057907133 0 0 0
1054 1 20.859001993317968 38.02891518708891 6.297712692461691 0 0 0
972 1 22.346112422734322 36.63085671915542 4.817970282205133 0 0 0
1049 1 28.686257235710524 36.836187468455094 5.096306411993907 0 0 0
683 1 -0.023848623934743962 40.14170383365696 5.38090768182315 0 0 0
361 1 5.888037239237341 40.09740500517562 4.92284644932365 0 0 0
362 1 7.800934199115973 38.65294100394915 6.4148382721293 0 0 0
265 1 11.194670690217643 38.67443927680185 3.270014951378098 0 0 0
271 1 12.687915096005712 40.09954333815476 4.953553128301628 0 0 0
372 1 17.59582031728979 41.487312603508954 6.371694746484537 0 0 0
1179 1 19.298823718688368 39.89308793759514 4.565231816542918 0 0 0
981 1 25.370444013828614 40.117257914978765 4.830803812971743 0 0 0
975 1 30.345363660498407 38.676981298727256 3.317484014653259 0 0 0
976 1 31.772787922930696 40.50775643497664 4.968300006503751 0 0 0
268 1 1.2987886533524071 41.59808820861703 3.540765385496949 0 0 0
274 1 2.8004629882857057 43.32871039618263 4.9171581130306645 0 0 0
270 1 7.910274510787936 41.80982473487124 3.321038768175339 0 0 0
368 1 9.467713273295937 43.15726063549498 5.172869541836917 0 0 0
272 1 14.59993480530026 41.607577194873244 3.5434155078125005 0 0 0
380 1 16.068114029562874 43.39425869289869 5.174605540127497 0 0 0
980 1 22.291627797595574 43.45058338774034 4.710809445991481 0 0 0
986 1 28.517121067893623 43.197517008443896 4.858803754402939 0 0 0
983 1 33.20569452259277 41.80488270156009 3.2614061107213064 0 0 0
275 1 4.644076893881745 44.642826830267694 3.3843503950607654 0 0 0
376 1 5.9775709505796675 46.23218123295551 5.425805872293679 0 0 0
277 1 10.929785800026416 44.81311735815105 3.410706281871245 0 0 0
384 1 12.17197071704547 46.3034960303535 5.253295473922331 0 0 0
278 1 17.19152625515273 45.04073009561607 3.4296198868931804 0 0 0
656 1 18.796396310920503 46.43406818860571 5.014019141503705 0 0 0
1066 1 20.729066029892614 45.024096068427994 6.0142339633540525 0 0 0
985 1 25.216159059205523 46.32122967476154 4.860526924575272 0 0 0
1067 1 26.655815564134773 44.70414772009421 6.4520816235314875 0 0 0
987 1 30.15360988976222 44.90788882303066 3.426218301407929 0 0 0
993 1 32.08607840579987 46.39299386322695 4.835750774107041 0 0 0
281 1 2.778481262137582 50.00715510835926 5.420347463758988 0 -1 0
279 1 1.0204563565620526 48.39072958384645 3.6026758462677893 0 0 0
192 1 9.028381999902475 49.42127684369454 5.247184126826534 0 -1 0
283 1 7.575731707228302 47.899332522477124 3.4879275352829695 0 0 0
385 1 15.487148716289074 49.310057997831024 4.89204212436439 0 -1 0
285 1 13.897033351597438 47.743559083793784 3.460683572770725 0 0 0
990 1 20.400644463805524 48.32690282937338 3.5100575161377967 0 0 0
1070 1 22.17036999248694 49.73140215588357 5.08936450321199 0 -1 0
991 1 27.06332146028778 47.91700357250174 3.404113745894186 0 0 0
992 1 28.51359312021855 49.67199737030799 5.002100857539368 0 -1 0
1072 1 30.382485076613442 47.866624003230754 6.386923714110886 0 0 0
286 1 1.072035248032329 0.2604360706369022 6.6868527351841935 0 0 0
392 1 2.9859053687544335 1.76923343293262 8.070927532386417 0 0 0
387 1 4.828505757357457 0.3360850263630476 9.460277241639911 0 0 0
288 1 7.465191207006038 -0.05091830992711904 6.4810543939363425 0 0 0
289 1 9.3141085506907 1.6396458049862097 8.069119706750078 0 0 0
397 1 15.88728105011851 1.659837827810759 7.697125551809344 0 0 0
390 1 17.167948445507747 0.28461819573755165 9.624598545218962 0 0 0
995 1 20.447484255063756 -0.006549396723341261 6.823570902533182 0 0 0
1082 1 22.216337426879516 1.6113387249886044 8.406935035554161 0 0 0
997 1 26.974406076003472 -0.10720929696392079 7.017501934954732 0 0 0
1076 1 28.92675714991026 1.5047686931846649 8.081660552874675 0 0 0
999 1 33.378018753427796 51.1591739748974 6.780984963733528 0 -1 0
455 1 -0.11951210251247688 4.792596564005223 7.740089082823349 0 0 0
394 1 7.700330779988549 3.447442778030971 9.578352834680238 0 0 0
395 1 6.185109933569956 5.0318960385265195 8.055392612825312 0 0 0
294 1 11.133858957596564 3.1022267408081503 6.547283029946316 0 0 0
295 1 12.924938936624578 4.848929114727689 8.170725932348837 0 0 0
297 1 17.822543672101784 3.131453096077366 6.46837449116892 0 0 0
1343 1 19.31727180828282 4.814916673226983 8.353984036535298 0 0 0
1001 1 23.8185557156685 3.2031027179525564 6.490280831194527 0 0 0
1007 1 25.75660874184922 4.538861948418542 8.266519713699655 0 0 0
1004 1 31.93497427075758 4.940541062046175 8.152510015407257 0 0 0
399 1 4.458855165081863 6.456088378050909 9.660589314244302 0 0 0
299 1 2.9178820186104932 8.176803961918312 7.97240965093145 0 0 0
300 1 7.913700310708988 6.419413594676925 6.57410430438155 0 0 0
306 1 9.878696193791399 7.743924327442382 7.963590993719116 0 0 0
301 1 14.188826543666634 6.3936867488688085 6.510841610640781 0 0 0
402 1 15.661534264023487 7.885856768363757 8.443269875517673 0 0 0
1005 1 20.813159436784545 6.6201816559350855 6.592425562858501 0 0 0
1085 1 22.433061421260522 7.779786863049958 8.083177004011558 0 0 0
1008 1 27.065836538932633 6.548191167019592 6.5281259890977426 0 0 0
1088 1 28.912260185035084 7.968145545233799 8.010427150907608 0 0 0
1009 1 33.658795317124024 6.511267255123498 6.702386389944557 0 0 0
125 1 14.344713231119211 13.22140959889144 0.008828993493898318 0 0 0
403 1 1.1722137167298248 9.569533566430149 9.48318396306086 0 0 0
404 1 7.740694607871662 9.619908187446889 9.43657039030167 0 0 0
406 1 12.539152801497988 10.925427331596154 8.327192049559276 0 0 0
307 1 17.326456492732618 9.772741152331509 7.214783491057851 0 0 0
1010 1 23.829088720822185 9.522604103347813 6.729857513322167 0 0 0
1097 1 25.252266355603325 10.795504422982399 8.456443888407899 0 0 0
1094 1 33.6012235595047 9.991804094275603 9.520434194808304 0 0 0
418 1 2.8858723636972172 14.187223677960736 8.273514718715516 0 0 0
409 1 6.345996606318201 11.329209572881073 7.843493614590438 0 0 0
309 1 7.957418995700127 12.959219019074887 6.644156945037997 0 0 0
313 1 14.137528455196529 12.813056665544533 6.757438149474124 0 0 0
421 1 15.89512853354502 14.157179766074625 8.346539303652097 0 0 0
796 1 19.13115643428755 11.551467004059525 8.31898796902635 0 0 0
1015 1 20.98927775703869 12.674584879883641 6.680582567727749 0 0 0
1096 1 22.46520677328276 14.120757055008909 8.98629767512002 0 0 0
1017 1 26.31240061799416 13.240260913744592 6.9890179253626705 0 0 0
1099 1 31.712268226237164 11.469766875231091 8.0815777178875 0 0 0
1018 1 33.4200740837393 12.99364006016154 6.702417234826629 0 0 0
316 1 4.225453137758662 15.995739507716827 6.528197281944446 0 0 0
310 1 9.318427774409463 14.40058309350255 8.244268391211785 0 0 0
318 1 10.966248444040195 15.916708588732096 6.586887389591725 0 0 0
319 1 12.806357021686596 17.315458460043764 8.059623899557712 0 0 0
320 1 17.450828213615097 15.759731978563172 6.936711632124874 0 0 0
1020 1 23.652716707488747 15.975491061827189 6.980903611470224 0 0 0
1100 1 28.424317353772164 14.937083394915726 8.316063976853581 0 0 0
1022 1 30.17192967924439 15.990297072904767 6.7846339577862125 0 0 0
322 1 1.2320215978421725 19.098631225257215 6.487020514484036 0 0 0
323 1 6.078312816189341 17.861354931349997 8.160159753489229 0 0 0
324 1 8.060461518660093 19.24268410598453 6.888856586111783 0 0 0
325 1 14.42615264082365 19.23602515833518 6.612581154963734 0 0 0
350 1 18.846421377639633 17.68587920348794 8.256489281942999 0 0 0
1024 1 20.488005829508868 19.276008229009058 6.610257031144561 0 0 0
1026 1 26.851606506106243 19.520198834536853 6.525578172317046 0 0 0
1110 1 25.50261826671019 17.551099977485894 8.263106504709258 0 0 0
1106 1 31.74869924692966 17.714438703591128 8.282387030984093 0 0 0
1027 1 33.55790681340036 19.271230189351936 6.634870950769254 0 0 0
430 1 2.7675455639725866 20.692596225353952 8.335931846085774 0 0 0
429 1 1.0853710389392295 22.581162700946184 9.246575826105145 0 0 0
326 1 4.5122361606734245 21.950334115522388 6.814029402985536 0 0 0
328 1 9.329290290635347 21.0328745601495 8.359711924655151 0 0 0
329 1 10.816009637927548 22.66753003837528 6.898604429490153 0 0 0
434 1 15.923478629914396 21.09082556504287 8.247913911434331 0 0 0
1113 1 20.425378000786935 22.242344709155372 9.599329828903635 0 0 0
1108 1 22.3431296579316 20.816355958924813 8.158679220998316 0 0 0
1111 1 28.83254385346702 20.902525507600593 7.7514942133143 0 0 0
438 1 4.6606570594849455 25.833199154318184 9.576261288737863 0 0 0
431 1 6.135138033728148 24.063751719208962 8.099456286913828 0 0 0
334 1 7.982718964529537 25.78327884585466 7.040822161059901 0 0 0
335 1 14.187800353629116 25.60436558447344 6.5174877579420665 0 0 0
336 1 12.757500067749795 23.93343356274949 8.186108972509347 0 0 0
1032 1 20.54510241984754 25.734215260007936 6.504702836865316 0 0 0
917 1 19.10076370896773 24.033256448793576 8.176536885173677 0 0 0
1117 1 24.063414804858997 25.59035029450789 9.605622427670768 0 0 0
1114 1 25.868143328074773 24.300102268677524 7.9448648169605995 0 0 0
1035 1 31.883153802442486 23.986184824358986 7.938316026146371 0 0 0
1036 1 34.0710268612582 25.458773341794924 6.5837082310352875 0 0 0
437 1 2.5552745799688537 27.201095383867454 8.110841630544781 0 0 0
338 1 4.266248875099505 28.897330476182166 6.676646466749333 0 0 0
445 1 7.8639878013645514 29.061012347491513 9.639480532350374 0 0 0