LAMMPS data file via write_data, version 29 Oct 2020, timestep = 200000

4608 atoms
1 atom types

-0.057631973381649715 57.32814197338067 xlo xhi
-0.051228420782809536 50.95834842077784 ylo yhi
-0.051228420782809536 50.95834842077784 zlo zhi

Masses

1 18.015

Atoms # atomic

25 1 3.3335969446060645 50.657243974604825 3.298853043751343 0 -1 0
29 1 4.3036797493142105 1.499615563468583 1.469269611770696 0 0 0
285 1 10.695495139345276 1.7480498268503604 2.0231923311366944 0 0 0
256 1 2.992070017768573 47.322200710395876 0.2588650129773607 0 0 0
541 1 17.254694844329343 1.5314271910641226 1.8637984576794835 0 0 0
218 1 0.03506293672819538 41.44782763507166 3.219802621608891 0 0 0
30 1 1.2061604711560625 4.923227445020252 1.6446149301961919 0 0 0
57 1 3.174994474772768 6.223116774439043 3.080399884034458 0 0 0
282 1 6.197371003285354 3.0125425114473674 3.155360550977769 0 0 0
286 1 7.866789941077546 4.4439710884546235 1.7877763842650591 0 0 0
313 1 9.568980033474523 6.098053947971113 2.9543691114818964 0 0 0
542 1 13.974159081665388 4.620748999978861 1.0749807023852151 0 0 0
1344 1 15.715028787471951 9.164950258538905 25.431290590958515 0 0 0
61 1 4.748464020761589 8.012166461857168 1.6926370621993032 0 0 0
314 1 6.472875927173277 9.545235540434462 3.2009592592312424 0 0 0
317 1 10.792582221179432 8.078918409374918 1.1530916446844524 0 0 0
570 1 12.60783152465384 9.045976836491766 3.198507957535475 0 0 0
573 1 17.39234958649861 7.730749001147844 1.5961547625633141 0 0 0
62 1 1.3119768911864957 10.82730095286607 1.6162724299287514 0 0 0
39 1 -0.017103717116224194 6.225845832301779 19.106163324455274 0 0 0
1023 1 0.13904705367383202 44.65796647685096 25.269160637393792 0 0 0
318 1 8.08701379823375 11.473087218538907 2.040378207968333 0 0 0
574 1 14.081410767984746 11.067626069513588 1.841411801636351 0 0 0
71 1 -0.0038991939421322286 12.629162779220161 18.81893375231476 0 0 0
93 1 4.624634620192032 14.37755820847598 1.6321855099463434 0 0 0
349 1 11.391277368302108 14.778667768175895 1.4706068244365893 0 0 0
345 1 10.25608578353048 12.851393038464598 3.3891815247500046 0 0 0
863 1 0.2149627438660957 12.5912072248253 25.02380968249149 0 0 0
605 1 17.24323957920533 14.230346084295544 1.7007624017299663 0 0 0
740 1 17.272902482922607 49.116763877985605 23.77284623060368 0 0 0
94 1 1.585682404544642 17.59498122941095 1.4652278049400478 0 0 0
34 1 0.12199076040679235 9.373576699280456 22.209865267125004 0 0 0
346 1 6.408968957637492 16.051574625510433 2.9704472631678835 0 0 0
350 1 7.851403234738383 18.145126757146993 1.8958454393638593 0 0 0
864 1 3.241856840858401 16.106959103761202 25.14127373642898 0 0 0
602 1 13.131675503873087 16.203279094693997 3.1018193607864633 0 0 0
606 1 14.547315600821133 17.3415151274176 1.3804548068348066 0 0 0
162 1 0.13272485052872263 35.18504690697195 22.203394605225842 0 0 0
121 1 2.834703757448251 19.32388399389336 3.0683691644118443 0 0 0
125 1 4.439996470819727 20.793787829698854 1.4590054470587581 0 0 0
381 1 11.341620534772229 20.91061360281351 1.1842907723909006 0 0 0
377 1 9.712906468601583 19.631181840803187 3.322501813242508 0 0 0
637 1 17.452823823539102 20.46340094961599 1.909551223767861 0 0 0
2463 1 18.8282096704898 25.316430451300942 25.351044317764956 0 0 0
126 1 1.717595103045837 23.506721823645478 1.685916357847423 0 0 0
10 1 0.19621948124282174 3.16301706231845 16.054249846534066 0 0 0
382 1 7.991966501552584 23.92480563635434 1.8595034188711383 0 0 0
96 1 2.9745034708050966 15.756894076415024 0.11813086213879911 0 0 0
638 1 14.370147853567707 23.63284516670817 1.6840315392967298 0 0 0
2 1 0.425585793200891 3.127476340952598 22.44538026000711 0 0 0
484 1 10.910602845789333 49.371887556718576 23.983356437373473 0 0 0
228 1 4.968865145517323 49.10330807986355 24.057399731964583 0 0 0
157 1 4.8821289764144495 27.366525240417754 1.5396926140494085 0 0 0
413 1 11.464540870501315 26.99575876138527 1.7125891202261048 0 0 0
669 1 17.51021962336304 27.207421317819666 1.7200977031393865 0 0 0
960 1 3.145012230498912 34.745648771218086 25.21079574718268 0 0 0
158 1 1.579469875921927 30.222854908977098 1.5753531123346032 0 0 0
185 1 3.2290675996284044 31.583910416962812 3.1170157485877317 0 0 0
410 1 6.550373890738297 29.052469182044195 3.1069739208807774 0 0 0
414 1 8.294628500178447 30.381615115045904 1.2554711078311673 0 0 0
18 1 0.02838883313965175 3.274329796961303 9.31980203664202 0 0 0
670 1 14.390035836653976 30.452606796607594 1.63692187592746 0 0 0
90 1 0.03332662005132647 15.975321029484476 2.949987032251851 0 0 0
1088 1 9.521621776037371 9.716063788215747 25.332010527637873 0 0 0
189 1 4.465233271483738 33.4450053420732 1.394409812865356 0 0 0
445 1 11.388929233211467 33.498931633894244 1.4941195420939206 0 0 0
701 1 17.77233524597553 33.24146343554587 1.8304692857743445 0 0 0
351 1 6.2849481422111655 12.675001939130752 0.2769792038385851 0 0 0
190 1 1.0751996398044399 36.55185196780249 1.561161610762892 0 0 0
442 1 6.175582036121644 34.77536494760436 3.119461633328795 0 0 0
135 1 0.04518921290261346 25.455709185536044 19.055491793017644 0 0 0
446 1 8.059973650871768 35.960270498058335 1.251892560304108 0 0 0
473 1 9.457698049826165 38.05985643460801 3.0222259851254023 0 0 0
702 1 14.214613294259161 36.359087812722905 1.3864163578857882 0 0 0
698 1 12.768030244808275 35.10993517475363 3.4004558161887717 0 0 0
221 1 4.561646105591962 39.57065058641227 1.5338219067577834 0 0 0
474 1 6.031630199393322 41.25866133583119 3.041903890435429 0 0 0
477 1 11.093518564860897 39.76285004054854 1.5799115963239647 0 0 0
729 1 15.986279404344089 38.1406588280597 2.7494189816894408 0 0 0
733 1 17.669522505398486 39.85615940257462 1.5537501393471016 0 0 0
222 1 1.5037539928379846 43.02333250786235 1.4383401070331328 0 0 0
103 1 -0.02944988602503429 19.362154633120365 18.894960816404318 0 0 0
478 1 7.950768171622375 42.939048055413224 1.5598417052233946 0 0 0
734 1 14.327375776065338 42.927694847453054 1.301567741045352 0 0 0
320 1 8.952331829593668 9.686397993021268 0.05966419125317966 0 0 0
1056 1 9.686532870717127 2.9261385747699644 25.37595384044147 0 0 0
249 1 3.0229959580413692 44.43648317232724 3.3574498800464294 0 0 0
253 1 4.961389374513435 45.666867132307445 1.803814390011739 0 0 0
505 1 9.674062524691175 44.5918680914983 3.1470815815547337 0 0 0
509 1 11.072489795552238 46.34324270899998 1.4915753422539744 0 0 0
765 1 17.21524275082717 46.26953091595776 1.5086909727254083 0 0 0
254 1 1.4354228590719875 49.33931313297545 1.3951756604525742 0 0 0
506 1 6.617722443892989 47.667856667137784 3.366762749173386 0 0 0
510 1 8.033260879133199 49.559948219273906 1.6431411066917962 0 0 0
895 1 0.051411795004423264 19.295437383952333 25.291498288841854 0 0 0
766 1 14.025777077042498 49.539134883082085 1.5487049175942238 0 0 0
27 1 1.0745620556481912 1.247699036431939 4.419037072665542 0 0 0
24 1 2.9390991245090112 2.6022200329785914 6.24948025781629 0 0 0
281 1 9.560263386515373 50.85589218078425 3.4988148028641968 0 -1 0
283 1 7.799235274710181 1.286101067946066 4.946280581456139 0 0 0
539 1 14.088599250674825 1.3234619642275915 4.6656902975669805 0 0 0
537 1 15.724496810626212 50.77343218840854 3.1092843909067986 0 -1 0
160 1 2.8877372562340162 28.634774571876594 0.2667192644552685 0 0 0
28 1 4.530155715998139 4.468920791142225 4.810107219358952 0 0 0
284 1 10.960077651043145 4.534321819206765 4.707835616267263 0 0 0
538 1 12.589996414423696 3.2835419599320605 3.2075994492541944 0 0 0
569 1 15.974491645419779 6.089963652155215 3.06324895504336 0 0 0
540 1 17.549320891045312 4.637626600863198 4.98136274788267 0 0 0
186 1 0.1444667800434445 34.85349656469627 3.491526985510948 0 0 0
59 1 1.6485437390662385 7.828216210716938 4.474150377027414 0 0 0
56 1 3.148598454230971 9.173590203174008 6.297610599668435 0 0 0
315 1 8.279494064167599 7.745358699456655 4.806656075278711 0 0 0
312 1 9.730767183954177 9.270569233949075 6.515997500339315 0 0 0
571 1 14.568804992150513 7.830549454835804 4.694675153579186 0 0 0
60 1 4.815498892647634 11.075477851894934 4.820757181599682 0 0 0
316 1 11.434862443189681 10.820841669028697 4.936523468499049 0 0 0
599 1 12.698575254214623 13.007468493033414 6.322471121522701 0 0 0
572 1 17.488978510079193 11.129334188824409 4.914417325760683 0 0 0
1535 1 12.630503947760898 44.756312856134 25.1859015755963 0 0 0
91 1 1.4012305369570828 14.370058173061905 4.3981133662607945 0 0 0
50 1 0.32026986440047267 9.635429779390835 9.210300305087518 0 0 0
89 1 3.0071168980709206 12.610644552394051 3.1257083573393194 0 0 0
347 1 8.334987171405027 14.524417725051672 4.554055689270718 0 0 0
601 1 15.849325493976513 12.492032814285936 3.3489330437578007 0 0 0
603 1 14.50369907741882 14.602712081019323 4.597465382596264 0 0 0
199 1 0.15705512810023808 38.640436758431534 19.221917202389054 0 0 0
92 1 4.758126254122467 17.69215806154456 4.433214456289614 0 0 0
88 1 3.230178879163398 15.95212561426165 6.069468736972424 0 0 0
344 1 9.539922966632785 15.889118065771818 6.2824618117457645 0 0 0
348 1 10.98564112935201 17.627100636268295 4.648309615983064 0 0 0
600 1 16.08580129118661 15.811905341674121 6.452053415745238 0 0 0
604 1 17.662220537929773 17.468144844610947 5.063559074255703 0 0 0
123 1 1.2326744108230727 20.58738292129165 4.743072155702292 0 0 0
379 1 7.734008375699906 20.882071388938297 4.759386113782323 0 0 0
378 1 5.821146618046471 22.304375210732953 3.13463865987941 0 0 0
376 1 9.67007550051176 22.38906434122039 5.904731670879769 0 0 0
635 1 14.409449130227458 20.500424091838646 4.567716594791852 0 0 0
633 1 16.10601359098906 18.73778789018514 3.417317999794264 0 0 0
124 1 4.4693093732615585 23.850830355242376 4.799157895018138 0 0 0
120 1 2.895733810402654 22.253426313458885 6.457960168987999 0 0 0
409 1 9.718642437464474 25.723426177921205 3.1606357189407652 0 0 0
634 1 12.748831906451342 22.239361306029465 3.276594225659891 0 0 0
380 1 11.08391848064134 24.063677505753127 4.534221180630584 0 0 0
663 1 12.595397718261067 25.474174875040465 6.531257221725087 0 0 0
632 1 15.751501804630484 21.841317897579245 6.46973138032309 0 0 0
636 1 17.16636145279137 23.731919108530317 5.112861351699726 0 0 0
153 1 3.1447792166322492 25.34152476658052 2.9439396334600594 0 0 0
155 1 1.4590566692032512 26.663429199279538 4.918491940263843 0 0 0
411 1 8.442913854816737 27.536018277271975 4.7019035606826955 0 0 0
665 1 16.164833507461875 25.390865582045812 3.196173322991301 0 0 0
667 1 14.115055604085628 26.719097733685565 4.806703627099975 0 0 0
156 1 4.764812165367349 30.288404839557682 5.131772455439247 0 0 0
412 1 11.442295746618548 30.3916130291407 4.939924304906431 0 0 0
441 1 9.779007247960052 31.924757434003357 3.2390656682481582 0 0 0
666 1 12.89498212635146 28.617555106644275 3.26061368617691 0 0 0
668 1 17.27328591606512 29.841846961709738 4.501728149944862 0 0 0
697 1 15.788255514820348 31.929359443278084 3.1591941216900112 0 0 0
187 1 1.3564753659961906 32.94372328529252 4.634829771445802 0 0 0
439 1 6.6636479400076425 32.08263690457092 6.4303832047676295 0 0 0
443 1 8.153655050050991 33.61514558607003 4.664379785059544 0 0 0
699 1 14.66432707842236 33.653899230528864 4.961664855061958 0 0 0
696 1 16.19915228069287 35.09455812463953 6.642326805918667 0 0 0
188 1 4.955814873822505 36.453830002727486 4.682373772889112 0 0 0
471 1 6.381481168495831 38.36893138092455 6.166333607571941 0 0 0
444 1 11.411298148795606 36.93014857436472 4.772374593260025 0 0 0
700 1 17.474590685579347 36.76109768255344 4.725347886336418 0 0 0
217 1 3.307475580277621 37.911212368015455 3.1654978197640604 0 0 0
219 1 1.4256006176143068 39.6770242124835 4.911133818668772 0 0 0
475 1 7.915300003145843 39.83369803025805 4.470323829881576 0 0 0
731 1 14.455248433855115 39.881191043327746 4.631690208606459 0 0 0
739 1 14.38466572653007 46.18342383675254 23.727382146181334 0 0 0
220 1 4.627585768874904 42.70837474015282 4.735141256521363 0 0 0
472 1 9.68616771713202 41.30234762199615 6.122578345860002 0 0 0
503 1 6.3537474046775095 44.28500088210413 6.125885165982649 0 0 0
730 1 13.02120775183953 41.38378365970023 3.15662644935144 0 0 0
476 1 11.479763239871724 42.97901534430534 4.6120232793167615 0 0 0
732 1 17.50875822399959 43.20946955735771 4.8645872471722535 0 0 0
251 1 1.4925760218832806 46.043089639201355 4.927531159045335 0 0 0
507 1 8.115305280784076 46.16793785941715 4.714969686540689 0 0 0
759 1 13.056237714339384 44.55147115991781 6.559724413903613 0 0 0
763 1 14.27928505910681 46.43028578731614 4.683216629288878 0 0 0
761 1 15.839132503316508 44.59027062821403 2.9983039166843652 0 0 0
760 1 15.8597927841693 47.89718348996833 6.270831773016554 0 0 0
175 1 -0.032299676263429666 31.740586832019304 12.771391837076777 0 0 0
252 1 4.697582167688273 49.07310864596117 5.129301484285801 0 0 0
762 1 12.577130196495606 47.91153738255777 3.230871467950915 0 0 0
508 1 11.401524429116822 49.28112025847561 5.205565541503693 0 0 0
764 1 17.366863516975894 49.3380412888239 4.588020077831877 0 0 0
21 1 4.3951629090922095 1.192397031491701 8.045919471083185 0 0 0
274 1 5.942910780433104 3.012503469270358 9.339873633774538 0 0 0
277 1 11.049731613991835 1.3811178804791095 8.293564640706935 0 0 0
273 1 9.213391282529258 50.625381010040456 9.810178772526253 0 -1 0
536 1 15.98254892935206 2.927059988173205 6.181122006580672 0 0 0
533 1 17.162711440554865 1.1409521813796464 7.935118869938467 0 0 0
22 1 1.6550697413641762 4.555118589536625 7.613750389552124 0 0 0
49 1 3.072687320381009 6.207828175545469 9.315332602939046 0 0 0
278 1 7.841870074917505 4.453414133674933 8.069876583066483 0 0 0
280 1 9.534090596705019 3.031961250010133 6.453312574452367 0 0 0
534 1 14.626028851706291 4.8036759686528585 8.034153827381292 0 0 0
53 1 4.97421587140113 7.745131924822341 7.930919961170104 0 0 0
311 1 6.628556096879667 6.2457365027815985 6.382436740615477 0 0 0
306 1 6.641535180425522 9.612481961529816 9.331045002194445 0 0 0
309 1 11.188007032071226 7.6903447190754655 8.023317334051281 0 0 0
305 1 9.523439529069577 6.0826699777385755 9.724347103806853 0 0 0
567 1 12.746393081917693 6.292863152712578 6.36708150233007 0 0 0
568 1 15.959446104705759 9.551321720116979 6.400030246792152 0 0 0
565 1 17.610934927915306 8.27965857527376 8.280906835046762 0 0 0
54 1 1.5451480389402028 11.235993673093493 7.581038506615062 0 0 0
130 1 0.04951976247547124 28.296418923692006 22.013989632534585 0 0 0
310 1 8.073331464515368 11.257181169339052 7.610398947454529 0 0 0
566 1 14.277238600476819 11.010099047972162 7.873577738087931 0 0 0
562 1 13.002241424368146 9.302810527050685 9.418330156139287 0 0 0
343 1 6.340716578219513 12.856437832855082 6.047370471593806 0 0 0
85 1 4.674093120490733 14.163103526504825 7.757108683477769 0 0 0
81 1 2.926593559628608 12.795349852291823 9.383492542426644 0 0 0
341 1 10.909153394077055 13.9963071569609 7.823908829063529 0 0 0
594 1 12.451967422740728 15.557908883290267 9.464405163910167 0 0 0
597 1 16.924761049227836 14.082619017348666 8.35104079051137 0 0 0
234 1 0.0997107144467354 47.97942189102423 16.052126984620497 0 0 0
167 1 0.19396697550892927 32.072453041354905 19.36473171167952 0 0 0
86 1 1.440331901594919 17.62860486374174 7.7421743436243915 0 0 0
342 1 8.035275955772951 17.76195478751178 7.938772541663681 0 0 0
369 1 9.587408907130065 19.158423353133784 9.74818706160662 0 0 0
598 1 14.156170495343504 17.3236116333688 7.936113915989457 0 0 0
375 1 6.384073680217694 19.165241832531002 6.2443932792990395 0 0 0
117 1 4.717369641122399 20.93007822988498 8.002584917897043 0 0 0
373 1 11.240192174211066 20.878014865187506 8.094839449030017 0 0 0
631 1 12.64776870914771 19.009958441839345 6.395066707274295 0 0 0
629 1 17.431101065897312 20.321587807471005 8.174610921886176 0 0 0
154 1 0.1244086581519781 28.428000682057373 3.0803527578279186 0 0 0
191 1 0.030859562037733212 32.07041617366674 0.12390420095780522 0 0 0
118 1 1.358037528347154 23.788431370041902 8.265242182851047 0 0 0
374 1 7.7651474758864785 23.77156484483185 7.352959314540466 0 0 0
630 1 14.143290514417444 23.679756749277114 8.086826674809474 0 0 0
657 1 15.630710084900747 25.165226981261757 9.53863245324321 0 0 0
149 1 4.957626733085168 26.949788051643246 7.679359314124754 0 0 0
408 1 9.995324346502354 28.888188328654252 6.727605253459017 0 0 0
407 1 6.566277213879379 25.575805967995567 5.8980132794579205 0 0 0
401 1 9.282946772463857 25.238262580149836 9.486285875748608 0 0 0
405 1 11.143953079266542 26.9059357602364 8.197031651042247 0 0 0
661 1 17.394521627059376 26.564258785701856 7.995835236878884 0 0 0
152 1 3.0074602863281124 28.5031998981897 6.400064555865768 0 0 0
150 1 1.369844738701403 30.257505258304597 8.014762673871463 0 0 0
406 1 8.062425706444506 30.218911187306126 8.020659542003491 0 0 0
433 1 9.521861787316272 31.537169303554784 10.047606940993596 0 0 0
658 1 12.872437852136144 28.25440497665155 9.572676627111733 0 0 0
695 1 12.742089858147704 31.97419754986503 6.587559939848712 0 0 0
662 1 14.608690238770102 29.790733686233345 8.104758407403805 0 0 0
664 1 15.879499039643672 28.20128373470339 6.371616666903895 0 0 0
689 1 15.815783579894596 31.91089142583536 9.44706673587401 0 0 0
159 1 0.03464518152456719 25.101056443860607 -0.04181310098909259 0 0 0
177 1 2.9603955021653765 32.19321816803293 9.517444429828847 0 0 0
181 1 4.884721259745306 33.5569592652008 8.154724644829193 0 0 0
440 1 9.822327843959613 35.110183415997525 6.290462096795708 0 0 0
437 1 10.834835017852532 33.18431362348255 8.018031380233294 0 0 0
693 1 17.640867129566374 33.50695936114106 8.259409211999955 0 0 0
576 1 15.648035900514172 9.081404443381022 0.06835506655236911 0 0 0
182 1 1.7873126653130547 36.191015749327576 8.009542397639294 0 0 0
184 1 3.1363065120010907 34.45605363514217 6.224670380052352 0 0 0
438 1 7.986747848223729 36.87888390627458 7.916306035752167 0 0 0
694 1 14.521550747475512 36.5671824793161 8.185533137182384 0 0 0
1626 1 18.951377790853186 16.043845210542184 3.069995612523334 0 0 0
213 1 4.622339158381754 39.706873322068745 7.898501946510035 0 0 0
727 1 13.067649032119604 38.44797692683419 6.360890993542871 0 0 0
469 1 11.369075991763468 39.93114920282888 7.842687838313892 0 0 0
721 1 16.309858753484104 38.01553601775345 9.629207913366587 0 0 0
725 1 17.497108652623815 39.64347898139583 7.700400821886265 0 0 0
214 1 1.5216342880699132 42.840486875897795 8.112112949314554 0 0 0
216 1 3.023268244016317 41.15880046050442 6.476639030655266 0 0 0
470 1 8.100756928512714 43.051186952059965 7.893461893576007 0 0 0
722 1 12.855010967602912 41.34927738115083 9.517985097460166 0 0 0
726 1 14.757671342236817 42.84992941357871 8.114750099283826 0 0 0
728 1 15.904562582359553 41.58809591512065 6.3103515726852475 0 0 0
241 1 3.0159579285600335 44.56263766949968 9.481768235754462 0 0 0
245 1 4.850547345839146 45.870321504885524 7.956463610108104 0 0 0
504 1 9.621909577951703 47.834598718137514 6.599149159401466 0 0 0
501 1 11.105487712858613 46.03977846080123 7.982690484877592 0 0 0
757 1 17.33657695440448 46.26627703413219 8.001511507821254 0 0 0
246 1 1.2446644276079406 49.59987827805111 8.17372035843882 0 0 0
248 1 3.076063746684099 47.62661239588472 6.730501173558093 0 0 0
17 1 2.9940838029404255 0.0568585714735832 9.98249447508888 0 0 0
279 1 6.183902566265557 50.908290524370244 6.431122105548424 0 -1 0
502 1 7.7678517116586665 49.1108866048278 8.059533740327247 0 0 0
535 1 12.690556330310875 50.800932835407636 6.775554396489237 0 -1 0
758 1 14.058210590481734 48.95587567697771 8.03242313698571 0 0 0
19 1 1.295990840453469 1.7051825058752734 11.242800204413479 0 0 0
483 1 7.8691913537763885 45.858096282708445 23.864510082958635 0 0 0
275 1 7.657852307079787 1.3953522047083278 11.038009245850514 0 0 0
272 1 9.49771920212385 3.077641009884974 12.618300980466618 0 0 0
530 1 12.686294169189996 3.210769821225308 9.372027210795968 0 0 0
531 1 14.394708983263538 1.4146788970248898 10.96184945652531 0 0 0
527 1 12.496553307706545 0.007387938809673644 12.681873925376337 0 0 0
20 1 4.680550718920686 4.939301051150993 10.900717291225547 0 0 0
276 1 11.308561932515632 4.533062613415175 11.103913692749902 0 0 0
559 1 13.09087457674781 6.2712148808734955 12.71940984368715 0 0 0
561 1 16.207907095714702 6.392337041093096 9.783549709040068 0 0 0
532 1 17.964505541696226 4.562145905703043 11.025391411195285 0 0 0
51 1 1.6440860793609298 7.946797069973693 10.941978211345903 0 0 0
48 1 3.132802192842999 9.582799783847195 12.522064320279124 0 0 0
307 1 8.104165959146437 7.834011840784776 11.130603677072655 0 0 0
563 1 14.348575455153771 7.8084109278626395 11.067650654157434 0 0 0
480 1 9.29585019044174 41.06597409097938 0.18274284737280536 0 0 0
1440 1 15.86400483204726 28.731483088875265 25.339075662995494 0 0 0
52 1 4.807255358057361 11.049398972462733 10.751778819602169 0 0 0
308 1 11.424117436944892 10.854124271191713 10.889835854902177 0 0 0
304 1 10.059543189247586 9.152039094771387 12.513288830385545 0 0 0
564 1 17.470846708599254 11.17092486322893 11.76814673973841 0 0 0
83 1 1.2767544762896672 14.245493340841449 10.919421194091246 0 0 0
339 1 8.147670641216296 14.341804923842302 11.20031341011934 0 0 0
336 1 9.50201728324584 15.776113522494542 12.792592312283576 0 0 0
337 1 9.78988439701834 12.47089932008399 9.416716365151103 0 0 0
593 1 15.673337723926625 12.43780828232764 9.700365536963 0 0 0
595 1 14.297528470777634 14.196358034893164 11.31304010316694 0 0 0
113 1 3.2230583025075568 19.08656858407038 9.355083634833449 0 0 0
1754 1 19.04673433267363 41.50144688037396 3.3522262922688215 0 0 0
84 1 4.433972752604724 17.363461647575903 11.08492136946616 0 0 0
338 1 6.549294286823912 15.836711906258866 9.261592379619707 0 0 0
340 1 11.141771872264004 17.28481758486422 11.14332418909264 0 0 0
623 1 12.972873120170327 18.676720576884783 12.608851655241114 0 0 0
596 1 17.594609630024948 17.12860937505271 11.491436042290813 0 0 0
625 1 15.924462815333563 18.61045959362914 9.781940861087023 0 0 0
115 1 1.455194057233027 20.451164713105637 11.043946162243797 0 0 0
367 1 6.277762684668939 19.21994488548262 12.70889538626291 0 0 0
371 1 8.250208771123791 20.594512455117943 11.443815246682657 0 0 0
627 1 14.584739841291208 20.587886103012682 11.16889218350755 0 0 0
116 1 4.719351972894707 23.28890852043184 11.36935434254627 0 0 0
370 1 6.669803445943222 22.05432587370201 9.534869616337753 0 0 0
368 1 9.51282662746567 22.375939928710576 12.90747074974026 0 0 0
372 1 10.992268484964734 24.002593769923497 11.453515374376707 0 0 0
626 1 12.581505607936657 22.462401225626127 9.885373770289448 0 0 0
628 1 17.684300934418395 23.77519989067577 10.998510210872084 0 0 0
145 1 3.32481276984183 25.335581433253186 9.479371622373813 0 0 0
147 1 1.508515307744542 26.818892073109737 10.928037688179668 0 0 0
403 1 8.1728467667217 27.103090989949177 11.595036950285479 0 0 0
659 1 14.347554288315349 26.925053508812173 11.074264268574177 0 0 0
655 1 12.924255320976314 25.262300697747218 12.73471758388124 0 0 0
225 1 3.2718399723614446 44.570942997925115 21.88220864824185 0 0 0
148 1 4.474568794849937 30.201899340499892 11.232643895652823 0 0 0
402 1 6.373154049329741 28.888427394589904 9.670959903933287 0 0 0
431 1 6.349900321728767 31.89906684115506 12.519566962599098 0 0 0
404 1 11.467398462985686 30.056541306924586 11.102415518649776 0 0 0
400 1 10.048093339521149 28.8237103165338 12.929978663805615 0 0 0
660 1 17.34956747221108 30.114562038617596 10.819489676058662 0 0 0
1216 1 9.603280012490071 35.23459450508045 25.408655478175227 0 0 0
179 1 1.4675742348848384 33.653433280928965 11.178179160543916 0 0 0
435 1 8.057828109716294 33.578594665928364 11.14789134076667 0 0 0
691 1 14.657817902974006 33.59883734816118 11.199262143974126 0 0 0
690 1 12.79398231680881 34.85439852504608 9.499854952134447 0 0 0
687 1 13.102005602289658 31.818521739976624 12.575382513421001 0 0 0
1647 1 18.983371366838764 19.045328111141846 12.804753381766336 0 0 0
176 1 3.1678627225272766 34.65475736822377 12.891095278024011 0 0 0
180 1 4.731422626252932 36.63317641948001 11.516137269601124 0 0 0
434 1 6.502891233450562 35.40633108546281 9.627662816567605 0 0 0
436 1 11.200447076457396 36.474642353151 11.011741065772584 0 0 0
465 1 9.720747240502165 38.253724113609536 9.378687695850232 0 0 0
692 1 17.774009473986528 36.619914154646466 11.361895516728978 0 0 0
688 1 16.218899164512976 35.09530105224738 12.96466574071601 0 0 0
211 1 1.6514576458241295 39.526302286663224 11.13378517881903 0 0 0
672 1 15.820146165143345 28.592058999514396 -0.0029712701706499436 0 0 0
209 1 2.9320351419028827 38.00353145942911 9.67151927856569 0 0 0
466 1 6.088418506485752 41.347149515312466 9.487428727646462 0 0 0
467 1 7.991951837562107 39.9097561639977 10.972117251896712 0 0 0
719 1 12.26932809147684 38.55629919011827 12.375924696071527 0 0 0
723 1 14.408393072669245 39.782234311725816 11.15493497393613 0 0 0
1623 1 18.864270443712964 12.74914910867021 6.755888613204208 0 0 0
208 1 3.019270813603884 41.13817331772502 12.965833869213604 0 0 0
212 1 4.419658592995753 42.66008897118412 11.19245909307518 0 0 0
497 1 9.650572029757027 44.392027155226685 9.73622795735985 0 0 0
468 1 11.416087450484508 42.753378823279775 11.258220194236268 0 0 0
464 1 9.607322267151298 41.41337630234483 12.810822819700949 0 0 0
720 1 15.907900537840629 41.45069612570417 12.701746284035458 0 0 0
724 1 17.73889199749056 42.730253517272374 10.92918491376893 0 0 0
243 1 1.3903432074903674 46.219930346180334 11.049386654706414 0 0 0
240 1 2.6562902755609965 47.86746062785487 12.881085564340749 0 0 0
499 1 7.7884525181541315 45.813173271531 11.381915678779137 0 0 0
498 1 6.177513950395993 47.451896019285854 9.987926164719054 0 0 0
496 1 9.299866831350762 47.68622243221894 12.482253851691532 0 0 0
755 1 14.032950627706075 46.00088416710206 11.093719608534116 0 0 0
751 1 12.45911386850778 44.808329962668665 13.06194763100427 0 0 0
753 1 16.218663830591968 44.627865107368436 9.73795545794049 0 0 0
244 1 4.756404666901445 49.28184474561 11.37475693862757 0 0 0
271 1 6.378191234727672 50.745157714353994 12.761367134988685 0 -1 0
500 1 10.991784823753083 49.20747695263532 11.207451645326007 0 0 0
754 1 12.341592135887943 47.52286173081592 9.816260204583653 0 0 0
529 1 15.64054234197414 50.51470658032183 9.456775189829221 0 -1 0
756 1 17.061520909246532 49.20152930754709 11.246913305401378 0 0 0
13 1 5.034073430203104 1.7804611600349458 14.0026488005442 0 0 0
269 1 11.103731916919669 1.657016748325187 14.349863856487493 0 0 0
265 1 9.760351278977174 50.68351283281747 15.944948343895643 0 -1 0
525 1 17.313114558113828 1.7292462594966687 14.166165751498532 0 0 0
14 1 1.513198943196569 4.7432752863698555 14.224457655798389 0 0 0
16 1 3.2004925687523906 3.206594306515269 12.620099956797896 0 0 0
41 1 3.039373171315091 6.271877067040848 15.940371813615847 0 0 0
270 1 7.891840872075909 4.876588818463294 14.120146413668722 0 0 0
303 1 6.384037030261832 6.453286181753849 12.604641080653792 0 0 0
526 1 14.577577134399979 4.35467043113173 14.244649486268145 0 0 0
528 1 16.038716028408835 3.0977341927766213 12.248127736560438 0 0 0
1567 1 18.88614267148822 0.10214635079198331 0.38210893123820056 0 0 0
45 1 4.6662322772257445 7.870507101128466 14.201980345743456 0 0 0
301 1 11.241461074356144 7.5383717892402595 14.723973403566823 0 0 0
557 1 17.485682139403558 7.760198492002459 14.536834089303108 0 0 0
560 1 15.814074272617496 9.293276776527984 12.990619684513256 0 0 0
46 1 1.3956789356418975 10.96871197826806 14.025443393585432 0 0 0
302 1 7.932007119059902 11.018840015562589 13.979057994220515 0 0 0
298 1 6.534590905448436 9.19106954533344 15.590991507880284 0 0 0
591 1 12.706976864385698 12.317968644740914 12.875110059402605 0 0 0
558 1 14.305239952375086 11.014533050590765 14.65921627066074 0 0 0
585 1 16.008187607495337 12.517875349305836 16.11469447567045 0 0 0
335 1 6.544136162899197 12.719774372338238 12.393779327812867 0 0 0
77 1 4.916036000278511 14.10698148976365 14.30157748466071 0 0 0
73 1 3.006638096774268 12.585384113273102 15.701167584733005 0 0 0
333 1 11.064585549717846 13.97247027981663 14.520968233376252 0 0 0
586 1 12.901180857528127 15.68807525103338 16.048104116302877 0 0 0
589 1 17.671276461754093 14.315397840215507 14.396967592596992 0 0 0
639 1 12.389508327184252 18.790463282165778 -0.024767308945363265 0 0 0
78 1 1.4964505613427341 17.623938095456804 14.354177832398909 0 0 0
105 1 3.1539756924003597 19.183267770182635 16.153618411221426 0 0 0
80 1 3.100949225159974 15.563798501087515 12.82169547904244 0 0 0
334 1 7.766778669556571 17.447278811377913 14.317690290583323 0 0 0
590 1 14.646766511126836 17.236031099571385 14.351065735703425 0 0 0
592 1 16.046525098411337 15.533901654122841 12.894362608704775 0 0 0
109 1 4.641287063104823 20.469349205604452 14.41093507943953 0 0 0
362 1 6.59416468641216 21.865801818312967 15.946834564086592 0 0 0
361 1 9.829423911838328 18.775654046172612 16.003377326196524 0 0 0
365 1 11.175445211347682 20.68969645693042 14.378824871791048 0 0 0
621 1 17.50770645718777 20.47252296690311 14.392149414110875 0 0 0
617 1 15.84296478999037 19.07493061743471 15.899605376021183 0 0 0
227 1 1.7344078214058765 46.11001258899873 23.639863113948987 0 0 0
110 1 1.3092613526765682 23.91664920052783 13.789993453235613 0 0 0
112 1 2.9832016350075055 22.03732725604023 12.88380707463331 0 0 0
399 1 6.334309742822103 25.391980946954757 12.64848906309926 0 0 0
366 1 7.8316021575407255 24.013432040663517 14.500989228026796 0 0 0
618 1 12.573479464476275 21.883587522732448 16.42467259822286 0 0 0
624 1 16.074736421086953 22.43360726348942 12.796219987688684 0 0 0
622 1 14.00685882036757 23.430805577254173 14.46636073087584 0 0 0
708 1 17.598405362207448 43.44371745046419 23.667461800507354 0 0 0
144 1 2.7719697172688096 28.513967317356226 12.659818675484017 0 0 0
141 1 4.867046351547448 27.15276693855023 14.118065105842343 0 0 0
393 1 9.568115539263356 25.15094843110105 16.04315811611788 0 0 0
397 1 11.218388439182819 26.76055372742738 14.408550571257576 0 0 0
656 1 16.075933830155094 28.51927512497703 12.719447263109954 0 0 0