
# Define the lattice
#
variable	    lattice_constant equal 6.36339
lattice		    diamond ${lattice_constant} orient x 0 0 1 orient y 0 1 0 orient z -1 0 0
lattice		    diamond 6.36339 orient x 0 0 1 orient y 0 1 0 orient z -1 0 0
Lattice spacing in x,y,z = 6.3633900 6.3633900 6.3633900

# Define region
# multiples of lattice spacing
#
region 		    simbox block 0 9 0 8 0 8

# Create Atoms
#
create_box          1 simbox
Created orthogonal box = (0.0000000 0.0000000 0.0000000) to (57.270510 50.907120 50.907120)
  3 by 1 by 2 MPI processor grid
create_atoms        1 box
Created 4608 atoms
  create_atoms CPU = 0.002 seconds
mass                1 18.015

# Define potential
#
pair_style          sw
pair_coeff          * * /data/emrosky-sim/Freezing_Simulations/Melting/MLmW_fancy/ML_mW.sw mW
Reading sw potential file /data/emrosky-sim/Freezing_Simulations/Melting/MLmW_fancy/ML_mW.sw with DATE: 2019-02-27

# Add velocity/set timestep
#
velocity            all create ${TEMP} 120598 rot yes dist gaussian
velocity            all create 289 120598 rot yes dist gaussian
timestep            5.0

# Define output
#
compute	            1 all msd
thermo              100
thermo_style        custom step temp press vol etotal ke pe c_1[4]

# Neighbor lists
#
neigh_modify        delay 0 every 1 check yes

# Set fixes
#
fix                 1 all momentum 10 linear 1 1 1 rescale
fix                 2 all nve
fix                 3 all temp/csvr ${TEMP} ${TEMP} 500.0 928347
fix                 3 all temp/csvr 289 ${TEMP} 500.0 928347
fix                 3 all temp/csvr 289 289 500.0 928347
fix                 4 all press/berendsen iso ${PRES} ${PRES} 1000.0 modulus 20000
fix                 4 all press/berendsen iso -500 ${PRES} 1000.0 modulus 20000
fix                 4 all press/berendsen iso -500 -500 1000.0 modulus 20000

# Run 0.5 ns equilibration
#
dump		    1 all custom 1000 eq.${NAME}.dump id type x y z vx vy vz
dump		    1 all custom 1000 eq.ice_289K_-500atm_ML.dump id type x y z vx vy vz
run                 100000
Neighbor list info ...
  update every 1 steps, delay 0 steps, check yes
  max neighbors/atom: 2000, page size: 100000
  master list distance cutoff = 6.0032907
  ghost atom cutoff = 6.0032907
  binsize = 3.0016454, bins = 20 17 17
  1 neighbor lists, perpetual/occasional/extra = 1 0 0
  (1) pair sw, perpetual
      attributes: full, newton on
      pair build: full/bin/atomonly
      stencil: full/bin/3d
      bin: standard
Per MPI rank memory allocation (min/avg/max) = 4.779 | 4.779 | 4.779 Mbytes
Step Temp Press Volume TotEng KinEng PotEng c_1[4] 
       0          289   -639.94366    148418.52   -51928.465    3968.7191   -55897.184            0 
     100    196.31358   -357.51603    148296.93   -50313.403    2695.8943   -53009.298   0.10002627 
     200    224.55826   -411.56347    148594.69   -49351.933    3083.7669     -52435.7   0.11463133 
     300    241.81283   -464.99826    148773.46   -48740.969    3320.7169   -52061.686   0.14381497 
     400    263.19481   -456.83219    148906.27   -48339.099     3614.347   -51953.446   0.14468017 
     500    280.50464   -433.52816    149026.64   -48051.743    3852.0557   -51903.799   0.13619772 
     600    285.14996    -474.9984    149117.06   -47781.845     3915.848   -51697.693   0.15343358 
     700    289.90306    -513.9834    149167.06   -47731.711    3981.1204   -51712.832   0.14422962 
     800    287.94912   -514.51839    149166.63   -47633.543    3954.2877    -51587.83   0.15397153 
     900    285.97369   -504.77764    149177.59   -47610.157    3927.1599   -51537.317   0.16632828 
    1000    286.64238   -476.74717    149154.95   -47660.762    3936.3428   -51597.105   0.14568508 
    1100    290.74917   -498.52736    149171.95   -47607.618    3992.7398   -51600.358   0.15375079 
    1200    293.71649   -453.79275    149178.99   -47604.014    4033.4888   -51637.503   0.15049268 
    1300    286.90416     -595.975    149203.86   -47529.816    3939.9378   -51469.754   0.16563035 
    1400    280.75774   -499.95324    149193.54   -47621.352    3855.5315   -51476.883   0.16157943 
    1500    284.82676   -528.56224    149185.97   -47655.482    3911.4096   -51566.891   0.14942884 
    1600     289.6965   -462.64781    149166.19   -47585.996    3978.2838    -51564.28    0.1590122 
    1700    285.07527   -525.43597    149172.52   -47610.465    3914.8223   -51525.288   0.15342807 
    1800     284.9186   -496.80809    149159.03   -47603.105    3912.6708   -51515.775   0.16487281 
    1900    284.12683   -507.93348    149179.73   -47517.999    3901.7979   -51419.797   0.16091258 
    2000    294.22572   -473.46031    149207.54    -47466.95    4040.4818   -51507.432   0.15245264 
    2100    282.62015   -538.47019    149190.02   -47634.385    3881.1072   -51515.492   0.16345899 
    2200    284.06996   -499.67368    149178.65   -47564.269    3901.0168   -51465.286   0.15044746 
    2300    295.43025   -505.99944    149180.47    -47500.91    4057.0231   -51557.933   0.16988279 
    2400     290.5548   -521.94466    149177.65   -47526.781    3990.0705   -51516.852   0.16486054 
    2500    290.06501   -503.24087    149207.92   -47580.343    3983.3444   -51563.687    0.1484405 
    2600    287.39147   -533.86915    149183.48   -47609.825    3946.6298   -51556.455   0.16805591 
    2700    293.97144   -453.27734    149187.07   -47581.787    4036.9898   -51618.777   0.14042559 
    2800     288.7662   -483.47671    149170.94   -47476.472    3965.5083    -51441.98   0.16941556 
    2900    292.66808   -478.03012    149203.68   -47498.941    4019.0914   -51518.033    0.1593975 
    3000    286.52101    -493.1108    149189.32   -47557.742    3934.6762   -51492.418   0.16188331 
    3100    292.27895   -482.65668    149198.04   -47531.808    4013.7476   -51545.556   0.15589092 
    3200    291.18417   -487.60807    149193.61   -47643.619    3998.7134   -51642.332   0.14698374 
    3300    288.42103   -482.40546    149131.26    -47699.55    3960.7683   -51660.319   0.14812323 
    3400     288.4982   -549.92749    149156.56   -47637.149     3961.828   -51598.977   0.15500113 
    3500    288.16508   -462.53675    149144.77   -47599.541    3957.2534   -51556.794     0.159291 
    3600    284.82039   -514.49091    149148.05   -47601.692    3911.3222   -51513.014   0.16450692 
    3700    287.52666   -491.16466    149176.28   -47564.539    3948.4863   -51513.025   0.15739805 
    3800    289.45427   -516.91454    149180.41   -47558.399    3974.9573   -51533.357   0.16814693 
    3900    288.89568   -515.39362    149189.97   -47560.091    3967.2865   -51527.378   0.16011968 
    4000    288.49961   -465.61826     149166.2   -47598.539    3961.8474   -51560.387   0.15711548 
    4100    286.71615   -504.61425     149177.2   -47618.895    3937.3559    -51556.25   0.16202654 
    4200    287.61016   -517.43716    149198.82   -47579.887    3949.6329    -51529.52   0.14561546 
    4300    288.61561   -490.25531    149149.98   -47713.764    3963.4403   -51677.205   0.16200035 
    4400    290.36155     -495.201     149205.8   -47605.718    3987.4166   -51593.135   0.13997267 
    4500    286.92659   -544.61012    149192.73   -47666.015    3940.2458    -51606.26   0.16353218 
    4600    281.23778   -520.11286    149185.93   -47694.711    3862.1236   -51556.835   0.15428461 
    4700    291.51487    -492.4935     149189.9       -47596    4003.2547   -51599.255   0.15021618 
    4800     293.6876   -478.39885    149202.08   -47491.917     4033.092   -51525.009   0.15651917 
    4900    295.81001   -512.32942    149219.95   -47466.329    4062.2381   -51528.567   0.15608687 
    5000    287.72586   -547.68544    149196.44   -47595.785    3951.2218   -51547.007   0.16121512 
    5100    291.07575   -527.95438    149201.38   -47524.711    3997.2245   -51521.936   0.15805553 
    5200     286.9849    -536.8142    149216.89   -47597.238    3941.0465   -51538.285   0.16119784 
    5300    284.15468   -467.91597    149164.45   -47694.423    3902.1802   -51596.603   0.15338985 
    5400    286.60458   -508.25879    149170.87    -47667.17    3935.8237   -51602.993   0.14519119 
    5500    293.03037   -497.22982    149153.47   -47629.793    4024.0665   -51653.859    0.1542597 
    5600    287.23058   -477.43778    149150.66   -47663.808    3944.4203   -51608.229   0.15356369 
    5700    288.48686   -511.36672    149160.49   -47653.822    3961.6723   -51615.494   0.14984612 
    5800    288.63951   -516.18759    149153.86    -47592.21    3963.7686   -51555.978   0.16214631 
    5900    285.85027   -514.83211    149160.97   -47672.245     3925.465    -51597.71   0.14619091 
    6000    282.53102   -492.48851    149137.21   -47649.917    3879.8832     -51529.8    0.1637409 
    6100    284.35666   -497.53722       149126   -47716.937    3904.9539   -51621.891   0.14913984 
    6200    280.46144   -494.62065    149113.48   -47694.438    3851.4625     -51545.9   0.15910261 
    6300    288.82183   -492.11333    149171.94   -47579.903    3966.2724   -51546.175   0.16247742 
    6400    290.82371   -473.96158    149194.15   -47642.974    3993.7634   -51636.738   0.14452248 
    6500    291.01241   -467.44653    149175.54   -47655.166    3996.3546   -51651.521   0.15236249 
    6600    287.79054   -497.16334    149165.16   -47662.471      3952.11   -51614.581   0.14975032 
    6700    280.55494   -534.06432     149141.7   -47716.912    3852.7464   -51569.658   0.15875058 
    6800    284.11965   -509.85358    149146.42   -47668.972    3901.6992   -51570.672   0.16018435 
    6900    291.88492   -457.31258    149200.48   -47596.261    4008.3365   -51604.598    0.1488551 
    7000    289.52647   -497.44297    149187.95   -47592.713    3975.9489   -51568.662   0.16101193 
    7100    289.34013   -507.80088    149223.82   -47603.906    3973.3899   -51577.296   0.14032117 
    7200    285.90025   -528.54612    149172.09   -47714.296    3926.1514   -51640.447   0.15906438 
    7300    283.01794    -511.3804    149153.84   -47767.154    3886.5698   -51653.724   0.14625602 
    7400    286.94375   -465.52135    149185.49   -47657.659    3940.4814   -51598.141   0.15135084 
    7500    292.35229   -458.80031    149194.98   -47587.966    4014.7547   -51602.721   0.15096336 
    7600    292.67676   -472.26886    149205.49   -47559.339    4019.2105   -51578.549   0.14526969 
    7700    285.83568    -511.8537    149201.19    -47654.92    3925.2647   -51580.185   0.15985102 
    7800    288.21667   -506.96964    149176.65   -47718.451    3957.9619   -51676.413   0.14981588 
    7900    284.40522   -485.78278    149174.96   -47660.275    3905.6209   -51565.896   0.15314894 
    8000     289.3151   -481.57521    149195.53    -47559.73    3973.0462   -51532.776    0.1571985 
    8100    289.71264   -470.44454    149220.55   -47522.358    3978.5054   -51500.863   0.14813576 
    8200    287.27551    -470.0553    149195.06   -47541.704    3945.0374   -51486.741   0.15674784 
    8300     291.3881   -502.01032    149197.16   -47503.359    4001.5139   -51504.873   0.16602814 
    8400    291.01304   -486.62993    149232.82   -47480.324    3996.3633   -51476.687   0.15567415 
    8500    294.78456   -523.62778    149224.98   -47570.712    4048.1561   -51618.869   0.16210182 
    8600    293.81747    -494.9043    149249.98   -47583.869    4034.8754   -51618.744   0.13671806 
    8700    290.32709   -456.13095    149211.86   -47550.032    3986.9435   -51536.975   0.15974989 
    8800    292.67096   -506.07863    149226.18   -47596.906    4019.1309   -51616.037   0.14246753 
    8900    289.04601   -493.38835    149209.35   -47664.588     3969.351   -51633.939   0.15806304 
    9000     288.5909   -494.39877    149219.34   -47585.685    3963.1011   -51548.787   0.15263482 
    9100    286.81906   -534.24319    149219.68   -47643.132    3938.7692   -51581.901   0.15043142 
    9200    295.50827   -473.67095     149220.8   -47531.376    4058.0945   -51589.471    0.1559142 
    9300    288.34495   -515.53676    149214.42   -47682.763    3959.7235   -51642.486   0.14598592 
    9400    286.14507    -506.2204    149190.17   -47644.318    3929.5135   -51573.832    0.1575781 
    9500     289.0363   -485.05652    149209.82   -47692.489    3969.2175   -51661.707   0.14732223 
    9600    287.60862   -510.11904    149186.68   -47679.256    3949.6118   -51628.868   0.14894062 
    9700    288.47004   -519.01773    149232.28   -47555.899    3961.4413   -51517.341   0.15055718 
    9800    294.05195   -496.88588    149258.42    -47509.75    4038.0954   -51547.845   0.15073546 
    9900    293.86428   -508.88676    149244.66   -47540.661    4035.5182   -51576.179   0.15514936 
   10000    289.00154   -503.18554    149244.68   -47598.015    3968.7402   -51566.756   0.15344278 
   10100    296.58236   -476.26585    149242.96   -47549.106    4072.8445   -51621.951   0.14270136 
   10200    292.59721   -514.04546    149234.19   -47518.585    4018.1181   -51536.704   0.15664378 
   10300    290.34326   -511.50117    149244.58   -47516.868    3987.1655   -51504.033   0.15256179 
   10400     289.6184   -479.82545    149235.21   -47522.834    3977.2113   -51500.046    0.1565291 
   10500    288.69445   -524.33035    149248.07   -47576.726    3964.5231    -51541.25    0.1513665 
   10600    289.36187   -507.28592    149240.17   -47599.168    3973.6885   -51572.857   0.15011752 
   10700    293.04624   -489.91984    149240.69   -47622.393    4024.2844   -51646.677   0.14576906 
   10800    282.47052   -542.73478     149191.2   -47751.125    3879.0523   -51630.177   0.14555622 
   10900    280.76078   -538.74933    149169.61   -47734.626    3855.5732   -51590.199   0.15715666 
   11000     281.2627   -556.46904     149195.8   -47750.493    3862.4659   -51612.959   0.15347719 
   11100    283.30176    -510.8044    149217.01   -47656.123    3890.4674   -51546.591   0.15222614 
   11200     281.8522   -486.80638     149203.7   -47761.164    3870.5613   -51631.725   0.14690829 
   11300    287.51243   -489.70841    149209.27   -47683.113    3948.2908   -51631.404   0.13990261 
   11400    287.21869   -483.76545    149208.27   -47655.864     3944.257   -51600.121   0.15385436 
   11500    292.06489   -464.61494     149226.2   -47558.106     4010.808   -51568.914   0.14196561 
   11600    291.78593   -519.91328    149222.55    -47552.04     4006.977   -51559.017   0.16221857 
   11700    295.13669    -530.3804    149262.81   -47425.844    4052.9917   -51478.835   0.15175577 
   11800     291.8931   -527.15392    149275.72   -47501.687    4008.4488   -51510.136    0.1577942 
   11900    294.72442   -501.58645    149242.95   -47536.969    4047.3302   -51584.299    0.1503286 
   12000    290.50689   -505.93174    149257.59   -47507.202    3989.4126   -51496.615   0.15218767 
   12100    291.23054   -505.39766     149228.6   -47562.083    3999.3501   -51561.433   0.15340937 
   12200    294.53206   -474.90043    149224.04   -47565.211    4044.6885   -51609.899   0.14288262 
   12300    291.71473   -506.75888    149187.14   -47621.261    4005.9994    -51627.26   0.15478768 
   12400     290.6815   -521.90896    149197.26    -47615.51    3991.8104   -51607.321    0.1506975 
   12500    291.02348   -516.84645    149212.37   -47541.291    3996.5067   -51537.798   0.15539919 
   12600     292.3656   -472.20277    149217.39   -47501.626    4014.9374   -51516.564   0.15369251 
   12700    289.86748   -511.51804    149223.27   -47583.339    3980.6319   -51563.971   0.15720254 
   12800    292.75571   -497.91313    149201.69   -47568.116    4020.2947   -51588.411   0.14584684 
   12900    288.75228   -484.49445    149184.22   -47627.058    3965.3172   -51592.375   0.15718095 
   13000    289.64162   -492.46613    149212.56   -47598.365    3977.5301   -51575.895   0.14300291 
   13100    285.72018   -516.34401    149180.35   -47670.835    3923.6786   -51594.513    0.1604963 
   13200    288.54112   -517.86642    149193.38   -47706.576    3962.4174   -51668.993   0.14492422 
   13300    282.88814   -475.36234     149175.7   -47786.172    3884.7874   -51670.959    0.1467086 
   13400    285.54986   -467.71135    149150.66   -47767.678    3921.3396   -51689.018   0.14753895 
   13500    286.21843   -527.55583    149183.12   -47680.593    3930.5208   -51611.114   0.15065244 
   13600    287.14936   -454.56922    149175.55   -47622.657     3943.305   -51565.962   0.15593004 
   13700    286.02529    -494.9869     149168.3   -47660.099    3927.8686   -51587.968   0.15013203 
   13800    289.26151   -522.33101    149178.49   -47603.948    3972.3102   -51576.258   0.16161817 
   13900    287.45498   -511.45162    149191.44   -47602.764    3947.5019   -51550.266   0.14580525 
   14000    289.99694   -478.28034    149225.88   -47486.867    3982.4096   -51469.276   0.15454432 
   14100    292.59156   -503.79425    149181.15    -47573.52    4018.0405    -51591.56   0.15134142 
   14200    287.82057   -509.27392    149186.03   -47586.136    3952.5224   -51538.658   0.14921191 
   14300    289.30353   -511.58887    149197.11   -47621.476    3972.8873   -51594.364   0.15746052 
   14400    289.10753   -529.62005     149184.1   -47675.367    3970.1957   -51645.562   0.14761818 
   14500    289.26983   -498.80523     149184.9   -47698.385    3972.4246    -51670.81   0.14924262 
   14600    286.08473   -469.06498    149191.91   -47643.398    3928.6849   -51572.083   0.14978337 
   14700    287.92849   -508.70124     149202.3   -47598.102    3954.0045   -51552.107    0.1460525 
   14800    290.72791   -479.82024    149203.82   -47569.604    3992.4478   -51562.052   0.15251473 
   14900    286.77599   -560.63549    149209.83   -47583.292    3938.1776   -51521.469   0.15754491 
   15000    287.45048   -491.67286    149182.75   -47647.701    3947.4402   -51595.141   0.14861683 
   15100     286.5585   -480.64846    149194.26   -47663.012    3935.1909   -51598.203   0.14986007 
   15200    285.82593   -445.46614    149195.67   -47587.939    3925.1309    -51513.07   0.14927338 
   15300    284.30855   -503.74184    149191.22   -47679.648    3904.2932   -51583.942   0.15057326 
   15400    285.07738   -528.28564       149177   -47670.131    3914.8513   -51584.982    0.1543752 
   15500    289.01878   -504.81701    149188.72   -47607.595    3968.9769   -51576.572   0.14704934 
   15600    292.79265    -512.8907     149219.5   -47482.316     4020.802   -51503.117   0.16210336 
   15700    296.64267   -494.88021     149257.7   -47500.185    4073.6727   -51573.858   0.14516659 
   15800    292.50275   -519.73796    149223.07   -47500.051    4016.8209   -51516.872   0.16029419 
   15900     285.2673    -515.3492    149227.03   -47524.885    3917.4594   -51442.345   0.15184512 
   16000    288.04584   -512.83245    149216.63   -47568.065    3955.6159   -51523.681   0.15900135 
   16100    293.78792   -429.34301    149200.52   -47601.556    4034.4696   -51636.026   0.14110642 
   16200    289.68059   -489.69179    149202.63   -47614.329    3978.0653   -51592.394   0.14901442 
   16300    283.76394   -534.19836    149184.03   -47626.136    3896.8144    -51522.95   0.15825002 
   16400    287.54291   -518.84353     149214.1   -47647.714    3948.7094   -51596.424     0.148778 
   16500    293.41985   -511.93941    149187.11   -47560.341     4029.415   -51589.756   0.16003036 
   16600    291.12601   -474.91472    149236.23   -47487.879    3997.9146   -51485.794   0.14807698 
   16700    288.08429   -525.45033    149215.09   -47531.846    3956.1441   -51487.991   0.15893756 
   16800    286.25584   -494.44732    149193.29   -47583.118    3931.0346   -51514.152   0.14803589 
   16900    282.33722   -500.95318    149182.59   -47605.609    3877.2218   -51482.831   0.15739125 
   17000    285.53724   -495.80014    149179.61    -47655.98    3921.1664   -51577.146    0.1509776 
   17100    288.30517    -513.2449    149184.37   -47605.358    3959.1773   -51564.535   0.15421475 
   17200    291.32952    -483.9084    149169.47   -47666.611    4000.7094   -51667.321   0.14344919 
   17300     284.0453   -493.03315    149149.43   -47757.679    3900.6781   -51658.357   0.14735255 
   17400    286.02678   -458.61519    149154.88   -47748.132    3927.8891   -51676.022   0.14654205 
   17500    290.11452   -514.19075    149164.29    -47645.45    3984.0243   -51629.474    0.1524162 
   17600    283.11591   -519.34806    149181.52   -47655.301    3887.9152   -51543.216   0.15099093 
   17700    285.88933   -467.39163     149177.7    -47716.38    3926.0016   -51642.381   0.14708451 
   17800    286.83149   -458.49352    149165.18   -47665.433    3938.9398   -51604.373   0.14720683 
   17900    290.26332     -498.608    149196.49   -47615.257    3986.0677   -51601.325   0.15247016 
   18000    292.96864   -489.60616    149207.34   -47515.816    4023.2188   -51539.035    0.1565232 
   18100    288.79893    -515.6587    149232.27   -47528.535    3965.9579   -51494.493   0.15343947 
   18200    292.73539   -479.76488    149183.07   -47574.605    4020.0156   -51594.621   0.15203774 
   18300    288.73523   -519.69937    149188.83   -47581.119    3965.0831   -51546.202   0.14760236 
   18400    287.39923   -496.39949    149186.63   -47682.072    3946.7363   -51628.808    0.1539995 
   18500    286.22649   -503.05202    149195.96   -47611.613    3930.6315   -51542.245   0.15091493 
   18600    294.39296   -472.08469    149214.88   -47572.575    4042.7783   -51615.353   0.14792112 
   18700    287.69508   -496.66597    149205.51   -47585.012    3950.7991   -51535.811   0.15575229 
   18800    291.29245   -523.60725    149182.01   -47601.561    4000.2004   -51601.761   0.14813731 
   18900    291.11258   -467.67665    149191.79   -47562.337    3997.7303   -51560.067   0.15650228 
   19000    285.50163   -566.49037    149186.46   -47591.223    3920.6774   -51511.901   0.15441439 
   19100     291.0586   -496.61062    149199.11   -47506.866    3996.9889   -51503.855   0.15549206 
   19200    293.11822   -452.57726    149204.55   -47535.611    4025.2729   -51560.884   0.15279634 
   19300    293.66454   -458.07318    149238.42    -47427.79    4032.7752   -51460.566   0.14820087 
   19400    290.81404   -483.31771    149231.27   -47492.703    3993.6306   -51486.333   0.15276965 
   19500    296.52045   -485.78808    149222.49   -47491.716    4071.9944   -51563.711    0.1511929 
   19600    290.45133   -478.14366    149218.44   -47480.051    3988.6495   -51468.701   0.15620925 
   19700    291.74618   -480.82708    149214.59   -47532.214    4006.4313   -51538.646   0.15157653 
   19800    289.64835   -486.11722    149201.92   -47482.509    3977.6226   -51460.132   0.15777843 
   19900    292.10641   -451.53367    149215.65   -47567.548    4011.3782   -51578.926   0.14858696 
   20000    288.22015   -503.97158     149205.3    -47594.28    3958.0097   -51552.289   0.15410456 
   20100    285.59015   -479.64511    149201.28   -47637.787    3921.8929    -51559.68   0.14741009 
   20200    285.24277   -511.29888    149184.98   -47606.169    3917.1225   -51523.291   0.15658736 
   20300    287.02497   -496.55551     149214.8   -47574.223    3941.5968    -51515.82   0.14950008 
   20400    285.71236   -518.09702     149189.1   -47634.041    3923.5713   -51557.612    0.1566051 
   20500    289.07705   -519.12052    149181.95   -47674.758    3969.7772   -51644.535   0.14514604 
   20600    283.38216    -533.3205    149159.61   -47692.611    3891.5715   -51584.183   0.15748935 
   20700    285.22823   -462.34067    149164.42   -47631.429    3916.9229   -51548.352   0.15138233 
   20800    295.00257   -509.58052    149225.65   -47500.542      4051.15   -51551.692   0.14964606 
   20900    286.53397   -538.75444    149199.12   -47598.431    3934.8541   -51533.285   0.16293222 
   21000    290.37368   -503.55052    149177.71   -47617.151    3987.5832   -51604.734   0.14597582 
   21100    291.84574   -487.97866    149202.97   -47498.701    4007.7985     -51506.5   0.16110335 
   21200    295.51802   -490.97423    149192.29   -47512.942    4058.2284    -51571.17   0.14935513 
   21300    287.70089   -529.35497    149203.32   -47514.478    3950.8788   -51465.357   0.15986196 
   21400    292.73318   -454.80789     149184.7   -47549.553    4019.9852   -51569.539   0.15066923 
   21500    291.05304   -477.95597    149213.68   -47457.951    3996.9126   -51454.864   0.15836011 
   21600     290.1546   -498.63374    149231.42   -47461.919    3984.5747   -51446.494   0.15390941 
   21700    287.64273   -516.91677     149201.1   -47596.396    3950.0802   -51546.476   0.15807305 
   21800    288.65754   -498.54868    149196.94   -47630.985    3964.0163   -51595.001    0.1482843 
   21900    292.15428    -464.4098    149204.48   -47608.236    4012.0354   -51620.271   0.14501671 
   22000    290.28281   -531.64809    149185.55   -47637.322    3986.3354   -51623.657   0.15262668 
   22100    289.33259   -483.92503    149176.36   -47680.284    3973.2864    -51653.57   0.14466642 
   22200    284.67377   -498.69158    149166.13    -47769.37    3909.3087   -51678.679   0.14924609 
   22300    287.68777   -493.49853    149185.76   -47652.476    3950.6987   -51603.175   0.15177493 
   22400    284.60503   -492.74728    149218.56   -47602.057    3908.3648   -51510.422   0.15647069 
   22500    289.95191   -482.86273    149236.98   -47554.525    3981.7912   -51536.316   0.14724792 
   22600     289.9466   -497.36192    149201.18   -47591.163    3981.7183   -51572.882   0.15459863 
   22700    283.84399   -500.85935    149193.79   -47652.216    3897.9137    -51550.13   0.14603439 
   22800    292.48485    -480.9467    149210.58   -47575.985     4016.575    -51592.56   0.15618783 
   22900    288.78885    -480.3536    149194.74   -47608.374    3965.8195   -51574.194   0.14914787 
   23000    289.05067   -510.99026    149176.75   -47684.613    3969.4149   -51654.028   0.14867094 
   23100    285.05656   -503.21863    149176.39   -47622.789    3914.5655   -51537.355   0.16116104 
   23200     287.3862   -490.34465    149198.34   -47568.075    3946.5574   -51514.632    0.1469787 
   23300    292.65861    -474.0123     149210.2   -47565.702    4018.9612   -51584.664   0.15560458 
   23400    292.18818   -475.96968    149219.81   -47619.241     4012.501   -51631.742   0.14504167 
   23500    291.93779   -501.47458    149225.67   -47500.208    4009.0625   -51509.271   0.15570989 
   23600    293.64106   -498.52741     149249.7    -47523.86    4032.4528   -51556.313   0.15292741 
   23700    299.39737   -450.74826    149235.53   -47515.048    4111.5019    -51626.55   0.14714662 
   23800    290.33778   -518.93146    149254.69   -47526.951    3987.0903   -51514.041   0.15704158 
   23900    288.65346   -487.44593    149219.71   -47611.403    3963.9602   -51575.363   0.15101446 
   24000    290.45132   -509.01256    149218.43   -47564.691    3988.6495   -51553.341   0.15858593 
   24100    294.76819    -514.7793    149218.73   -47491.292    4047.9312   -51539.223   0.14775045 
   24200    293.57711   -484.23444    149183.77    -47616.52    4031.5746   -51648.095   0.15400658 
   24300    291.42737    -489.7986    149179.34   -47656.708    4002.0531   -51658.761   0.14575566 
   24400    286.19839   -481.47805    149162.63   -47676.324    3930.2458    -51606.57   0.15173437 
   24500    288.16213    -480.1059     149177.4     -47630.3    3957.2129   -51587.513   0.15269959 
   24600    286.47251   -507.60349    149157.21   -47674.756      3934.01   -51608.766   0.15292032 
   24700    285.70874   -501.08462    149173.96   -47682.048    3923.5215   -51605.569   0.14951342 
   24800    288.37176   -478.56569    149187.84    -47623.02    3960.0917   -51583.112   0.14866672 
   24900    286.67536    -441.1108    149170.23   -47678.108    3936.7958   -51614.904   0.14802078 
   25000    284.94023   -515.54941    149177.32   -47666.961    3912.9679   -51579.929   0.15154033 
   25100    286.75616   -509.13836    149163.12   -47716.903    3937.9053   -51654.808   0.15227074 
   25200    280.80658    -530.2982    149128.86   -47853.877    3856.2022   -51710.079   0.14327456 
   25300     281.3783   -508.65792    149134.85   -47684.977    3864.0533   -51549.031   0.16135928 
   25400    285.33286    -510.9357    149171.92   -47729.587    3918.3597   -51647.947   0.14252851 
   25500    294.75784   -502.13223    149189.53   -47620.785    4047.7891   -51668.574   0.15761343 
   25600    292.54295   -475.45158    149210.27   -47537.873     4017.373   -51555.246    0.1514814 
   25700    287.84109   -538.44092    149217.19   -47633.501    3952.8042   -51586.305   0.15235486 
   25800    293.23485   -488.81161    149245.37   -47487.543    4026.8745   -51514.418   0.15232165 
   25900    291.44887   -496.16013    149230.28    -47509.42    4002.3484   -51511.768   0.14971735 
   26000    287.17466   -538.21898     149218.6   -47555.419    3943.6524   -51499.071   0.16042014 
   26100    291.17891   -495.55434    149203.44   -47535.073    3998.6412   -51533.715   0.15019422 
   26200    284.22725   -487.18646    149192.62   -47645.001    3903.1768   -51548.178   0.15459456 
   26300    284.63673   -470.96022    149201.83   -47603.887    3908.8001   -51512.687    0.1489263 
   26400    286.42327    -504.9935    149183.71   -47661.374    3933.3338   -51594.708   0.15438047 
   26500    287.30054   -486.43477     149215.8   -47578.338    3945.3811   -51523.719   0.14963642 
   26600    290.94248   -485.84693    149231.33   -47525.028    3995.3943   -51520.422   0.15288873 
   26700    294.42855   -492.01444    149247.23    -47532.43    4043.2671   -51575.697   0.15130213 
   26800     294.4689   -491.73614    149219.26   -47577.773    4043.8212   -51621.594   0.14464015 
   26900    293.94787   -473.89921    149237.06   -47519.935    4036.6661   -51556.601   0.15232778 
   27000     291.4993   -481.42581    149231.82   -47547.219     4003.041    -51550.26   0.15192324 
   27100     297.8488   -486.05223    149226.24   -47497.024     4090.236    -51587.26   0.15044084 
   27200    291.96063   -526.46864    149219.97   -47565.681    4009.3762   -51575.057   0.15461151 
   27300    294.89494   -499.60531    149221.96   -47391.306    4049.6718   -51440.978    0.1551746 
   27400    292.10084    -532.0097    149254.39   -47525.293    4011.3016   -51536.595   0.14985097 
   27500    282.57971   -521.37459    149214.83   -47625.242    3880.5519   -51505.793    0.1570942 
   27600    289.79338   -483.65903    149191.33   -47671.983    3979.6143   -51651.598   0.14051546 
   27700    292.46476   -506.82127    149205.16   -47574.819    4016.2992   -51591.118   0.15435268 
   27800    291.79838     -524.481    149209.66   -47548.097    4007.1481   -51555.245   0.15362549 
   27900    287.64735   -501.72738    149224.93   -47612.242    3950.1437   -51562.385   0.14481377 
   28000    284.93838   -490.39552    149205.09   -47680.937    3912.9424    -51593.88   0.15344057 
   28100    286.59242   -525.78759    149215.07    -47653.62    3935.6568   -51589.277   0.14437856 
   28200    294.98504   -495.00224    149220.58   -47628.876    4050.9092   -51679.786   0.14990275 
   28300    286.39946   -468.06623    149220.81   -47650.015    3933.0069   -51583.022    0.1442188 
   28400    290.77108   -469.69455    149247.78   -47582.551    3993.0405   -51575.592   0.14924445 
   28500    287.20002   -503.78945     149248.7   -47612.756    3944.0007   -51556.756   0.14483244 
   28600     287.6839   -486.68077    149229.29   -47617.545    3950.6456   -51568.191   0.14993252 
   28700    289.43984    -473.3982    149232.36   -47616.302    3974.7593   -51591.061   0.14780504 
   28800     288.7618   -485.01184    149241.75   -47659.081     3965.448   -51624.529   0.14748564 
   28900    285.69168   -536.82385    149247.65   -47631.366    3923.2872   -51554.653   0.15371625 
   29000    293.50768   -465.93683     149252.3    -47573.07    4030.6212   -51603.691   0.13928798 
   29100    290.53582   -501.23444    149238.08   -47566.211    3989.8099   -51556.021   0.15158461 
   29200    291.09422   -501.81108    149262.29   -47501.773    3997.4782   -51499.251   0.15248601 
   29300    291.85537   -527.29183    149284.26   -47510.033    4007.9306   -51517.964    0.1527384 
   29400    289.94707   -520.03869    149271.61   -47528.771    3981.7248   -51510.496   0.15203903 
   29500    289.97121    -508.5771    149244.48   -47567.012    3982.0563   -51549.068   0.15097767 
   29600    291.72581   -506.57079    149245.29   -47537.176    4006.1515   -51543.328   0.14541474 
   29700    291.01909   -532.35055    149226.83   -47613.655    3996.4464   -51610.101   0.15444202 
   29800    288.31444   -509.21471     149195.8    -47705.86    3959.3046   -51665.165    0.1404655 
   29900    283.96286   -507.44178    149200.95   -47688.178    3899.5461   -51587.724   0.15174956 
   30000    285.37874   -535.52136    149196.05   -47648.641    3918.9897   -51567.631   0.14911197 
   30100    292.17334   -498.83626     149202.7   -47621.114    4012.2972   -51633.411   0.14400129 
   30200     289.9975   -486.80517    149211.22   -47628.493    3982.4173   -51610.911   0.15423016 
   30300     287.8687   -490.07905    149202.75   -47615.651    3953.1834   -51568.834   0.14952504 
   30400     287.1156   -512.98451    149194.65   -47654.869    3942.8413    -51597.71   0.15185045 
   30500    284.20156   -501.17998    149159.08    -47753.27    3902.8241   -51656.094   0.14241774 
   30600    289.49671   -476.85334    149173.09   -47626.171    3975.5402   -51601.712   0.14815939 
   30700    290.34654   -464.19564    149177.93   -47655.032    3987.2106   -51642.243   0.14235645 
   30800    289.29858   -482.27091    149176.35   -47587.201    3972.8193   -51560.021   0.15245875 
   30900    287.61999   -502.70898    149199.99   -47563.794     3949.768   -51513.562   0.15253014 
   31000     289.4357   -504.41979    149184.14   -47598.619    3974.7024   -51573.322   0.14761655 
   31100    285.69462    -502.4161    149192.46   -47612.076    3923.3276   -51535.403    0.1538539 
   31200    287.43894   -480.68831     149196.8   -47555.773    3947.2816   -51503.055   0.14716828 
   31300     294.0828   -488.21444    149216.62   -47497.071     4038.519    -51535.59   0.15494816 
   31400    286.99667   -528.18883    149194.89   -47607.925    3941.2081   -51549.133   0.15785318 
   31500    289.40621   -517.06447    149196.34   -47557.215    3974.2973   -51531.512   0.14935189 
   31600    290.53488   -495.46655    149207.94   -47581.709     3989.797   -51571.506   0.15280024 
   31700    296.46088    -451.0786    149226.36   -47550.343    4071.1762   -51621.519   0.14583643 
   31800    290.82077    -490.7277     149222.9   -47616.218     3993.723   -51609.941   0.14257675 
   31900    286.86838   -495.88056    149205.04   -47612.147    3939.4464   -51551.593   0.15247314 
   32000    290.17037   -485.60211    149233.79   -47562.292    3984.7913   -51547.084   0.14352182 
   32100    288.45248   -494.30397    149240.36   -47604.866    3961.2002   -51566.066   0.15385301 
   32200    284.75968   -524.44609    149189.53   -47717.798    3910.4885   -51628.286   0.14963465 
   32300    290.91605   -515.34214    149214.84   -47669.825    3995.0313   -51664.856    0.1411356 
   32400    283.96915   -491.80467     149190.9   -47756.256    3899.6325   -51655.888   0.15175398 
   32500    291.84144   -492.80983    149235.25   -47618.779    4007.7394   -51626.518   0.14251248 
   32600    290.13518    -512.5424    149246.53   -47573.125     3984.308   -51557.433   0.15446488 
   32700    287.97387   -513.19596    149233.41   -47663.856    3954.6276   -51618.483   0.14215528 
   32800    291.70951   -512.16451    149247.95   -47532.558    4005.9277   -51538.486   0.15569121 
   32900    286.11571   -521.81515    149247.86   -47605.524    3929.1103   -51534.635   0.15052495 
   33000    292.23248   -505.88216    149254.01   -47596.425    4013.1094   -51609.535   0.14534787 
   33100    290.20519   -501.51162    149215.49   -47622.768    3985.2694   -51608.038   0.15118612 
   33200    289.20739   -495.10116    149236.67   -47603.812     3971.567   -51575.379   0.14224423 
   33300    288.61738   -461.20776    149228.12   -47605.203    3963.4647   -51568.668   0.15120437 
   33400    291.44091   -473.08636    149198.51   -47616.889    4002.2391   -51619.128   0.14206909 
   33500    288.28854   -484.47499    149185.95   -47642.187    3958.9489   -51601.136   0.15332612 
   33600    286.63546    -548.2027     149194.9   -47661.033    3936.2478   -51597.281   0.15350047 
   33700    292.47123   -476.23449    149218.39   -47551.976    4016.3881   -51568.364   0.14690476 
   33800    292.70507   -514.91291     149234.9   -47449.055    4019.5993   -51468.654   0.15505081 
   33900    295.98957   -514.52166    149231.51   -47476.416     4064.704    -51541.12   0.15521194 
   34000    289.43264   -498.43135    149207.88   -47621.062    3974.6604   -51595.722   0.14992797 
   34100    285.86549   -531.92396    149198.92   -47639.937    3925.6742   -51565.611   0.15840417 
   34200    288.92251   -482.46142    149198.75    -47633.96     3967.655   -51601.615   0.14007409 
   34300    288.28186   -498.41404    149183.94   -47671.291    3958.8571   -51630.148   0.15450871 
   34400    288.57008   -424.15256    149214.67   -47588.378    3962.8151   -51551.193   0.14541434 
   34500     290.0567   -511.44312     149258.1    -47521.24    3983.2303    -51504.47   0.15218996 
   34600    299.29055   -486.56681    149264.01   -47519.378     4110.035   -51629.413    0.1604713 
   34700    288.01724   -505.54415    149231.35   -47634.478    3955.2233   -51589.701   0.14180588 
   34800    287.57397   -528.92958    149224.92   -47634.177    3949.1359   -51583.313   0.15678073 
   34900    288.39218   -484.12608    149242.78   -47610.388    3960.3721    -51570.76   0.14332859 
   35000    288.29006   -471.90118    149210.59   -47584.143    3958.9697   -51543.113   0.15260814 
   35100    285.65902   -491.44508    149215.58   -47596.405    3922.8387   -51519.243   0.15528579 
   35200    292.55928   -507.73931    149222.12   -47539.828    4017.5972   -51557.425   0.14796248 
   35300    291.06262   -501.85711    149206.41   -47620.935    3997.0441    -51617.98   0.15375774 
   35400    288.56501   -525.23227    149211.42   -47623.615    3962.7456   -51586.361   0.14659123 
   35500    284.49601   -500.61931    149207.89   -47605.305    3906.8676   -51512.172   0.15477332 
   35600    294.29625   -500.55472    149212.55   -47582.267    4041.4503   -51623.717   0.14585628 
   35700    291.09034   -505.80101    149189.25    -47594.35    3997.4248   -51591.774   0.15485323 
   35800    286.89288    -523.9985    149217.48   -47426.348    3939.7828    -51366.13   0.16091523 
   35900    289.81014   -509.94071    149216.48   -47546.719    3979.8444   -51526.564     0.148275 
   36000    288.49041   -490.09736    149190.61   -47601.826    3961.7211   -51563.547   0.15680736 
   36100    284.76017   -525.62139    149180.49   -47646.369    3910.4952   -51556.864   0.15005619 
   36200    286.01454   -530.76874    149168.36   -47675.988     3927.721   -51603.709   0.14989032 
   36300     293.7251     -474.022    149183.37   -47611.696     4033.607   -51645.303   0.15093807 
   36400      288.726   -516.12665    149183.91   -47667.723    3964.9563   -51632.679   0.14716389 
   36500    285.82912   -511.08694     149172.2   -47637.739    3925.1746   -51562.913   0.15377532 
   36600    285.94431     -475.872     149161.4    -47633.98    3926.7565   -51560.736   0.15379459 
   36700     290.0235   -506.36931    149194.57   -47677.189    3982.7744   -51659.963   0.14361944 
   36800     285.8338   -503.26637    149153.82   -47746.499    3925.2389   -51671.738   0.16057681 
   36900    284.57714   -504.78062     149155.6   -47665.643    3907.9817   -51573.624   0.14595183 
   37000    284.19096   -540.16817    149172.72   -47656.171    3902.6785   -51558.849   0.15769725 
   37100    286.36113   -511.56423    149131.49   -47688.809    3932.4805   -51621.289   0.15128468 
   37200    286.19633   -523.43727    149142.82   -47700.285    3930.2174   -51630.503   0.14902498 
   37300    285.77283   -493.46719    149149.11   -47690.853    3924.4016   -51615.255   0.15421901 
   37400     288.5923   -443.90876    149164.51   -47707.149    3963.1203   -51670.269   0.14526207 
   37500    292.75928   -464.41284    149165.79    -47681.38    4020.3437   -51701.724    0.1494172 
   37600    286.59637   -498.01112    149159.06   -47728.349     3935.711    -51664.06   0.14188133 
   37700     286.1438   -521.12357    149140.67    -47804.61    3929.4961   -51734.106   0.15235411 
   37800    284.62003   -487.04716    149122.83   -47821.743    3908.5708   -51730.314   0.14336249 
   37900    285.84351   -480.30627    149157.58    -47727.67    3925.3723   -51653.042   0.15551288 
   38000    286.90125   -514.04978    149197.98   -47663.673    3939.8977   -51603.571   0.15077147 
   38100    287.39357   -485.16775    149208.24   -47604.217    3946.6586   -51550.876   0.14603488 
   38200    291.22559   -500.86194    149198.43   -47570.016    3999.2821   -51569.298    0.1598087 
   38300    286.84492   -515.55089    149203.27   -47622.303    3939.1243   -51561.428   0.14916344 
   38400    292.68282   -460.52998    149217.36   -47558.417    4019.2937    -51577.71   0.15264089 
   38500    289.66082    -511.3959     149201.2   -47613.594    3977.7939   -51591.387   0.15664587 
   38600    291.35579   -526.16535    149242.87   -47583.312    4001.0701   -51584.383   0.14575364 
   38700    287.07143   -518.42121    149239.62   -47551.713    3942.2347   -51493.948   0.15830346 
   38800    286.49195   -476.81054    149221.49   -47580.795     3934.277   -51515.072   0.14891494 
   38900    287.79514    -508.7769    149231.22   -47523.506    3952.1732   -51475.679   0.15602376 
   39000    287.42286   -548.14213       149221   -47576.143    3947.0609   -51523.204   0.15946452 
   39100    287.27879   -552.20578    149217.97   -47605.957    3945.0824   -51551.039   0.15146766 
   39200    281.95122   -513.32844    149183.73   -47731.742    3871.9211   -51603.663   0.15356904 
   39300    280.99676    -457.6301     149172.7   -47739.053    3858.8139   -51597.867   0.14758267 
   39400    285.83571   -502.99332    149199.96   -47615.179    3925.2652   -51540.444   0.15241584 
   39500    292.43848   -513.13531    149205.31   -47596.305    4015.9383   -51612.243   0.15357629 
   39600    290.11431   -504.10791    149242.28   -47599.398    3984.0214    -51583.42   0.14807519 
   39700     295.8182   -481.79773    149235.83    -47581.16    4062.3507   -51643.511   0.15215939 
   39800      291.417   -514.59407    149235.49   -47601.449    4001.9107    -51603.36   0.14652489 
   39900     289.7837   -513.04729    149220.94   -47563.309    3979.4814   -51542.791   0.16092189 
   40000    289.44098   -489.13292       149220   -47631.167    3974.7748   -51605.941   0.14645867 
   40100    288.33407   -476.93417    149243.35   -47649.804    3959.5741   -51609.378   0.15162426 
   40200    288.05826   -526.52115    149238.54   -47622.028    3955.7866   -51577.815   0.15302142 
   40300    287.76745   -489.43499    149221.43    -47631.68    3951.7929   -51583.473   0.14233442 
   40400    279.63278   -526.44835    149191.83   -47711.781    3840.0829   -51551.863   0.16066699 
   40500    290.34068   -451.44766    149243.23   -47577.808      3987.13   -51564.938   0.14002498 
   40600      289.286   -519.55052    149253.73   -47654.334    3972.6466   -51626.981   0.15277509 
   40700    288.29734   -484.76453    149236.87   -47655.462    3959.0697   -51614.532   0.14801223 
   40800    286.96833   -478.80967    149236.97   -47632.576    3940.8189   -51573.395   0.14661682 
   40900    289.99508   -517.94855    149233.05   -47622.181    3982.3841   -51604.565    0.1545159 
   41000    286.37663   -516.81677    149220.72   -47679.858    3932.6934   -51612.551   0.14747411 
   41100    286.02386   -488.55229    149220.18    -47649.65     3927.849   -51577.499   0.15209348 
   41200    291.00984   -488.33613    149256.78     -47537.1    3996.3194   -51533.419   0.15650565 
   41300     289.9917   -472.94297    149238.12   -47621.971    3982.3377   -51604.308   0.13819608 
   41400    292.72502   -493.47739    149253.45   -47571.678    4019.8733   -51591.552   0.15427571 
   41500    287.93145   -515.78637    149262.36   -47583.579    3954.0451   -51537.624   0.14905766 
   41600    288.75235   -544.81475    149272.34   -47592.407    3965.3182   -51557.725    0.1545054 
   41700    285.84471   -526.73086    149223.66   -47697.656    3925.3888   -51623.044   0.15284802 
   41800    291.04278    -479.6574    149260.19   -47617.628    3996.7718     -51614.4   0.14276217 
   41900    287.00409   -515.93862    149241.74   -47695.621      3941.31   -51636.931   0.15300462 
   42000    285.36525   -474.84209    149235.23   -47664.931    3918.8046   -51583.736   0.13923586 
   42100    282.54932   -541.52731    149200.98   -47737.394    3880.1346   -51617.528   0.15713192 
   42200    283.84391   -512.46226       149205    -47697.61    3897.9126   -51595.523   0.14813734 
   42300    291.51966   -517.30147     149210.2   -47664.046    4003.3205   -51667.366   0.15227752 
   42400    287.25935   -481.98311    149204.55   -47679.543    3944.8154   -51624.358   0.14768059 
   42500    287.86279   -508.86037    149218.94   -47644.918    3953.1022    -51598.02   0.14706495 
   42600     288.0288   -532.88591     149196.8   -47682.518    3955.3819     -51637.9   0.15795473 
   42700    283.44419    -521.5364    149178.66   -47751.059    3892.4234   -51643.483   0.14487273 
   42800    288.28314   -514.59207    149177.02   -47668.558    3958.8747   -51627.433   0.15480776 
   42900    286.88202   -486.86872    149162.57   -47680.349    3939.6337   -51619.983   0.15495597 
   43000    287.22271   -513.59974    149201.28    -47708.99    3944.3123   -51653.302   0.14125087 
   43100    289.75847   -501.25315     149210.9   -47623.061    3979.1348   -51602.196   0.15583033 
   43200    287.25198   -478.81655    149214.27    -47635.56    3944.7143   -51580.275   0.14519147 
   43300    289.46806   -500.14709    149195.61   -47635.008    3975.1467   -51610.155   0.15178154 
   43400    290.19685   -499.32729    149213.95   -47566.716    3985.1549   -51551.871   0.15677607 
   43500    288.46928   -473.93789    149215.45   -47617.734     3961.431   -51579.165   0.14428798 
   43600     288.5084   -530.11562    149197.14   -47663.584    3961.9681   -51625.552    0.1575577 
   43700    288.15221   -497.83491    149194.39   -47710.814    3957.0767   -51667.891   0.14556711 
   43800    278.45922   -510.90235    149179.52   -47741.792    3823.9668   -51565.758    0.1506827 
   43900    286.39983   -519.86332    149185.19   -47656.866     3933.012   -51589.878     0.156476 
   44000    284.77243     -521.174    149170.32    -47740.47    3910.6636   -51651.133   0.14621324 
   44100    286.15003   -470.60783    149170.39   -47696.662    3929.5816   -51626.244   0.15174853 
   44200    288.37162   -464.41237    149197.06   -47659.052    3960.0898   -51619.142    0.1432372 
   44300    288.17696   -501.74218    149163.02   -47656.234    3957.4166   -51613.651   0.15477434 
   44400    285.33666   -488.03227    149150.46   -47665.311    3918.4119   -51583.723   0.14754661 
   44500    289.62745   -459.20547    149177.01   -47673.662    3977.3355   -51650.998   0.14879919 
   44600    286.72576    -536.1089    149172.25    -47671.44    3937.4878   -51608.928   0.15164019 
   44700     285.8174   -508.55353    149187.33   -47665.536    3925.0137    -51590.55    0.1462572 
   44800    289.01073   -481.20382    149177.39   -47620.238    3968.8664   -51589.105   0.15838165 
   44900    289.47913   -511.97179    149204.73    -47611.81    3975.2987   -51587.109   0.14027508 
   45000    284.37412   -532.59693     149172.5   -47652.975    3905.1938   -51558.169   0.15675877 
   45100    289.67834   -500.84651    149215.67    -47539.69    3978.0344   -51517.724   0.15198152 
   45200    291.88238   -501.93011    149208.85   -47573.682    4008.3016   -51581.984   0.15047195 
   45300    292.25577   -480.90236    149194.99   -47593.583    4013.4292   -51607.012   0.14965668 
   45400    287.12482    -501.8554    149189.03   -47657.264    3942.9679   -51600.232   0.15160865 
   45500    286.41919   -542.17161    149211.78   -47602.862    3933.2778    -51536.14   0.15273146 
   45600      290.268   -512.53176    149200.05   -47597.024    3986.1319   -51583.156    0.1546571 
   45700    289.41189   -491.60472    149211.11   -47545.724    3974.3754     -51520.1   0.14849031 
   45800    286.70734   -501.73281    149212.38   -47622.222    3937.2349   -51559.457    0.1540767 
   45900    294.99117   -506.48861    149246.35    -47488.69    4050.9934   -51539.683   0.15037413 
   46000     293.1476   -475.73132    149253.77   -47552.895    4025.6764   -51578.571    0.1496024 
   46100    294.53335   -459.64122    149257.07   -47456.615    4044.7063   -51501.321   0.15349046 
   46200    294.65623    -474.6145    149271.16    -47522.49    4046.3937   -51568.884   0.14716434 
   46300    292.71983   -499.29553    149254.23   -47506.414     4019.802   -51526.216   0.15529511 
   46400    295.35903   -506.88862    149245.66   -47556.871     4056.045   -51612.916   0.14701834 
   46500    287.23851   -517.85426    149216.42   -47515.534    3944.5293   -51460.063   0.16476079 
   46600    287.79677   -492.24541    149213.34   -47575.898    3952.1956   -51528.094   0.14912798 
   46700    291.71467   -464.82896    149229.63   -47512.612    4005.9985    -51518.61   0.15418921 
   46800    290.60865   -474.02998    149249.24   -47521.189    3990.8101   -51511.999   0.15083511 
   46900    290.02812   -490.51386    149240.68   -47583.611    3982.8378   -51566.449   0.14639088 
   47000    294.21384    -478.3866    149231.66   -47615.484    4040.3186   -51655.803   0.15319916 
   47100    291.23865   -509.13943    149203.26   -47626.301    3999.4615   -51625.762    0.1454674 
   47200     286.9069   -478.28253     149221.8   -47590.498    3939.9753   -51530.473   0.15719979 
   47300    282.57699   -524.64065       149214   -47712.798    3880.5145   -51593.313   0.14771639 
   47400    286.34832   -510.73909    149208.82   -47649.178    3932.3046   -51581.482   0.14721897 
   47500    286.59213   -501.15918    149202.77   -47651.625    3935.6527   -51587.278   0.15285621 
   47600    289.86077   -474.36897    149194.61   -47647.081    3980.5396    -51627.62   0.14817906 
   47700    290.24568   -519.48535    149205.99   -47574.807    3985.8255   -51560.633   0.15571621 
   47800     286.8652   -517.53309     149194.2    -47632.82    3939.4027   -51572.223   0.15295497 
   47900    287.56431   -469.68215    149162.29   -47678.901    3949.0033   -51627.904   0.14911008 
   48000     289.4313   -507.78003    149175.31   -47641.014     3974.642   -51615.656   0.15099621 
   48100    286.72365   -491.01583    149147.94   -47679.368    3937.4589   -51616.827   0.15167593 
   48200    284.96743   -452.11205    149147.14   -47667.446    3913.3415   -51580.788   0.15034358 
   48300    288.53811   -508.62815    149171.36   -47625.685    3962.3762   -51588.061   0.15375272 
   48400    289.68053   -502.52586    149160.94   -47660.419    3978.0645   -51638.484   0.14772569 
   48500    283.89277   -534.32145    149147.28   -47744.891    3898.5836   -51643.475   0.15420285 
   48600    286.18461   -482.71929    149144.88   -47738.855    3930.0564   -51668.911   0.14431628 
   48700    286.80606   -495.58248    149159.71   -47626.012    3938.5906   -51564.603    0.1547693 
   48800    286.87303    -475.4634    149163.35   -47613.671    3939.5102   -51553.181   0.15266279 
   48900    287.44077   -506.04008    149147.84   -47639.904    3947.3068   -51587.211   0.15136892 
   49000    289.22619   -531.09605    149144.89   -47673.905    3971.8253   -51645.731   0.15748681 
   49100    292.70855   -495.47622    149191.25   -47591.033     4019.647    -51610.68    0.1456156 
   49200    289.02359    -503.7429    149162.81   -47622.746     3969.043   -51591.789   0.16009817 
   49300    286.11075   -477.16699    149184.46   -47696.008    3929.0422    -51625.05   0.14524788 
   49400    282.09823    -519.5152    149144.35   -47710.525    3873.9398   -51584.465   0.15435472 
   49500    289.00183   -497.90012    149181.53   -47654.068    3968.7442   -51622.812   0.14765093 
   49600    288.79538   -481.65447    149186.04   -47646.955    3965.9091   -51612.864   0.14679301 
   49700    288.74431   -529.22222     149178.1   -47652.982    3965.2078    -51618.19   0.15456477 
   49800    282.20102   -482.70172    149160.53   -47658.042    3875.3515   -51533.393   0.15090581 
   49900     285.5908   -492.12903     149173.7   -47641.048    3921.9019    -51562.95   0.15241322 
   50000    288.85942   -516.26072    149184.12   -47650.683    3966.7885   -51617.471   0.14874214 
   50100    294.46161    -501.8425    149232.07   -47511.899    4043.7211    -51555.62   0.14762956 
   50200    294.61398   -471.53314    149213.11   -47583.908    4045.8136   -51629.722   0.14766138 
   50300    290.68207   -491.15452    149218.07   -47602.515    3991.8182   -51594.334   0.14974903 
   50400    287.18535   -524.31095    149211.37   -47623.549    3943.7992   -51567.348   0.14869862 
   50500     290.6216    -456.9992    149215.85   -47527.034    3990.9878   -51518.022   0.15155606 
   50600    297.11521   -475.17686    149231.39   -47457.301     4080.162   -51537.463    0.1450796 
   50700    284.98529   -497.40102    149210.42   -47697.986    3913.5867   -51611.573   0.14923202 
   50800    287.28409   -512.99762    149205.78   -47673.471    3945.1552   -51618.626    0.1461786 
   50900    285.58015   -547.53987    149194.72   -47702.444    3921.7557     -51624.2   0.15112948 
   51000    285.40368   -511.84274    149189.66   -47659.501    3919.3322   -51578.833   0.14794423 
   51100     290.0906   -472.85436    149179.85   -47671.501    3983.6958   -51655.197   0.14559536 
   51200    285.90676   -494.39387    149188.26   -47723.973    3926.2409   -51650.214   0.14661715 
   51300    280.36087   -483.44342    149166.84   -47739.581    3850.0814   -51589.662   0.14332503 
   51400    285.24211   -495.97709    149177.59   -47674.726    3917.1135   -51591.839     0.149881 
   51500     282.8816   -536.54326    149179.74   -47734.709    3884.6976   -51619.406   0.14593549 
   51600    287.45188   -500.71158    149188.92   -47652.448    3947.4594   -51599.908   0.14490341 
   51700    291.63644   -483.04817    149202.61   -47546.927    4004.9242   -51551.852   0.14826865 
   51800    290.66258   -512.83282     149229.8   -47600.616    3991.5506   -51592.166   0.14528153 
   51900    284.66521   -468.79913    149185.01   -47656.636    3909.1912   -51565.827   0.14890339 
   52000    284.71825   -490.22547    149178.24   -47640.334    3909.9196   -51550.254   0.14516519 
   52100    288.81935   -463.08025    149163.66   -47715.174    3966.2383   -51681.412   0.14479104 
   52200    278.79523   -515.91588    149144.09   -47769.046    3828.5811   -51597.627   0.15109474 
   52300    287.47866   -491.23253    149184.59   -47751.301    3947.8272   -51699.128   0.14364123 
   52400    285.02247   -498.64884    149175.65   -47837.529    3914.0973   -51751.626    0.1422429 
   52500     287.4666   -480.25122    149190.31   -47683.231    3947.6616   -51630.893   0.14886882 
   52600    288.36064   -474.22876       149219   -47652.195     3959.939   -51612.134   0.14390178 
   52700    288.98486   -453.71394    149222.98   -47588.099    3968.5111    -51556.61   0.14345605 
   52800    289.90902   -493.79445    149250.85   -47557.368    3981.2023    -51538.57   0.14798554 
   52900    286.46377   -532.07768    149238.99   -47588.051    3933.8901   -51521.941   0.15054375 
   53000    286.61968   -478.54213    149250.59   -47537.949    3936.0311    -51473.98   0.14992383 
   53100    287.07436   -499.38165    149208.39   -47675.402     3942.275   -51617.677   0.14501749 
   53200    283.37218   -503.58719    149194.27   -47719.961    3891.4345   -51611.396   0.14419701 
   53300    286.25059   -491.15408    149220.24   -47684.829    3930.9626   -51615.792   0.14418507 
   53400    286.59234   -498.07087    149244.88   -47615.232    3935.6557   -51550.887   0.14676782 
   53500     288.2091   -482.94504    149236.47   -47603.828     3957.858   -51561.686   0.14273293 
   53600    286.84682   -502.76632    149199.61   -47672.263    3939.1504   -51611.413   0.15009016 
   53700      289.004    -518.2164    149222.74   -47654.908     3968.774   -51623.682   0.14046882 
   53800    285.15031   -471.88574    149218.65    -47676.47    3915.8528   -51592.323   0.14578756 
   53900    290.27559   -476.85098    149205.33   -47679.946    3986.2363   -51666.182    0.1413069 
   54000    287.86267    -497.4803    149201.68   -47694.175    3953.1005   -51647.275     0.143825 
   54100     288.5742   -509.23375    149216.92   -47667.494    3962.8718   -51630.366   0.14672893 
   54200    288.88551   -496.16824     149199.6   -47610.393    3967.1468    -51577.54   0.14797866 
   54300    293.97107   -528.02458    149231.04   -47542.379    4036.9847   -51579.364   0.15181086 
   54400    293.31229   -468.77001    149258.22   -47462.977     4027.938   -51490.915   0.14892491 
   54500    294.01065    -521.6917    149250.37   -47533.379    4037.5283   -51570.907   0.14465636 
   54600    291.40131   -466.11552    149255.21   -47549.437    4001.6952   -51551.132   0.14406548 
   54700    291.08523   -492.32833    149237.77   -47612.175    3997.3547    -51609.53   0.14558812 
   54800    297.60167   -492.12507    149250.03   -47541.503    4086.8423   -51628.346   0.14193039 
   54900    289.29371    -470.6709    149254.33   -47557.822    3972.7525   -51530.575   0.14756375 
   55000    290.23611   -492.11696    149246.09   -47589.619     3985.694   -51575.313   0.14446425 
   55100    290.89715   -505.51449     149235.1    -47606.42    3994.7719   -51601.192   0.14763573 
   55200    288.56263   -490.90019    149211.91   -47720.413    3962.7128   -51683.126   0.13730644 
   55300       281.81   -493.93932    149199.77    -47764.22    3869.9817   -51634.202   0.14546966 
   55400    284.20964    -450.4139    149175.45   -47718.738    3902.9351   -51621.673   0.13952431 
   55500    288.67948   -536.01301     149218.3   -47686.728    3964.3175   -51651.045   0.14549308 
   55600    289.80068    -473.8452    149243.22   -47578.371    3979.7145   -51558.086   0.14920669 
   55700    293.59876   -505.80956     149264.6   -47544.813    4031.8719   -51576.685   0.14330539 
   55800    291.24964    -492.3318    149273.92   -47528.849    3999.6124   -51528.461    0.1524501 
   55900    289.03595    -522.5034    149280.26   -47549.295    3969.2128   -51518.507   0.14351238 
   56000    289.39358   -506.33764    149291.68   -47560.809    3974.1239   -51534.933      0.14532 
   56100    289.72942   -512.66769    149277.11   -47541.236    3978.7359   -51519.972   0.14750301 
   56200    290.54742    -496.9657    149284.31   -47582.588    3989.9692   -51572.557   0.13985742 
   56300    283.09291   -489.84868    149231.21   -47649.067    3887.5993   -51536.666   0.14572678 
   56400    287.84355   -513.34274    149217.23   -47697.449     3952.838   -51650.287   0.13838377 
   56500    282.80444   -472.13509    149186.93   -47743.653     3883.638   -51627.291   0.14382417 
   56600    285.61691   -503.28423     149189.5   -47794.848    3922.2604   -51717.109   0.14007223 
   56700    285.14231   -499.40406    149209.53   -47776.433     3915.743   -51692.176   0.14117583 
   56800    287.58979    -528.3761    149217.02   -47661.423    3949.3532   -51610.776   0.14571069 
   56900    279.06101   -545.69182    149216.63   -47762.539     3832.231    -51594.77   0.14680788 
   57000    282.66877   -494.92904    149204.53   -47745.829    3881.7749   -51627.604    0.1405073 
   57100    286.75904   -486.95641    149217.45   -47665.615    3937.9448    -51603.56   0.14309949 
   57200    287.83798   -506.86927    149230.21    -47619.25    3952.7615   -51572.011   0.14377378 
   57300    282.48333   -511.25675    149186.19   -47751.846    3879.2283   -51631.075   0.14513227 
   57400    285.59044   -486.68609    149226.87   -47637.067    3921.8969   -51558.964   0.14475194 
   57500    291.95208   -512.14086    149210.63   -47600.525    4009.2588   -51609.784   0.14561432 
   57600    283.99267   -532.03096    149175.39   -47712.379    3899.9554   -51612.334   0.15050634 
   57700    292.37941   -478.82844    149176.34   -47623.138    4015.1271   -51638.265   0.14095363 
   57800    288.42039   -501.48318    149183.63   -47569.779    3960.7595   -51530.538   0.15173021 
   57900    286.82185   -468.94605     149197.2   -47608.185    3938.8074   -51546.993   0.14230576 
   58000    290.86191   -530.68675     149193.3   -47566.287    3994.2879   -51560.575   0.15198749 
   58100    287.96243   -483.89061    149192.89   -47617.242    3954.4705   -51571.712   0.14206188 
   58200    290.05393   -514.14957    149233.52   -47513.218    3983.1922    -51496.41   0.15326177 
   58300    286.36514   -536.73063    149231.42   -47582.606    3932.5357   -51515.142   0.14680269 
   58400    289.65102   -506.73431    149224.69   -47629.459    3977.6592   -51607.118   0.14736774 
   58500     288.9207   -507.49047    149231.85   -47636.547    3967.6301   -51604.177   0.14445756 
   58600     291.9633   -482.38696    149209.85   -47664.188    4009.4129   -51673.601   0.14058549 
   58700    287.01631   -466.47205     149223.9   -47620.033    3941.4778   -51561.511   0.14508356 
   58800    293.60768   -470.71283    149219.51   -47664.614    4031.9944   -51696.609   0.13570318 
   58900    291.78127   -454.39954    149229.12   -47579.016    4006.9131    -51585.93   0.14252298 
   59000    289.47661   -517.20142    149272.36   -47547.239    3975.2642   -51522.503   0.14705896 
   59100    286.91486   -505.28301    149248.09   -47508.321    3940.0847   -51448.406   0.15340173 
   59200    289.81762   -471.65306    149232.08   -47634.094    3979.9471   -51614.041   0.14328594 
   59300    294.84555   -464.33373    149219.25    -47607.05    4048.9936   -51656.043   0.14370238 
   59400    289.05503   -538.32736    149224.16   -47593.763    3969.4747   -51563.238   0.14935248 
   59500    287.41463   -510.26501    149210.33    -47702.47    3946.9478   -51649.418   0.13810536 
   59600    284.66957    -475.4065    149211.32   -47673.579     3909.251    -51582.83   0.14525721 
   59700    286.60364   -508.30734     149241.3   -47601.932    3935.8108   -51537.743   0.14506348 
   59800    283.58902   -507.94433    149224.06   -47719.277    3894.4122   -51613.689   0.14237573 
   59900    281.20615   -508.50684    149211.72   -47713.716    3861.6893   -51575.405   0.14627659 
   60000    287.26884   -504.24108    149224.54   -47680.907    3944.9458   -51625.852    0.1405859 
   60100    289.29334   -506.56103    149223.67   -47645.538    3972.7474   -51618.285   0.14644247 
   60200    285.95403    -477.9213    149224.79   -47609.612      3926.89   -51536.502   0.14486233 
   60300    291.79618    -485.0516    149242.85   -47571.583    4007.1179     -51578.7   0.14180467 
   60400    290.70544   -514.17656    149244.13   -47519.391    3992.1392    -51511.53   0.15014674 
   60500    291.87541   -533.18048    149247.89   -47546.377    4008.2059   -51554.583   0.14582728 
   60600     288.7777   -472.39166    149246.53   -47614.339    3965.6663   -51580.005   0.14149206 
   60700    293.09275   -455.44844    149275.11   -47435.875    4024.9231   -51460.798   0.14816911 
   60800    293.69442   -482.10504    149285.65   -47462.553    4033.1856   -51495.738   0.14316742 
   60900    287.26494    -519.0529    149268.54   -47556.859    3944.8922   -51501.751   0.14831098 
   61000    286.20318    -510.3178    149238.85   -47599.901    3930.3114   -51530.213   0.14362587 
   61100    289.76421   -567.25232    149229.06   -47585.921    3979.2136   -51565.134   0.14825378 
   61200    290.75421   -504.03674    149218.83   -47517.935     3992.809   -51510.744   0.14496094 
   61300    286.84055   -503.75058    149217.06   -47613.126    3939.0642    -51552.19   0.14595691 
   61400    291.70095   -503.51735    149236.24   -47666.347    4005.8102   -51672.157   0.13823006 
   61500     288.0743   -492.34261    149214.86   -47599.619    3956.0068   -51555.625   0.14402797 
   61600    287.86134   -514.31466    149200.55    -47647.18    3953.0824   -51600.262   0.14839352 
   61700     286.5062    -524.1079    149206.06   -47713.219    3934.4727   -51647.692   0.13958897 
   61800    284.33112   -487.19106    149190.57   -47696.632    3904.6033   -51601.235   0.14358382 
   61900    289.51258   -470.57762    149205.28   -47591.234    3975.7581   -51566.992   0.14184091 
   62000    287.64116   -494.31981     149218.6   -47598.867    3950.0586   -51548.925   0.14399116 
   62100    281.84689    -526.2062    149220.18   -47672.062    3870.4883    -51542.55   0.14459692 
   62200    287.03722   -517.40049    149197.35   -47561.715     3941.765    -51503.48   0.14858846 
   62300    288.96116   -498.96778    149196.15   -47611.712    3968.1857   -51579.897   0.14627548 
   62400    282.79718   -505.96838    149191.72   -47657.303    3883.5383   -51540.841   0.14738137 
   62500    289.83855   -511.48866    149188.76   -47646.433    3980.2346   -51626.667   0.14421606 
   62600    284.71451   -521.89166    149171.93   -47679.994    3909.8681   -51589.862   0.14884698 
   62700    287.99673   -509.33945    149145.52   -47713.023    3954.9415   -51667.965   0.14523658 
   62800    289.91664   -511.50481    149168.52   -47688.282    3981.3069   -51669.589   0.14254252 
   62900    287.36795   -520.16864    149191.07    -47593.22    3946.3067   -51539.527   0.14577188 
   63000    286.79128    -499.9507    149201.36   -47622.298    3938.3877   -51560.686   0.14598297 
   63100    288.65544   -469.63422    149189.62   -47694.586    3963.9874   -51658.573    0.1377577 
   63200    288.37253   -506.52148    149211.92   -47572.132    3960.1022   -51532.234   0.14643959 
   63300    287.51841    -492.9706    149208.75   -47673.891     3948.373   -51622.264   0.14419849 
   63400    282.66231   -504.56209    149209.27   -47763.991    3881.6862   -51645.677   0.13951702 
   63500    286.08913   -495.89392    149218.97   -47742.685    3928.7452    -51671.43    0.1391276 
   63600    283.84023   -512.76326    149200.01   -47794.955     3897.862   -51692.817   0.13775818 
   63700    282.81396    -492.0453    149177.08   -47755.629    3883.7687   -51639.398   0.13936733 
   63800    283.50449   -488.16297    149184.37   -47827.927    3893.2515   -51721.178   0.14048462 
   63900    286.31786   -479.59471    149192.06   -47716.369    3931.8863   -51648.255   0.14091402 
   64000    285.06827   -492.78014    149195.35   -47629.262    3914.7262   -51543.989   0.14887068 
   64100    291.45906   -481.97757    149203.76    -47583.04    4002.4883   -51585.528   0.14494483 
   64200     293.7425   -520.60772    149241.14   -47576.726    4033.8458   -51610.572   0.14268244 
   64300    288.59767   -504.86658    149216.16   -47612.745     3963.194   -51575.939   0.14418619 
   64400    284.12258   -527.15822    149190.32   -47665.694    3901.7394   -51567.433   0.14717419 
   64500     284.1753   -509.10646    149198.88   -47655.601    3902.4634   -51558.065   0.14690403 
   64600    291.44831   -528.48783    149187.59   -47695.058    4002.3407   -51697.399   0.14056325 
   64700    286.03171   -467.04678    149199.73   -47693.513    3927.9567   -51621.469   0.14217792 
   64800    288.90126   -473.84274    149208.66   -47638.821    3967.3631   -51606.184   0.14122422 
   64900    291.85171   -482.66838    149214.59   -47555.208    4007.8804   -51563.088   0.14663745 
   65000    283.02658   -538.36574    149239.74   -47547.236    3886.6886   -51433.924   0.15070207 
   65100    291.42927   -499.04392    149198.85   -47611.387    4002.0792   -51613.466   0.14137073 
   65200    288.08396   -500.19171    149189.74    -47631.21    3956.1394   -51587.349   0.14345328 
   65300    286.47985   -492.11823    149225.94   -47567.089    3934.1109     -51501.2   0.14815372 
   65400    287.63611   -479.57247     149204.6   -47604.592    3949.9893   -51554.581   0.13918497 
   65500    286.89184   -496.07696    149226.71   -47540.142    3939.7686    -51479.91   0.14970184 
   65600    290.38317    -499.4614     149268.8   -47564.172    3987.7136   -51551.886   0.14370575 
   65700    293.21221   -519.50729    149251.09   -47522.056    4026.5637   -51548.619   0.14683219 
   65800    286.95841   -487.40291    149224.47    -47584.97    3940.6828   -51525.652   0.14488407 
   65900    290.38156   -512.24054    149220.39   -47597.067    3987.6915   -51584.759   0.14200127 
   66000    290.73064   -511.26047    149245.65   -47611.228    3992.4853   -51603.713   0.14465469 
   66100    288.96154   -503.81864    149234.89   -47575.587    3968.1909   -51543.777   0.14406176 
   66200    288.13194   -507.47949    149200.39    -47710.51    3956.7983   -51667.309   0.14106343 
   66300    291.60119   -490.94458    149192.17   -47638.948    4004.4402   -51643.388   0.13878723 
   66400     283.5091   -490.66068    149192.36   -47640.422    3893.3148   -51533.737   0.14812027 
   66500    285.88895   -520.59209    149205.73   -47676.625    3925.9963   -51602.622   0.14501221 
   66600     286.4418   -513.28697       149188   -47678.639    3933.5883   -51612.227   0.14409566 
   66700    288.98039   -490.63165    149213.87    -47668.33    3968.4498    -51636.78   0.14191395 
   66800    288.28206   -534.20376    149226.94   -47695.371    3958.8599   -51654.231   0.13878117 
   66900    285.01653   -471.63449    149210.27   -47698.524    3914.0157   -51612.539    0.1375527 
   67000    281.23999   -502.54322    149172.25   -47802.217     3862.154   -51664.371   0.14477257 
   67100    287.96339     -520.242    149209.12   -47643.037    3954.4837   -51597.521   0.14345554 
   67200    288.22255   -535.97869    149208.65   -47749.597    3958.0426    -51707.64   0.14248301 
   67300    291.86253   -505.37161    149217.48   -47667.363     4008.029   -51675.392   0.13967871 
   67400    287.65674   -511.61391    149226.11   -47649.598    3950.2726   -51599.871   0.14106603 
   67500    286.77157   -492.82086    149229.34   -47633.851    3938.1169   -51571.968   0.14014166 
   67600    295.37207   -500.77447    149250.19   -47492.086    4056.2242    -51548.31   0.14267107 
   67700    294.32177   -495.82761    149258.09   -47566.678    4041.8007   -51608.478   0.14094708 
   67800    290.72205   -476.05718    149249.11   -47609.343    3992.3672    -51601.71   0.14030213 
   67900      289.736   -507.82534    149232.07   -47641.422    3978.8262   -51620.248   0.14134184 
   68000    287.41708   -469.10249    149209.88   -47671.567    3946.9814   -51618.548   0.14060955 
   68100    286.54165   -502.44851    149207.18   -47676.448    3934.9596   -51611.408   0.14377905 
   68200     289.5224   -507.79907    149215.08   -47640.994     3975.893   -51616.887   0.14346108 
   68300    285.93415   -521.29032    149229.11   -47586.454    3926.6169   -51513.071    0.1414987 
   68400    290.30011   -512.70539    149249.81   -47559.524    3986.5729   -51546.097   0.14689235 
   68500    288.13944   -505.99268    149246.84   -47556.777    3956.9013   -51513.678   0.14471835 
   68600    287.42028   -532.89067    149221.78   -47649.413    3947.0254   -51596.438   0.14327704 
   68700    290.87237   -479.28086    149216.17   -47623.594    3994.4316   -51618.026   0.14527062 
   68800    290.39975   -489.76979    149242.11   -47622.644    3987.9413   -51610.586   0.13698721 
   68900    286.76172    -514.4111    149207.49    -47618.32    3937.9816   -51556.301   0.14896793 
   69000    286.04254   -492.49996    149216.42   -47616.276    3928.1055   -51544.382   0.14372691 
   69100    291.84074   -508.53316    149189.04   -47678.447    4007.7298   -51686.176   0.14362114 
   69200    283.06986   -482.35037    149210.15   -47691.634    3887.2828   -51578.917   0.14164976 
   69300    285.06824   -497.52615    149211.92   -47727.502    3914.7258   -51642.227   0.13970486 
   69400    287.73231   -459.01888    149176.46   -47770.802    3951.3104   -51722.112   0.13613435 
   69500    290.12585   -472.22479    149207.12   -47638.195    3984.1799   -51622.375   0.14244208 
   69600    291.56598   -488.79852    149230.87    -47531.48    4003.9566   -51535.437   0.14430229 
   69700    285.12654   -510.61529    149215.46   -47625.629    3915.5264   -51541.156   0.14441129 
   69800    286.33539   -521.69078    149202.21   -47628.336     3932.127   -51560.463   0.14409276 
   69900    284.61372   -520.90214    149164.98   -47717.954    3908.4841   -51626.438   0.14412817 
   70000    283.95654    -516.9231    149204.74   -47649.415    3899.4593   -51548.875   0.13827873 
   70100    282.18599   -479.15376    149157.77   -47769.482     3875.145   -51644.627     0.142019 
   70200    289.82231   -457.69031    149160.75   -47600.719    3980.0116   -51580.731   0.14140643 
   70300    283.01677   -490.28208     149178.1   -47612.326    3886.5539    -51498.88   0.14493986 
   70400     287.3451   -523.66759    149172.57   -47497.336    3945.9931   -51443.329   0.15472963 
   70500    288.32123   -514.11831     149179.7   -47575.857    3959.3977   -51535.255   0.14043393 
   70600    290.81106   -545.54476    149184.18   -47638.261    3993.5896    -51631.85   0.14748777 
   70700    294.30679   -470.85217    149174.79   -47601.411     4041.595   -51643.006   0.14025431 
   70800    290.55959   -491.74763    149170.36   -47635.284    3990.1363    -51625.42   0.14224259 
   70900    286.28164   -510.15306    149164.99   -47624.863    3931.3889   -51556.252   0.14735834 
   71000    289.47128   -515.03463    149191.34   -47651.563    3975.1909   -51626.754   0.14082495 
   71100    287.32703     -515.453    149197.93   -47639.186    3945.7449   -51584.931   0.14466043 
   71200    283.39956   -480.01387     149187.5   -47677.084    3891.8106   -51568.895   0.14084404 
   71300    282.72551   -496.41957    149158.18   -47729.799     3882.554   -51612.353    0.1426043 
   71400    285.20444   -489.74157    149171.84   -47668.865    3916.5962   -51585.461   0.14336971 
   71500    285.44951   -491.99139    149186.59   -47622.372    3919.9617   -51542.334   0.14254846 
   71600    284.44928   -514.55982    149170.68   -47639.283    3906.2259   -51545.509   0.14953276 
   71700    287.15067   -530.59774    149164.54   -47627.535    3943.3229   -51570.858   0.14740255 
   71800    282.59679   -493.43712    149118.31   -47799.497    3880.7863   -51680.284   0.14527998 
   71900    280.44884   -487.39607    149121.46   -47741.174    3851.2894   -51592.463   0.14310198 
   72000    292.42459   -513.71468    149155.13   -47713.538    4015.7475   -51729.286   0.14213779 
   72100    284.76131   -482.00162    149172.06   -47574.314    3910.5108   -51484.825   0.14920642 
   72200    293.97976   -495.03065     149211.7   -47469.178     4037.104   -51506.282   0.14584928 
   72300    291.46711   -497.71443    149225.69   -47442.403    4002.5988   -51445.002    0.1494833 
   72400     286.5589   -522.02576     149198.5   -47565.756    3935.1964   -51500.952   0.14979022 
   72500    295.72027   -484.73045     149190.8   -47557.124    4061.0058    -51618.13   0.14467477 
   72600    290.37524   -495.91331    149207.18   -47498.246    3987.6047    -51485.85   0.15087149 
   72700    286.84255   -520.58873    149186.71   -47661.461    3939.0916   -51600.553   0.14208767 
   72800    290.51198   -475.01823    149211.05   -47589.755    3989.4825   -51579.237   0.14416422 
   72900    287.70886   -485.44823    149218.17   -47597.712    3950.9883     -51548.7   0.14273234 
   73000    293.12228   -480.30674    149210.61   -47608.139    4025.3286   -51633.468   0.14043472 
   73100    294.21004   -489.46797    149221.69   -47565.422    4040.2664   -51605.688    0.1467252 
   73200    287.05562   -505.05601    149235.29   -47550.523    3942.0177   -51492.541   0.14517986 
   73300    293.19765   -532.94868    149251.61   -47530.101    4026.3637   -51556.464   0.14755364 
   73400    290.85775   -509.10614    149254.19   -47511.728    3994.2308   -51505.959   0.14319612 
   73500    292.51849   -518.68081    149232.04   -47521.187    4017.0371   -51538.224   0.14944086 
   73600    295.03365   -495.35436    149207.19   -47563.981    4051.5768   -51615.558   0.14259035 
   73700    285.14684   -504.45442    149184.93   -47618.037    3915.8052   -51533.842   0.14380089 
   73800    284.56396   -510.92857    149159.65   -47709.264    3907.8007   -51617.065   0.14179294 
   73900    289.98193   -458.98974    149145.55   -47685.899    3982.2036   -51668.103   0.14101143 
   74000    284.48874    -513.9687     149154.1   -47609.284    3906.7678   -51516.051   0.14587153 
   74100    298.67964   -472.07176    149219.76   -47448.653    4101.6456   -51550.299   0.14596452 
   74200    293.92286   -526.88647    149201.12   -47614.656    4036.3226   -51650.979   0.14528106 
   74300    290.11748   -507.78284    149169.91   -47611.384    3984.0649   -51595.449   0.14396881 
   74400    287.18742   -516.06796    149177.55   -47645.683    3943.8276    -51589.51   0.14415059 
   74500    286.73638   -480.92723    149151.87   -47660.916    3937.6337    -51598.55   0.14392856 
   74600    282.47445   -505.88562    149167.04   -47664.523    3879.1063   -51543.629   0.14513077 
   74700    289.20373   -517.55338    149193.96    -47582.12    3971.5167   -51553.637   0.14650932 
   74800    292.49962   -471.72921    149184.31   -47634.615    4016.7779   -51651.393   0.13716136 
   74900    286.93432   -520.30521    149189.18   -47639.261    3940.3519   -51579.613   0.14183599 
   75000    290.93534   -472.38346    149175.73   -47618.319    3995.2963   -51613.615   0.14342191 
   75100     288.6527   -474.56874    149205.05   -47548.793    3963.9498   -51512.743   0.14367955 
   75200    292.03223   -496.83686    149213.84   -47603.923    4010.3595   -51614.283   0.14447133 
   75300    282.95751   -488.00818    149201.26   -47646.341    3885.7401   -51532.081   0.14292689 
   75400    286.77162   -528.39387    149192.67   -47657.824    3938.1176   -51595.941   0.14264114 
   75500    284.57847   -520.98083    149197.84   -47659.626         3908   -51567.626   0.14535249 
   75600    289.08339   -504.13811    149219.96   -47583.421    3969.8643   -51553.286   0.14476592 
   75700    289.25539   -508.27012    149245.91   -47544.129    3972.2262   -51516.355   0.14544931 
   75800    290.80258   -515.73327    149265.22   -47567.187    3993.4731    -51560.66   0.14198038 
   75900    292.22729   -492.50383    149245.12   -47583.129    4013.0381   -51596.167   0.14143424 
   76000    289.92705   -496.28474    149236.24   -47587.323    3981.4498   -51568.773   0.14405099 
   76100    291.78341   -527.89886    149236.62   -47684.186    4006.9425   -51691.129   0.14030975 
   76200    286.99551   -488.82695    149228.34   -47732.066    3941.1923   -51673.259    0.1367721 
   76300    284.09022   -486.28529    149215.04   -47667.169    3901.2951   -51568.464   0.14049447 
   76400    282.14833   -498.78098    149207.68   -47658.883    3874.6278   -51533.511   0.14732551 
   76500    291.52589   -470.11186    149222.78   -47649.647    4003.4061   -51653.053   0.13763036 
[...]
   81900       288.67   -479.80591    149202.52   -47685.215    3964.1873   -51649.402   0.14159235 
   82000     285.3992    -487.2408    149224.23   -47592.689    3919.2708    -51511.96   0.14640016 
   82100    289.91649   -522.52111    149259.93   -47550.365    3981.3049    -51531.67   0.14610563 
   82200    289.94231   -515.73787    149280.02    -47564.88    3981.6594   -51546.539   0.14408572 
   82300    286.93626   -521.88104    149253.78   -47638.559    3940.3786   -51578.938    0.1435045 
   82400    290.89059   -493.95783    149282.25   -47514.731    3994.6818   -51509.413   0.14595899 
   82500    294.35884   -499.93273    149319.92   -47418.318    4042.3098   -51460.628   0.14597368 
   82600    295.77549   -500.78807    149287.07   -47523.096    4061.7641    -51584.86   0.14500262 
   82700    288.50495   -511.49977     149245.3   -47603.729    3961.9208    -51565.65    0.1423475 
   82800    285.68396   -473.91562    149237.71   -47611.958    3923.1812    -51535.14   0.14373426 
   82900    290.53269   -500.55752    149248.89   -47567.646    3989.7668   -51557.413   0.14357731 
   83000    289.18759    -506.4629    149274.38   -47505.908    3971.2952   -51477.203   0.14728751 
   83100    293.83398   -506.98855    149266.72   -47543.786    4035.1021   -51578.888   0.13896628 
   83200    288.04782   -528.20044    149258.66   -47577.857    3955.6431     -51533.5   0.14492816 
   83300     289.5068   -515.00631    149242.38   -47562.307    3975.6788   -51537.986   0.14217606 
   83400     286.1813    -535.1616    149243.73   -47645.803     3930.011   -51575.814   0.13844814 
   83500    289.32945   -461.58819    149204.15   -47750.428    3973.2433   -51723.672   0.13727809 
   83600      286.422   -514.07512    149210.75   -47693.759    3933.3164   -51627.076   0.13875295 
   83700     289.6468   -489.60413    149211.33   -47722.789    3977.6014    -51700.39   0.13602821 
   83800    284.07113   -469.04213    149219.24    -47683.97    3901.0329   -51585.003   0.13637157 
   83900    287.57189   -481.89761    149212.87    -47684.74    3949.1074   -51633.848   0.14064954 
   84000    281.76937   -515.43913    149190.78   -47703.657    3869.4238    -51573.08   0.14441867 
   84100    285.61612   -512.51236    149207.97   -47629.033    3922.2496   -51551.283   0.14747723 
   84200    289.93226   -536.28173    149236.47   -47587.024    3981.5214   -51568.545   0.14442962 
   84300      287.394   -467.00634    149228.01   -47637.355    3946.6645   -51584.019   0.14001705 
   84400    287.94652    -509.7911     149204.2   -47627.199     3954.252   -51581.451   0.14178054 
   84500    287.09783   -477.46465    149190.95   -47686.376    3942.5974   -51628.974   0.13931295 
   84600    288.65565   -520.07936    149220.54   -47603.458    3963.9903   -51567.448   0.14671342 
   84700    288.27409   -527.24012    149195.17   -47610.291    3958.7505   -51569.042   0.14764821 
   84800    288.33942   -506.31191    149205.67   -47603.605    3959.6476   -51563.252   0.14407904 
   84900    296.45603   -500.64769    149225.99   -47526.983    4071.1096   -51598.093   0.14583186 
   85000     288.4308   -504.46956    149204.97   -47596.526    3960.9025   -51557.428   0.14369438 
   85100    289.19355   -475.16492    149205.69   -47619.156    3971.3769   -51590.533    0.1424064 
   85200    286.61043   -482.66281    149217.43   -47661.514    3935.9041   -51597.418   0.14299977 
   85300    285.48119   -526.09964     149215.8   -47670.022    3920.3966   -51590.418   0.14125211 
   85400    283.12824   -507.40965    149197.84   -47699.305    3888.0846    -51587.39   0.14516525 
   85500    289.31989   -463.08462    149203.96   -47639.596     3973.112   -51612.708   0.14338278 
   85600    290.41287   -499.34859    149208.41   -47677.674    3988.1215   -51665.796   0.13891972 
   85700    289.86328   -487.31171    149235.65   -47617.687    3980.5742   -51598.261   0.14388902 
   85800    289.06687   -501.61193    149235.81   -47609.067    3969.6374   -51578.704   0.13981597 
   85900    287.56543   -498.54521    149239.98   -47578.313    3949.0188   -51527.332   0.14643817 
   86000    285.25509    -495.3536    149225.88   -47627.114    3917.2917   -51544.406   0.14168261 
   86100    286.86252    -478.2034    149252.63   -47602.219    3939.3659   -51541.585   0.14203096 
   86200      290.625   -489.95612    149280.34   -47568.388    3991.0346   -51559.423   0.14197718 
   86300    287.48199    -499.1786    149262.78   -47615.907    3947.8728    -51563.78   0.13979118 
   86400    283.24192   -515.91778    149235.01   -47675.098    3889.6457   -51564.743    0.1387935 
   86500    284.99149   -510.22156    149233.66   -47705.456    3913.6718   -51619.127   0.13965054 
   86600    292.47868   -491.40591    149245.17   -47549.007    4016.4904   -51565.497   0.14655899 
   86700    292.09893   -506.06559    149267.58   -47553.503    4011.2753   -51564.778   0.14059671 
   86800    284.47792   -536.28884    149220.03   -47670.042    3906.6192   -51576.661   0.14257007 
   86900    287.01786   -526.26213    149220.59   -47654.887    3941.4992   -51596.386   0.14213501 
   87000    280.11068   -507.73811    149249.73   -47622.845    3846.6457    -51469.49   0.14475521 
   87100    285.37227   -499.31842    149243.15   -47598.122    3918.9009   -51517.022   0.14680944 
   87200    292.41806   -493.71276     149268.6   -47534.734    4015.6578   -51550.392   0.14387407 
   87300    291.49665   -486.51785     149254.1    -47547.29    4003.0046   -51550.294   0.14391435 
   87400    289.70232   -477.14314    149242.17   -47601.367    3978.3637   -51579.731   0.14142708 
   87500    289.71541   -540.41532    149253.35   -47577.418    3978.5434   -51555.962   0.14655923 
   87600    288.34533   -528.38438    149231.05   -47598.574    3959.7288   -51558.303   0.14694784 
   87700    289.85648   -519.74412    149245.15   -47566.871    3980.4807   -51547.352   0.14656392 
   87800    287.70149   -512.90488     149212.3   -47650.914    3950.8872   -51601.801   0.13945869 
   87900    286.43871   -511.35953    149215.72   -47677.385    3933.5459   -51610.931   0.14429822 
   88000    293.49813   -498.47235    149227.67   -47645.816    4030.4901   -51676.306   0.14077601 
   88100    290.04791   -493.25903    149243.79   -47614.334    3983.1096   -51597.444   0.14325257 
   88200    284.87655   -546.91754    149218.71   -47717.316    3912.0933   -51629.409   0.14253473 
   88300    288.12367   -488.00886    149217.43   -47656.205    3956.6848   -51612.889   0.14103713 
   88400     289.3966   -517.27176    149246.87   -47589.182    3974.1654   -51563.347   0.14227281 
   88500    285.30191   -494.93687    149230.06   -47655.923    3917.9346   -51573.858   0.14001374 
   88600    290.28915   -493.71876    149253.09   -47650.801    3986.4225   -51637.223   0.13981494 
   88700    290.22072   -496.39233    149245.78   -47623.881    3985.4828   -51609.364   0.14117549 
   88800    282.90573   -507.92202    149250.58   -47690.557    3885.0289   -51575.586   0.14172093 
   88900    286.70698   -472.64309     149236.1   -47625.828    3937.2299   -51563.058   0.14016804 
   89000    286.83613   -496.19726    149251.88   -47591.905    3939.0035   -51530.908   0.14590689 
   89100    286.26419   -508.66532    149249.17   -47641.225    3931.1493   -51572.374   0.14127262 
   89200    287.99486    -499.8712    149256.57   -47593.682    3954.9159   -51548.598   0.14404569 
   89300    289.64682   -517.29389    149225.78   -47712.036    3977.6016   -51689.638   0.13625034 
   89400    290.48587   -516.56177    149234.95   -47613.432     3989.124   -51602.556   0.14292824 
   89500    284.49639    -528.1782     149218.6   -47707.571    3906.8728   -51614.443   0.14419083 
   89600    285.70596   -517.82568    149203.06   -47739.033    3923.4834   -51662.516   0.14088821 
   89700    285.08715   -484.47841    149210.25   -47650.167    3914.9855   -51565.152   0.14339441 
   89800    291.36728   -520.00798    149243.61   -47587.368    4001.2279   -51588.596   0.14523548 
   89900    289.52448   -520.33958    149238.67   -47571.766    3975.9215   -51547.688   0.14731882 
   90000    292.06682   -509.40939    149254.17   -47594.687    4010.8344   -51605.521   0.14164982 
   90100    291.16131   -488.02333    149227.76   -47577.667    3998.3994   -51576.067   0.14456755 
   90200    282.13325   -497.35934    149232.01   -47651.998    3874.4208   -51526.419   0.14390414 
   90300    288.81149   -487.81817    149234.19   -47626.833    3966.1303   -51592.963    0.1448749 
   90400    287.69115   -497.19843    149220.76   -47607.374    3950.7452   -51558.119   0.14515204 
   90500    287.52992   -484.23625    149198.02    -47619.71     3948.531   -51568.241   0.14453569 
   90600    288.65216   -499.78585    149206.88   -47650.212    3963.9423   -51614.154   0.14451048 
   90700    287.16385    -496.7376    149185.49   -47675.832    3943.5039   -51619.336   0.14137168 
   90800    290.04097   -497.86211    149177.07   -47690.704    3983.0143   -51673.718   0.13928367 
   90900    284.33281   -511.30697     149182.5   -47668.048    3904.6265   -51572.674   0.14897761 
   91000    286.95338   -475.67919    149161.93   -47678.597    3940.6136    -51619.21   0.14007889 
   91100    278.33826   -515.92922    149146.63   -47784.738    3822.3057   -51607.044   0.14232512 
   91200    288.92085   -471.19541     149160.9   -47729.233    3967.6321   -51696.865   0.14296894 
   91300    288.92449   -494.21013    149159.83   -47665.227    3967.6821   -51632.909    0.1423581 
   91400    288.21756   -536.88459    149192.08   -47637.761    3957.9741   -51595.735    0.1474509 
   91500    291.69937   -484.19587    149232.64   -47472.525    4005.7884   -51478.314   0.14658189 
   91600     287.2786    -511.4769    149220.39   -47542.967    3945.0798   -51488.046   0.14895762 
   91700    288.23907   -513.90523    149216.71   -47618.117    3958.2696   -51576.386   0.14684406 
   91800    290.68771    -513.0961    149219.08   -47588.374    3991.8956   -51580.269   0.14401737 
   91900    287.72733   -511.16515    149232.75   -47580.616     3951.242   -51531.858   0.14635884 
   92000    285.21534   -525.57848    149239.37   -47626.293    3916.7458   -51543.039   0.14635813 
   92100    288.93342   -509.00377     149219.6   -47610.762    3967.8048   -51578.567   0.14304463 
   92200    290.99979    -490.7803    149226.72   -47644.569    3996.1813   -51640.751   0.13989824 
   92300    290.74622   -524.12663    149233.65   -47522.758    3992.6992   -51515.458   0.14973211 
   92400    290.54485   -489.56215    149227.53   -47570.398    3989.9338   -51560.331   0.14391282 
   92500    292.30214   -479.89203    149237.43   -47563.716    4014.0661   -51577.782   0.14496122 
   92600    295.87864   -497.49489     149249.6    -47466.18    4063.1806    -51529.36   0.14698804 
   92700    290.47438   -514.62699     149249.5   -47597.895    3988.9662   -51586.861   0.14678277 
   92800    288.37889   -514.11689    149232.63   -47611.863    3960.1896   -51572.052   0.14741853 
   92900     287.5155   -495.79116    149213.74   -47651.062    3948.3331   -51599.395   0.14353963 
   93000    284.88707   -531.23961    149212.42   -47653.155    3912.2378   -51565.393   0.14583136 
   93100    291.61951   -472.77466    149232.67   -47569.614    4004.6918   -51574.306   0.14612228 
   93200    284.87738   -512.98484    149235.06   -47626.935    3912.1047    -51539.04   0.14368258 
   93300    286.96768   -483.69218     149230.3   -47680.104      3940.81   -51620.914    0.1380222 
   93400     284.8564   -512.50836    149197.33   -47736.009    3911.8168   -51647.826   0.14614536 
   93500     283.3651   -518.60791     149203.9   -47735.611    3891.3373   -51626.948   0.14178445 
   93600    285.37964   -474.05939    149237.16   -47686.391    3919.0021   -51605.393   0.14002646 
   93700    287.13779   -548.23841     149238.8   -47664.582    3943.1461   -51607.728   0.14692251 
   93800     284.7797   -530.54209    149214.12   -47662.196    3910.7633    -51572.96   0.14605442 
   93900    282.56003   -497.46977    149204.15   -47739.861    3880.2816   -51620.142   0.14444585 
   94000    287.33064   -487.77858    149198.26   -47707.419    3945.7944   -51653.213   0.13973087 
   94100    291.59671   -494.40162    149212.11   -47589.915    4004.3786   -51594.294    0.1442215 
   94200    292.39701   -473.48367    149238.22   -47581.252    4015.3688   -51596.621   0.14536336 
   94300    290.89392   -500.06129    149219.47   -47599.311    3994.7275   -51594.039   0.14271305 
   94400    291.09103   -490.93437    149220.77   -47588.984    3997.4343   -51586.418   0.14013957 
   94500    291.95995   -504.93245    149225.43    -47592.11    4009.3669   -51601.477   0.15002914 
   94600    284.42788   -507.87075    149219.26    -47597.71    3905.9321   -51503.642   0.14484844 
   94700    286.25754   -462.94264    149217.45   -47634.808     3931.058   -51565.866   0.14460134 
   94800    285.73553   -501.88001    149222.06   -47679.485    3923.8894   -51603.374   0.14534656 
   94900    287.45512   -539.05018    149217.53   -47707.729    3947.5039   -51655.233   0.14021264 
   95000    287.15748   -530.03759    149236.69   -47669.327    3943.4165   -51612.744   0.14634298 
   95100     290.6623    -496.5776    149225.98   -47627.389    3991.5468   -51618.936   0.14217421 
   95200    284.29423   -509.53959    149238.02   -47652.047    3904.0966   -51556.144   0.14724415 
   95300    288.02003   -501.00612    149243.64   -47609.846    3955.2616   -51565.108   0.14776197 
   95400    284.39505   -476.47578    149259.64   -47579.128    3905.4811    -51484.61   0.14365562 
   95500    290.26934   -506.77053    149257.28   -47597.601    3986.1504   -51583.751   0.14581883 
   95600    294.95435   -491.06187    149246.91   -47581.749    4050.4877   -51632.236    0.1439118 
   95700    288.06492   -516.20262    149254.04   -47626.749    3955.8781   -51582.627   0.14383971 
   95800    287.35735   -490.06503    149263.99   -47564.672    3946.1612   -51510.833   0.14463041 
   95900    292.84474   -486.62324    149249.63   -47582.595    4021.5173   -51604.112    0.1432479 
   96000    291.11647    -498.7816    149252.97   -47553.373    3997.7837   -51551.157   0.14694793 
   96100    293.36116     -509.378    149255.02   -47501.565    4028.6091   -51530.174   0.14482385 
   96200    296.04763   -464.79962    149230.29   -47526.728    4065.5013   -51592.229   0.14555881 
   96300    287.49447   -503.24932    149225.21   -47542.664    3948.0443   -51490.708   0.14758034 
   96400    288.09091   -504.65164    149234.64   -47590.577    3956.2349   -51546.812   0.14475817 
   96500    288.23745   -520.60883    149238.65   -47589.499    3958.2473   -51547.746    0.1507704 
   96600    287.60384   -502.21234    149226.47   -47641.919    3949.5462   -51591.465   0.14093178 
   96700    286.56336    -525.7145     149231.5   -47610.199    3935.2577   -51545.457   0.15161466 
   96800    289.18412   -504.24857    149239.87   -47632.256    3971.2475   -51603.503   0.14551554 
   96900    292.35649   -521.00755    149221.74   -47638.688    4014.8123     -51653.5   0.14130199 
   97000    289.64251   -543.42357    149210.87   -47713.687    3977.5424   -51691.229    0.1484087 
   97100    287.47027   -494.73407    149196.15   -47681.119    3947.7119   -51628.831   0.13864009 
   97200    286.55659   -516.98536    149196.87   -47622.743    3935.1647   -51557.907   0.15154869 
   97300    290.29873   -486.57318    149229.85   -47507.577    3986.5539   -51494.131   0.14644309 
   97400    293.78583   -520.22374    149247.73   -47609.986    4034.4409   -51644.427   0.14601377 
   97500    290.60753   -492.11324    149214.38   -47573.629    3990.7947   -51564.424   0.14812335 
   97600    292.61714   -487.10824    149220.99   -47513.328    4018.3917   -51531.719   0.14240944 
   97700    288.89483   -494.82126    149244.05   -47475.816    3967.2748   -51443.091   0.14951672 
   97800    291.59932   -516.92721    149219.87   -47584.946    4004.4144   -51589.361   0.14579309 
   97900    288.64132   -491.75174     149247.7   -47543.266    3963.7935   -51507.059    0.1484273 
   98000    289.10511     -492.217    149208.23   -47627.309    3970.1625   -51597.472   0.14331198 
   98100    287.07254   -522.51655    149209.36   -47611.923      3942.25   -51554.173   0.14536702 
   98200    292.62486   -473.58207    149207.61   -47612.076    4018.4978   -51630.574   0.14411082 
   98300    294.12505    -500.9179    149217.71   -47545.366    4039.0993   -51584.465   0.14577202 
   98400    290.61598   -544.97171    149214.55   -47590.659    3990.9106    -51581.57    0.1475471 
   98500    292.12301   -485.47218    149212.12   -47564.611    4011.6061   -51576.218   0.14717828 
   98600    292.42867   -474.64616    149214.76    -47571.54    4015.8036   -51587.344   0.14152456 
   98700    290.50602   -483.85953    149234.37   -47541.521    3989.4006   -51530.921   0.14701308 
   98800    287.40663   -531.68839    149220.46   -47549.267     3946.838   -51496.105   0.14677257 
   98900    289.41039   -516.85984    149199.74    -47616.35    3974.3548   -51590.705   0.15004128 
   99000    289.65669   -475.55597    149191.68   -47607.155    3977.7371   -51584.892   0.14174734 
   99100    287.57561   -530.41399    149180.52   -47669.817    3949.1585   -51618.975   0.14548352 
   99200     286.1467   -514.99957    149188.86   -47671.095    3929.5359   -51600.631   0.14903948 
   99300    291.10613    -499.8396    149205.28   -47598.824    3997.6417   -51596.465   0.14273936 
   99400    291.08958   -503.32683    149204.44   -47634.625    3997.4144   -51632.039   0.14508501 
   99500    293.65516   -492.89908    149204.91     -47589.4    4032.6465   -51622.046   0.14402686 
   99600    288.73184   -505.45366    149200.44   -47581.293    3965.0365    -51546.33   0.14754697 
   99700    284.44462   -484.04844    149192.81   -47628.253    3906.1619   -51534.415     0.149074 
   99800    287.35215   -498.87271    149206.18   -47646.733    3946.0898   -51592.823    0.1425319 
   99900    281.88368   -484.66905     149188.8   -47697.444    3870.9935   -51568.438   0.14954138 
  100000    287.55192   -510.61097    149218.52   -47620.305    3948.8332   -51569.139   0.14705628 
Loop time of 53.2698 on 6 procs for 100000 steps with 4608 atoms

Performance: 810.966 ns/day, 0.030 hours/ns, 1877.235 timesteps/s
97.9% CPU use with 6 MPI tasks x no OpenMP threads

MPI task timing breakdown:
Section |  min time  |  avg time  |  max time  |%varavg| %total
---------------------------------------------------------------
Pair    | 38.828     | 39.141     | 39.476     |   4.1 | 73.48
Neigh   | 6.2229     | 6.3101     | 6.4535     |   4.0 | 11.85
Comm    | 4.6752     | 5.091      | 5.4912     |  12.2 |  9.56
Output  | 0.17375    | 0.17482    | 0.17957    |   0.5 |  0.33
Modify  | 1.8714     | 1.9252     | 1.9782     |   2.5 |  3.61
Other   |            | 0.6277     |            |       |  1.18

Nlocal:        768.000 ave         774 max         759 min
Histogram: 1 1 0 0 0 0 1 0 1 2
Nghost:        1397.33 ave        1405 max        1387 min
Histogram: 1 1 0 1 0 0 0 0 0 3
Neighs:        0.00000 ave           0 max           0 min
Histogram: 6 0 0 0 0 0 0 0 0 0
FullNghs:      21880.3 ave       22069 max       21554 min
Histogram: 1 0 1 0 0 0 0 1 1 2

Total # of neighbors = 131282
Ave neighs/atom = 28.490017
Neighbor list builds = 6234
Dangerous builds = 0

undump              1
unfix               2
unfix               3
unfix               4




################################################
#######         Run Simulation         #########
################################################

reset_timestep      0
log                 log.run_${NAME}
log                 log.run_ice_289K_-500atm_ML
