

read_data data.ice_${TEMP}K_${PRES}atm_ML group ice
read_data data.ice_289K_${PRES}atm_ML group ice
read_data data.ice_289K_-500atm_ML group ice
Reading data file ...
  orthogonal box = (-0.057631973 -0.051228421 -0.051228421) to (57.328142 50.958348 50.958348)
  3 by 1 by 2 MPI processor grid
  reading atoms ...
  4608 atoms
  reading velocities ...
  4608 velocities
  read_data CPU = 0.014 seconds
read_data data.liq_${TEMP}K_${PRES}atm_ML add append shift ${X_HI} ${YZ_LO} ${YZ_LO} group water
read_data data.liq_289K_${PRES}atm_ML add append shift ${X_HI} ${YZ_LO} ${YZ_LO} group water
read_data data.liq_289K_-500atm_ML add append shift ${X_HI} ${YZ_LO} ${YZ_LO} group water
read_data data.liq_289K_-500atm_ML add append shift 50.9583484207778 ${YZ_LO} ${YZ_LO} group water
read_data data.liq_289K_-500atm_ML add append shift 50.9583484207778 0.0512284207828095 ${YZ_LO} group water
read_data data.liq_289K_-500atm_ML add append shift 50.9583484207778 0.0512284207828095 0.0512284207828095 group water
Reading data file ...
  orthogonal box = (-0.057631973 -0.070977994 -0.070977994) to (104.38143 51.080555 51.080555)
  3 by 1 by 2 MPI processor grid
  reading atoms ...
  4608 atoms
  reading velocities ...
  4608 velocities
  read_data CPU = 0.010 seconds

write_data data.icewater_test
System init for write_data ...
WARNING: Communication cutoff is 0.0. No ghost atoms will be generated. Atoms may get lost. (../comm_brick.cpp:167)

# Define potential
#
pair_style sw
pair_coeff * * /data/emrosky-sim/Freezing_Simulations/Melting/MLmW_fancy/ML_mW.sw mW
Reading sw potential file /data/emrosky-sim/Freezing_Simulations/Melting/MLmW_fancy/ML_mW.sw with DATE: 2019-02-27

# Delete water and ice atoms that are overlapping
#
delete_atoms overlap 2.5 water ice
System init for delete_atoms ...
Neighbor list info ...
  update every 1 steps, delay 10 steps, check yes
  max neighbors/atom: 2000, page size: 100000
  master list distance cutoff = 6.0032907
  ghost atom cutoff = 6.0032907
  binsize = 3.0016454, bins = 35 18 18
  2 neighbor lists, perpetual/occasional/extra = 1 1 0
  (1) command delete_atoms, occasional, copy from (2)
      attributes: full, newton on
      pair build: copy
      stencil: none
      bin: none
  (2) pair sw, perpetual
      attributes: full, newton on
      pair build: full/bin/atomonly
      stencil: full/bin/3d
      bin: standard
Deleted 681 atoms, new total = 8535

# set timestep
#
timestep 10.0

# Define output
#
compute 1 all msd
thermo 50
thermo_style custom step temp press vol etotal ke pe c_1[4]

# Neighbor lists
#
neigh_modify delay 0 every 1 check yes

# Set fixes
#
fix 1 all momentum 10 linear 1 1 1 rescale
fix 2 all nph iso ${PRES} ${PRES} ${PCOUPL}
fix 2 all nph iso -500 ${PRES} ${PCOUPL}
fix 2 all nph iso -500 -500 ${PCOUPL}
fix 2 all nph iso -500 -500 10000.0
fix 3 all temp/csvr ${TEMP} ${TEMP} ${TCOUPL} 837492
fix 3 all temp/csvr 289 ${TEMP} ${TCOUPL} 837492
fix 3 all temp/csvr 289 289 ${TCOUPL} 837492
fix 3 all temp/csvr 289 289 5000.0 837492


# Fix ice atoms in place
#
velocity ice set 0.0 0.0 0.0
fix 4 ice setforce 0.0 0.0 0.0

# Run 1.0 ns equilibration of water
#
dump 1 all atom 1000 eq.all.${NAME}.dump
dump 1 all atom 1000 eq.all.coexist_289K_-500atm_ML.dump
run 100000
Neighbor list info ...
  update every 1 steps, delay 0 steps, check yes
  max neighbors/atom: 2000, page size: 100000
  master list distance cutoff = 6.0032907
  ghost atom cutoff = 6.0032907
  binsize = 3.0016454, bins = 35 18 18
  1 neighbor lists, perpetual/occasional/extra = 1 0 0
  (1) pair sw, perpetual
      attributes: full, newton on
      pair build: full/bin/atomonly
      stencil: full/bin/3d
      bin: standard
Per MPI rank memory allocation (min/avg/max) = 4.592 | 4.599 | 4.605 Mbytes
Step Temp Press Volume TotEng KinEng PotEng c_1[4] 
       0    132.46537   -917.33236    273262.64   -84224.621    3369.6849   -87594.306            0 
      50    161.61563   -860.47528    272255.42   -83916.677    4111.2161   -88027.893   0.83084735 
     100    166.32684   -230.68551    270318.07   -83580.591    4231.0609   -87811.651    1.6799716 
     150      170.085    101.54244    269260.28   -83241.842     4326.662   -87568.504    2.6972274 
     200    177.43661    -188.2332    269929.79   -83020.636    4513.6737    -87534.31    3.7282583 
     250    181.04843   -524.14173    271207.26   -82723.493    4605.5523   -87329.045    4.8411178 
     300    185.97087   -459.33967    271947.43   -82393.713    4730.7702   -87124.483    6.1242814 
     350    188.56232   -615.87748    272235.69   -82176.421    4796.6922   -86973.114    7.2525821 
     400    196.14525   -577.59551    271980.46   -81959.325    4989.5886   -86948.914    8.6508222 
     450    199.15151   -469.99533    271696.14   -81700.315    5066.0624   -86766.377    9.9725632 
     500    201.71357   -504.55859    271687.04    -81507.09    5131.2368   -86638.327    11.386116 
     550    204.62712   -504.46589    271913.85   -81312.119    5205.3524   -86517.472    12.780528 
     600    205.67711   -449.54537    272481.23   -81118.876    5232.0623   -86350.938    14.354514 
     650    211.96622   -543.28149    272951.92   -80920.635     5392.046   -86312.681    16.145589 
     700    213.76333   -497.29886    273015.29   -80728.734    5437.7614   -86166.496    17.735227 
     750     220.6807   -399.89125    272854.74   -80566.962    5613.7271   -86180.689    19.456325 
     800    225.34104   -395.89075    272845.13   -80386.859    5732.2779   -86119.136    21.423639 
     850    227.67241   -600.63098    273004.59   -80198.124    5791.5839   -85989.708    23.252504 
     900    231.18671    -568.7654    273218.02   -80037.595    5880.9815   -85918.576    25.142763 
     950    227.58005   -515.97157    273499.54   -79874.682    5789.2344   -85663.916    27.362106 
    1000    232.69543   -773.72252    273812.26    -79733.11    5919.3607   -85652.471    29.623913 
    1050    235.69797   -537.09556    273817.83   -79614.499    5995.7398   -85610.239    31.724127 
    1100    234.62322   -31.073522    273477.12   -79505.891       5968.4   -85474.291    34.178152 
    1150    240.90977   -464.74046    273653.31   -79384.862     6128.319   -85513.181    36.354401 
    1200    241.98281   -451.91058    274263.72    -79281.93     6155.615   -85437.545    38.725698 
    1250    246.01481   -624.95578    274692.97   -79177.672    6258.1819   -85435.854    41.172007 
    1300    249.93124   -470.15206    274528.26   -79094.532    6357.8091   -85452.341    43.240827 
    1350    245.63993   -651.63014    274233.58   -79002.393    6248.6458   -85251.038    45.253769 
    1400    249.67188   -525.39829    274144.68   -78882.214    6351.2113   -85233.425    47.568246 
    1450     250.5307   -592.69009    274493.01   -78773.175    6373.0584   -85146.233    49.953329 
    1500    247.86633   -277.73409    274843.33   -78692.612    6305.2813   -84997.894    52.732909 
    1550    253.56215   -601.90508    275062.36   -78613.503    6450.1731   -85063.676    55.309602 
    1600    256.66674   -461.79834    274920.68   -78530.081    6529.1482   -85059.229    57.791334 
    1650    258.50937   -458.11583    274963.95   -78462.798    6576.0216   -85038.819    60.188185 
    1700    259.02142   -402.35996    275148.09   -78361.076    6589.0472   -84950.123    62.888999 
    1750    263.30556   -593.50627    275232.03   -78304.056    6698.0281   -85002.084    65.321849 
    1800     262.3952   -472.32291    275099.64   -78208.222    6674.8703   -84883.092    67.753664 
    1850    264.19535   -226.70101    274849.35   -78125.219    6720.6628   -84845.882    70.641617 
    1900    267.89641   -601.30641    275010.69   -78037.914    6814.8112   -84852.726     73.78373 
    1950    265.91903   -404.54596    275275.68   -77960.861    6764.5102   -84725.371    76.364358 
    2000    270.27901   -646.84966    275534.13   -77871.041    6875.4204   -84746.461    79.057075 
    2050    270.57774   -463.46567    275522.71    -77858.82    6883.0195   -84741.839    81.643523 
    2100    269.98847   -658.36171     275531.2   -77831.468    6868.0296   -84699.498    84.068121 
    2150    270.48316   -758.50463    275607.33   -77773.016    6880.6137   -84653.629    87.113524 
    2200    269.80964   -451.98897    275720.56   -77701.881    6863.4804   -84565.361    89.724113 
    2250    272.55745   -492.34239    275875.25   -77675.006    6933.3799   -84608.386    92.807116 
    2300    270.03443   -389.98526    275773.29   -77582.475    6869.1988   -84451.674    94.939895 
    2350    274.27924   -360.65368    275730.14    -77490.96    6977.1792   -84468.139    97.701285 
    2400    272.21593   -237.00548    275840.73   -77468.114    6924.6922   -84392.806    100.78078 
    2450    275.90337   -388.86789    276176.66    -77419.56    7018.4943   -84438.054    103.94366 
    2500     275.2573   -650.74471     276467.7   -77339.104    7002.0593   -84341.163    105.86163 
    2550    277.77808   -389.27856    276248.66   -77315.542    7066.1835   -84381.726    108.77838 
    2600    278.21177   -543.77231     275868.4    -77294.48    7077.2157   -84371.696    110.91194 
    2650    282.69618   -466.12667    275746.55   -77212.664    7191.2912   -84403.955    113.27255 
    2700    279.11317   -413.14762     276227.7   -77177.021     7100.146   -84277.167    116.40296 
    2750    280.43105   -584.12134    276881.25   -77185.334    7133.6704   -84319.004    119.41381 
    2800    283.25198   -765.68176    276914.57    -77158.25    7205.4299    -84363.68    122.41125 
    2850    276.68899   -721.17506    276558.21   -77159.952    7038.4791   -84198.431    125.57429 
    2900    279.48011   -219.38205    275944.54   -77179.502    7109.4801   -84288.982    128.78255 
    2950    285.14038   -294.27952    275786.55   -77180.963    7253.4674    -84434.43    131.86439 
    3000    284.27111   -517.12584    276126.25   -77128.878    7231.3546   -84360.233    134.90286 
    3050    281.69389   -499.28626    276553.55   -77130.643    7165.7948   -84296.438    138.58963 
    3100    279.68699   -694.06741    276825.32   -77108.124    7114.7427   -84222.867    141.76302 
    3150    283.30112    -436.2441    276607.36   -77112.929    7206.6798   -84319.609    144.69348 
    3200    282.02485   -228.85571       276356   -77076.187    7174.2138   -84250.401    147.40248 
    3250    282.97071   -430.63198    276503.67   -77047.571    7198.2749   -84245.846    150.20918 
    3300    283.80686   -666.85937    276782.66   -76989.338    7219.5449   -84208.883    153.74155 
    3350    288.96805   -924.11422    276913.47   -76888.953    7350.8366    -84239.79    157.12156 
    3400    286.19559    -283.2056    276398.14   -76942.318    7280.3102   -84222.628    160.17238 
    3450    290.42979   -342.29785    276051.32   -76972.838    7388.0207   -84360.859    163.27633 
    3500    287.08935   -390.92669    276164.55   -76960.259    7303.0459   -84263.305    166.31606 
    3550    289.11371   -700.04776    276739.44   -76921.998    7354.5419    -84276.54    169.48215 
    3600    283.63701   -760.90729    277091.22   -76930.253    7215.2242   -84145.478     172.9098 
    3650    287.02517   -574.74949    276692.84   -76942.443    7301.4131   -84243.856    175.48179 
    3700    288.23112   -414.52866    276287.14   -76942.262    7332.0904   -84274.353    178.40414 
    3750     283.6369   -490.89044    276419.86   -76962.795    7215.2215   -84178.016    181.28027 
    3800    292.61995   -933.59627    276797.24   -76967.287    7443.7346   -84411.021    184.08782 
    3850    282.26114   -700.11786    276843.18   -76951.228    7180.2246   -84131.453    186.98989 
    3900    285.12895   -257.37636     276327.4   -76964.091    7253.1766   -84217.267     190.0641 
    3950    287.47726   -384.98955    276201.86   -76923.679    7312.9136   -84236.592    192.30455 
    4000    280.22608   -385.50517    276519.39   -76918.131    7128.4564   -84046.588    194.57197 
    4050    282.18773   -614.84137    276856.33   -76903.628    7178.3572   -84081.986    197.44363 
    4100    288.23713   -488.31913    276762.81   -76903.574    7332.2434   -84235.818     200.5619 
    4150    289.11051   -567.37605    276543.56   -76866.859    7354.4606   -84221.319    202.99299 
    4200    288.77252    -304.3407    276680.51   -76863.631    7345.8627   -84209.494     206.1702 
    4250     286.8263   -546.40021    276883.21   -76840.974    7296.3543   -84137.328    209.45732 
    4300    290.29383   -529.10385    276829.86   -76857.327     7384.562   -84241.889     211.8103 
    4350    288.10635   -560.52498       276791   -76870.034    7328.9164   -84198.951     214.7459 
    4400    287.87767   -562.75222    276889.88   -76860.784    7323.0994   -84183.883    218.15842 
    4450    285.83759    -803.1021    276987.72   -76793.962    7271.2031   -84065.165    221.84284 
    4500    292.56178    -362.4973    276573.91   -76748.894    7442.2548   -84191.148    225.68498 
    4550    292.00072    -494.4136    276510.75   -76700.132    7427.9823   -84128.114     228.0155 
    4600    287.54935   -381.85484    276832.67    -76695.67    7314.7474   -84010.418    230.62658 
    4650    291.14863   -634.94599    277327.48   -76628.347    7406.3067   -84034.654    233.51754 
    4700    293.46961   -437.68618    277537.78   -76611.865    7465.3483   -84077.214    236.97785 
    4750    285.65257   -500.12163    277244.73   -76625.442    7266.4966   -83891.938    238.82502 
    4800    289.55351   -334.88159     276630.6   -76629.452    7365.7297   -83995.182     242.0273 
    4850    293.90243   -209.35867    276188.33   -76643.285    7476.3584   -84119.644     243.8926 
    4900    290.40793   -410.65915    276326.05   -76638.827    7387.4645   -84026.291    246.60544 
    4950    292.70497   -456.13906    276875.28   -76647.241    7445.8972   -84093.138    250.07674 
    5000    290.48935   -795.08358    277681.21   -76655.327    7389.5358   -84044.863    253.99973 
    5050    287.44594   -602.74666    277642.48   -76664.979    7312.1168   -83977.096     257.0859 
    5100    289.75433   -488.49944    276829.36   -76683.769    7370.8381   -84054.607    260.41075 
    5150    290.77456   -355.04559    276259.26    -76716.57    7396.7909    -84113.36    262.96029 
    5200    294.25114   -449.60881    276454.17   -76715.885    7485.2292   -84201.115    265.71669 
    5250    287.78114   -639.82567    277163.26   -76692.769    7320.6436   -84013.413    268.52539 
    5300    286.08914   -726.59834    277676.57     -76671.8    7277.6022   -83949.402    271.80617 
    5350    291.38821   -740.07842    277691.36   -76638.105    7412.4011   -84050.506    275.40272 
    5400    295.59568   -603.26146    276909.57   -76708.666    7519.4317   -84228.098    277.15463 
    5450    294.54721   -82.254387    275932.74   -76695.736    7492.7606   -84188.497    279.18076 
    5500    293.79023   -64.396912    275999.64   -76694.621    7473.5042   -84168.125    281.76431 
    5550    287.51339   -782.55362    277107.31   -76736.102    7313.8325   -84049.935    285.21379 
    5600    285.79774   -469.30257    277577.12    -76787.57    7270.1894   -84057.759    287.91616 
    5650    286.24109   -679.18241    277230.55   -76870.427    7281.4676   -84151.895     290.0848 
    5700    293.99875   -507.01072    276572.57   -76859.559    7478.8087   -84338.368    292.72716 
    5750    289.78891   -518.74731    276173.92   -76835.901    7371.7178   -84207.619    295.67916 
    5800    284.89202   -675.83613    276303.74   -76835.443    7247.1495   -84082.593     298.6934 
    5850    290.59548   -509.47596    276723.58   -76766.381    7392.2356   -84158.617    301.99943 
    5900    283.10136   -353.86429    276921.82   -76794.079    7201.5982   -83995.677    305.14553 
    5950    291.79066   -578.94087    276773.12   -76810.458    7422.6389   -84233.097    307.86391 
    6000    294.03768   -425.36243    276403.23   -76817.597    7479.7991   -84297.396    310.03192 
    6050    287.13139   -274.39945    276368.38   -76763.653    7304.1153   -84067.768    313.19346 
    6100    289.38967   -636.02769    276821.58   -76764.936     7361.562   -84126.498    315.86586 
    6150    285.82186   -490.57991    277099.95   -76748.995     7270.803   -84019.798    319.38625 
    6200    295.02147   -573.80689    277147.61   -76773.643    7504.8249   -84278.468    322.81489 
    6250    288.89593   -672.04801    276919.29   -76750.429    7349.0019   -84099.431    324.54361 
    6300    290.87903   -202.26856    276435.73   -76716.425    7399.4485   -84115.873    327.25823 
    6350    289.61476   -194.45477    276184.74   -76683.311    7367.2876   -84050.599    330.74871 
    6400    289.22395   -396.93975    276627.54   -76747.505    7357.3462   -84104.852    334.49439 
    6450    288.66758   -603.22809    277119.92   -76754.939    7343.1932   -84098.132    337.94681 
    6500    289.53345   -598.89692    277231.23   -76697.902    7365.2194   -84063.122    340.09461 
    6550    293.31203    -581.1453    277040.04   -76681.421    7461.3397   -84142.761    341.68491 
    6600    287.38311   -401.71463     276535.7   -76700.428    7310.5184   -84010.946    344.38891 
    6650    292.06712   -264.00448    276273.72   -76754.418    7429.6714    -84184.09     346.7138 
    6700    292.99668   -413.93843    276695.61   -76770.432    7453.3177    -84223.75    350.35123 
    6750    291.28337   -775.47612     277332.1   -76792.176    7409.7342    -84201.91    353.45066 
    6800     285.2211    -749.4086    277436.47    -76750.48    7255.5209   -84006.001    356.29712 
    6850    288.15631   -98.150879    276801.34   -76756.194    7330.1873   -84086.381    357.94217 
    6900    290.21579   -391.56475    276547.53   -76732.497    7382.5768   -84115.074    360.58624 
    6950    291.78121   -363.27727    276580.28   -76722.155    7422.3984   -84144.554    364.10295 
    7000    291.55655   -406.32809    276790.03   -76699.959    7416.6834   -84116.642    368.28035 
    7050    291.40612   -436.99026    276842.17    -76685.39    7412.8567   -84098.247    370.75688 
    7100    286.75969   -547.35265    276856.67   -76677.548    7294.6598   -83972.208    374.65865 
    7150    291.92164   -594.24597    276650.61   -76741.731    7425.9707   -84167.702    377.46747 
    7200    288.42379   -621.09124    276409.25   -76784.837    7336.9916   -84121.829    379.71502 
    7250     290.6251   -585.21403    276366.76   -76738.443    7392.9891   -84131.432    382.18928 
    7300    290.94324   -542.58744    276352.64   -76717.184    7401.0819   -84118.266    385.03609 
    7350    289.47923   -401.78383    276494.88   -76704.846    7363.8402   -84068.686    388.10039 
    7400    292.60934   -536.78592    277049.15   -76658.448    7443.4645   -84101.912    390.87399 
    7450      292.423   -582.41228    277300.25   -76633.356    7438.7243    -84072.08    393.92874 
    7500    291.40344   -466.82729    277133.03   -76699.442    7412.7886   -84112.231    396.89603 
    7550    285.86683   -487.94641    276901.81     -76727.8     7271.947   -83999.747    398.68027 
    7600    287.06246   -486.26658    276698.18   -76672.696    7302.3617   -83975.058    401.96941 
    7650    296.81538   -874.63297    276725.88   -76687.285    7550.4587   -84237.743    404.30738 
    7700    294.25946     -415.162    276762.96   -76682.174    7485.4407   -84167.615     406.6666 
    7750    293.42501   -433.25413     276948.4   -76640.506    7464.2138   -84104.719    410.08359 
    7800    288.64745   -635.12887    276928.46   -76673.493    7342.6811   -84016.174    412.70679 
    7850       289.55   -809.11839    276745.81   -76646.171    7365.6404   -84011.812    414.84277 
    7900    287.68506   -615.15846    276488.65   -76686.045    7318.1995   -84004.245    418.79011 
    7950    291.20929   -414.24781    276430.48   -76727.642    7407.8499   -84135.492    422.52277 
    8000    291.71368   -427.12704     276665.8   -76716.105    7420.6806   -84136.786    425.60966 
    8050    293.25452   -485.04798    277031.76   -76702.571    7459.8767   -84162.448    429.45116 
    8100    290.69235   -567.42178    277153.92   -76736.408    7394.6996   -84131.107    433.21981 
    8150    296.70419   -609.88807    277107.92   -76691.109    7547.6302   -84238.739    436.55112 
    8200    292.50782   -403.25494    277179.27    -76712.36    7440.8821   -84153.243    439.60915 
    8250     293.4624   -836.21865    277244.08   -76716.607     7465.165   -84181.772    442.39459 
    8300    291.32599   -589.36086    276891.25   -76695.315    7410.8184   -84106.134    445.21159 
    8350    286.47595   -261.55802     276403.1   -76749.507     7287.442   -84036.949    447.52228 
    8400    293.26634   -557.15398    276427.04   -76753.337    7460.1774   -84213.515    450.66874 
    8450     290.6702   -620.41875    276785.61   -76744.964    7394.1362     -84139.1    454.82821 
    8500    291.56412   -656.83012    276967.17   -76734.618    7416.8759   -84151.494    457.65249 
    8550     288.6761   -636.76498    276980.77   -76759.938    7343.4098   -84103.348    460.47209 
    8600    293.88623   -625.67312    276738.94    -76758.73    7475.9465   -84234.676    463.30954 
    8650    291.41221   -363.49323    276375.53   -76760.608    7413.0117    -84173.62    465.92847 
    8700    287.99477   -421.33977    276671.14   -76757.336     7326.078   -84083.414     469.6227 
    8750    288.42961   -614.57115    277082.74   -76723.919    7337.1396   -84061.058    473.85355 
    8800    287.83855   -720.88518    277103.74   -76739.188    7322.1041   -84061.292    477.56766 
    8850    284.60447   -620.96658    276678.49   -76779.528    7239.8349   -84019.363    480.25064 
    8900    287.90004   -339.92058    276352.52   -76801.297    7323.6683   -84124.965    482.19983 
    8950    289.82341   -176.33947    276353.88   -76782.738    7372.5955   -84155.333    485.62198 
    9000     284.3237   -269.16532    276854.47   -76771.653    7232.6924   -84004.345    489.80645 
    9050    288.50995   -466.44651    277074.34     -76767.4    7339.1834   -84106.583    493.68041 
    9100     288.5791   -492.11799    276912.64   -76830.218    7340.9424   -84171.161    496.84283 
    9150    289.21132   -544.02577    276604.52   -76790.721    7357.0249   -84147.746    498.58469 
    9200    292.40124   -478.29646    276248.16   -76807.824    7438.1708   -84245.994    501.68841 
    9250    283.83726   -426.63825    276164.18   -76843.861    7220.3182   -84064.179    505.45291 
    9300    288.84519   -346.10793    276236.95   -76901.205    7347.7113   -84248.917    508.56279 
    9350    282.12331   -613.22586    276686.39   -76874.338    7176.7184   -84051.056    511.57677 
    9400    283.75329   -602.14781     276882.4   -76865.369    7218.1822   -84083.551    514.58896 
    9450    289.25121   -854.84237    276717.86   -76817.616    7358.0396   -84175.656    516.45231 
    9500    293.21941   -444.49652    276252.24   -76843.485    7458.9836   -84302.469    518.22001 
    9550    286.87292   -457.15583    276309.54   -76827.437    7297.5401   -84124.977    520.72307 
    9600     292.5515   -439.60671    276844.67   -76805.683    7441.9931   -84247.676    524.65021 
    9650    285.05847   -645.95167    277305.62   -76827.699    7251.3838   -84079.083    528.30964 
    9700     286.1528    -554.5839    277045.47   -76828.616    7279.2216   -84107.838    530.61157 
    9750    290.19414   -383.61255    276150.71   -76839.363    7382.0261   -84221.389    532.34987 
    9800    286.33514   -201.13651    275739.67   -76839.711    7283.8599   -84123.571    533.65286 
    9850    287.74621   -269.30959    276040.96   -76839.311    7319.7551   -84159.066    536.15707 
    9900    288.21568   -704.18126    277065.73   -76832.885    7331.6975   -84164.582    539.85792 
    9950    287.39755   -859.79395    277483.72    -76803.85    7310.8859   -84114.736    542.45443 
   10000    291.18514   -749.51037    276903.53   -76802.313    7407.2355   -84209.548    542.92681 
   10050    291.53653   -334.61364     276322.6   -76812.993    7416.1742   -84229.168    545.66616 
   10100    286.60342   -307.30464     276389.6   -76779.792    7290.6846   -84070.477    548.43719 
   10150    288.74868   -438.91155    276694.33   -76765.816    7345.2561   -84111.072    552.28439 
   10200    290.13955   -513.98378    276748.29   -76754.886    7380.6374   -84135.523    556.46795 
   10250    289.75425   -434.68794    276917.13   -76759.849    7370.8361   -84130.685    559.95349 
   10300    288.89699   -554.54322    276988.79   -76734.862    7349.0289   -84083.891    563.53283 
   10350     286.4178   -424.00055    276882.55   -76733.953    7285.9627   -84019.916    565.06563 
   10400    288.99159   -718.03389    276832.86   -76796.613    7351.4353   -84148.048    566.15944 
   10450    285.37219   -163.62595    276454.99   -76766.927    7259.3644   -84026.292    567.32188 
   10500    288.44246   -204.82352    276289.22   -76773.806    7337.4665   -84111.272    568.90135 
   10550    285.98667   -538.49305    276509.43   -76761.923    7274.9955   -84036.919    572.33938 
   10600    290.47425   -549.18321    276787.66   -76761.534    7389.1517   -84150.686    576.09177 
   10650     292.1074   -485.16674    276882.79    -76741.93     7430.696   -84172.626    578.66347 
   10700    292.52685   -352.83893    276850.64   -76772.193    7441.3661   -84213.559    580.93433 
   10750    286.85028   -949.38196    277188.79   -76735.995    7296.9643   -84032.959    584.73183 
   10800    286.89807   -498.91761    277029.34   -76758.688    7298.1801   -84056.868    587.83303 
   10850    294.60186   -294.79037    276657.37   -76715.701    7494.1508   -84209.852    590.74517 
   10900    288.21577   -144.82755    276393.09   -76710.819    7331.6998   -84042.518    593.87606 
   10950    289.16801   -388.22589    276721.26   -76725.319    7355.9231   -84081.242    597.61728 
   11000    288.33755   -698.21415    277338.65   -76758.951    7334.7977   -84093.749    601.78006 
   11050    285.20105   -704.24697    277566.04   -76781.867    7255.0108   -84036.878    605.52265 
   11100    288.27655   -717.54813    277194.66   -76760.914    7333.2459    -84094.16    608.29127 
   11150    291.42679   -354.45971    276664.53   -76772.253    7413.3826   -84185.636    611.89809 
   11200     293.5509   -480.78403    276456.06    -76767.04    7467.4161   -84234.456    613.06107 
   11250    290.18183   -509.96179    276441.05   -76798.455     7381.713   -84180.168    615.20827 
   11300    290.45372   -636.58823    276655.15   -76783.723    7388.6295   -84172.353    616.65595 
   11350    288.53826   -550.54231    276540.65   -76816.781    7339.9034   -84156.684     619.4706 
   11400    286.04685   -673.81984    276459.43   -76817.522    7276.5265   -84094.049    620.75657 
   11450    284.47249   -166.27402    276569.65   -76870.656    7236.4775   -84107.134    622.98052 
   11500    285.87692   -635.19782    277069.61   -76860.754    7272.2037   -84132.958    628.16353 
   11550    285.06013   -659.94801    277253.61   -76880.751    7251.4259   -84132.177    631.22049 
   11600    284.75428   -464.46416    276723.57   -76864.798    7243.6457   -84108.443    632.72461 
   11650     287.7387   -368.79063     276176.2   -76855.803    7319.5642   -84175.367    633.97036 
   11700    285.49062   -115.63718    276171.95    -76818.32     7262.377   -84080.697    636.75133 
   11750    287.28096   -555.35367    276632.06    -76833.39      7307.92    -84141.31    639.74702 
   11800     282.7093   -716.81781    277003.39   -76846.453     7191.625   -84038.078    642.85646 
   11850    284.86588   -420.46467    276967.36   -76772.299    7246.4846   -84018.784    645.97562 
   11900    282.38024    -342.2269    276663.99   -76854.321    7183.2544   -84037.576    647.59962 
   11950    282.64024   -451.54967    276299.43   -76844.052    7189.8681    -84033.92    648.05289 
   12000    291.98326   -426.56569    276089.01   -76858.437    7427.5381   -84285.975    649.33062 
   12050    288.82396   -451.36923    276345.97   -76840.458    7347.1711   -84187.629    652.25752 
   12100    285.34591   -550.55155    276770.74   -76807.915    7258.6957    -84066.61    654.70768 
   12150    290.16106   -659.46839    277179.28   -76791.776    7381.1846   -84172.961    658.18862 
   12200    287.70206   -675.88087    277088.09   -76780.793     7318.632   -84099.425    660.38892 
   12250    293.04731   -359.47573    276467.88   -76756.049    7454.6057   -84210.654    661.86511 
   12300    291.52301   -431.52158    276464.28   -76765.569    7415.8301   -84181.399    661.72229 
   12350    287.20433   -654.09953    276873.08   -76785.196    7305.9707   -84091.167    664.21803 
   12400    288.70754   -791.35005    276957.39   -76818.808    7344.2097   -84163.018    667.79668 
   12450    287.28017   -532.72248    276504.98   -76789.962    7307.8998   -84097.861    669.39736 
   12500    290.50109   -349.02966    276356.42    -76764.13    7389.8344   -84153.964    671.33715 
   12550    290.01238   -386.56427    276390.22   -76816.521    7377.4025   -84193.924    674.14257 
   12600    292.24614   -373.64656    276395.69   -76759.233    7434.2253   -84193.458    677.76783 
   12650    288.41186   -519.75586     276679.4   -76779.507     7336.688   -84116.195    681.00364 
   12700    287.52439   -564.48429    277220.26   -76745.611    7314.1125   -84059.724    683.70142 
   12750    288.28608   -636.08501    277553.04   -76796.263    7333.4884   -84129.752    687.00474 
   12800    286.17795   -641.82418    277032.67   -76815.515    7279.8613   -84095.376     687.7386 
   12850     288.3587   -343.08944    276281.44   -76816.416    7335.3359   -84151.752    690.26979 
   12900     287.4539   -216.45418    275955.74    -76804.26    7312.3192   -84116.579    692.32256 
   12950    290.40329   -189.92823    276308.77   -76812.957    7387.3464   -84200.303    695.03593 
   13000    287.32901   -810.14881    277208.53   -76779.558    7309.1424   -84088.701    700.06937 
   13050    287.40777   -694.67767    277423.28   -76760.907    7311.1459   -84072.053    703.23322 
   13100    286.94669   -648.87643    277024.94   -76736.726    7299.4166   -84036.143    704.50333 
   13150     291.1639   -21.588045    276300.21   -76765.646    7406.6951   -84172.341    706.83718 
   13200    287.08042   -292.16203    276295.95   -76778.681    7302.8186   -84081.499    709.15876 
   13250    284.04886   -575.89905    277088.95   -76825.825     7225.701   -84051.526    711.94341 
   13300    288.58397   -813.71483    277346.98   -76816.739    7341.0663   -84157.805    715.65603 
   13350    289.75639   -682.67194    276953.58   -76790.591    7370.8904   -84161.482    719.52221 
   13400    286.33529   -576.54407    276402.88   -76822.347    7283.8637   -84106.211    720.35492 
   13450    285.09724    -271.0895    276137.56   -76853.429    7252.3701   -84105.799    722.34951 
   13500    287.86874      -474.93    276428.84   -76819.097    7322.8721   -84141.969    725.26306 
   13550    282.86827   -507.64344    277000.06   -76895.714    7195.6689   -84091.383    728.90275 
   13600    284.88035   -566.64547    277303.46   -76896.353    7246.8528   -84143.206    732.15625 
   13650    284.87109   -427.39576    277094.08   -76897.285    7246.6171   -84143.903    734.02573 
   13700    282.68349   -572.72748    276589.79   -76895.591    7190.9686   -84086.559    733.90234 
   13750    287.89819   -519.08703    276087.74    -76882.84    7323.6213   -84206.461    734.82072 
   13800    285.28946   -186.29742    275915.43   -76932.509    7257.2597   -84189.769    737.46276 
   13850    282.39652   -290.60083    276272.64   -76915.964    7183.6685   -84099.632    742.05723 
   13900    285.81399   -563.49097    276744.06   -76889.521    7270.6028   -84160.124    744.68575 
   13950    282.22423   -520.43473    276742.27   -76901.386    7179.2856   -84080.672    747.98352 
   14000    288.07975   -471.23555    276461.61   -76852.717    7328.2399   -84180.957    749.89729 
   14050    289.62882   -457.52532    276208.26   -76846.131    7367.6454   -84213.776    752.64979 
   14100    285.78687   -213.75931    276336.12   -76833.817     7269.913    -84103.73    755.13409 
   14150    283.68091   -331.13681    276864.42   -76829.634     7216.341   -84045.975    759.54618 
   14200    285.40667    -805.2817    277360.04    -76813.26    7260.2413   -84073.501    762.87607 
   14250     291.4018   -489.31906    277112.34   -76741.721     7412.747   -84154.468    764.62436 
   14300    291.53554   -254.14405    276348.37    -76779.51     7416.149   -84195.659    767.68631 
   14350    293.29727    -280.1415    275996.53   -76786.443    7460.9644   -84247.408    770.24792 
   14400    289.06907   -249.47535    276430.68    -76755.49    7353.4063   -84108.896    773.22437 
   14450     289.7312   -672.98989    277215.36   -76797.431    7370.2498   -84167.681    777.60669 
   14500    287.62139   -629.09532    277387.93   -76806.929    7316.5798   -84123.509     780.0353 
   14550    282.08743   -725.43361    276860.07   -76848.624    7175.8057    -84024.43    782.16239 
   14600    285.13728   -402.98486    276353.05   -76840.872    7253.3885    -84094.26    782.34203 
   14650    289.96401   -408.82619    276260.12    -76861.53    7376.1721   -84237.702    783.53765 
   14700    288.45009   -530.01449    276371.77   -76834.921    7337.6607   -84172.582    787.36524 
   14750    287.02526   -544.94239    276710.38    -76839.17    7301.4153   -84140.585    791.83158 
   14800    285.22923   -593.48072    276903.61   -76891.211    7255.7277   -84146.939    793.74105 
   14850    285.54649   -588.33852    276897.44   -76895.697    7263.7981   -84159.495    796.59952 
   14900     284.2188   -175.62846    276561.86   -76898.089     7230.024   -84128.113    797.55749 
   14950    285.32577   -505.46428    276396.89   -76972.415    7258.1835   -84230.599    799.69886 
   15000    286.67011   -450.90918    276436.38   -76974.541    7292.3809   -84266.922      803.085 
   15050    290.50929    -713.9451    276749.55   -76974.588    7390.0431   -84364.631     806.0149 
   15100    279.58362   -437.72067    276831.24   -76938.829    7112.1134   -84050.943     808.9222 
   15150    282.98106   -725.51619    276602.02   -76949.485    7198.5381   -84148.023    809.89104 
   15200    285.09767   -166.24912    276285.22   -76943.414    7252.3809   -84195.795    810.48344 
   15250      287.116   -569.27797    276496.24   -76955.223    7303.7236   -84258.947    813.27055 
   15300    287.83254   -621.26136    277023.48   -76905.982    7321.9511   -84227.934    816.49454 
   15350    283.90067   -836.96286    277420.78   -76893.819    7221.9313    -84115.75    821.54961 
   15400    290.32944   -635.04027     276968.6   -76865.463     7385.468   -84250.931     821.1263 
   15450    287.22234   -450.97001    276403.91   -76871.521    7306.4288    -84177.95    822.32418 
   15500    283.16218   -460.65918    276429.47   -76854.427    7203.1456   -84057.572    824.01867 
   15550    288.82769   -366.73367    276594.42   -76869.219    7347.2661   -84216.486    825.71747 
   15600    285.55547   -521.76012    276684.56   -76866.639    7264.0267   -84130.666    828.73339 
   15650    283.53215   -86.213295    276517.86   -76873.095     7212.557   -84085.652    829.49203 
   15700    288.99231   -327.23662    276467.52   -76848.326    7351.4538    -84199.78    832.25774 
   15750    284.91229   -179.11909    276525.61   -76850.714    7247.6652   -84098.379    833.36433 
   15800    288.22512   -776.37085    276782.78   -76847.616    7331.9376   -84179.553    836.96787 
   15850    290.41731   -682.88779    277013.36   -76828.445    7387.7032   -84216.148    842.12303 
   15900    288.96197   -555.04496    276937.85   -76834.049    7350.6819   -84184.731     846.3097 
   15950     284.0515   -434.37064    276529.06   -76802.139    7225.7682   -84027.907    848.37751 
   16000    289.87349   -246.04335    276331.76   -76781.884    7373.8693   -84155.753    850.35302 
   16050    290.04236   -692.78043    276948.56   -76738.898    7378.1652   -84117.063    854.49349 
   16100    288.40022   -580.10461     277481.1   -76725.876    7336.3919   -84062.268    858.82775 
   16150    287.81297   -426.15797    277360.67    -76724.24    7321.4534   -84045.693    860.77467 
   16200     293.4961   -726.87307    276991.76   -76686.544    7466.0222   -84152.566    862.03184 
   16250    289.68485   -97.134239    276347.84   -76674.509    7369.0707    -84043.58    863.08462 
   16300    286.83729   -278.40748    276664.25   -76690.054    7296.6339   -83986.688    867.68224 
   16350    291.48255   -542.54568     277285.4   -76705.046    7414.8011   -84119.847    873.22745 
   16400    288.23943   -546.66629    277653.52   -76681.488    7332.3017    -84013.79    875.17132 
   16450    290.23267   -736.13612    277435.88    -76718.47    7383.0063   -84101.476    875.30554 
   16500    293.77175    -485.6092    276584.43   -76699.728    7473.0343   -84172.762    877.23231 
   16550    293.48391    -160.3969    275931.35   -76671.175    7465.7121   -84136.887    878.34632 
   16600    291.12752   -149.23319    276077.54    -76653.02    7405.7697   -84058.789    880.73746 
   16650    294.51387    -352.6156    277186.81   -76595.352    7491.9123   -84087.265    886.70781 
   16700    291.94862   -926.28701    278356.09   -76670.985     7426.657   -84097.642    891.27974 
   16750     282.1419   -623.18856    278229.01   -76677.393    7177.1914   -83854.584    892.63204 
   16800    291.74325   -838.64992    277247.03   -76710.528    7421.4328   -84131.961    892.33127 
   16850    291.03226   -354.42179    276025.46   -76746.785    7403.3464   -84150.131    893.00352 
   16900    292.26396   -299.16494    275746.34   -76744.613    7434.6786   -84179.291     895.0403 
   16950    291.44885   -388.56101    276249.65   -76712.994    7413.9437   -84126.938    897.52402 
   17000    286.90662   -626.88916    277070.91   -76743.823    7298.3975   -84042.221    901.46566 
   17050    293.55428   -665.71962    277404.67   -76708.742    7467.5022   -84176.244    906.34132 
   17100    288.99011   -630.02923    277186.59   -76710.881    7351.3978   -84062.279    909.50748 
   17150    287.27384    -225.8269    276703.45   -76657.081    7307.7388   -83964.819    910.57222 
   17200    290.72742   -158.49154    276683.52   -76613.926    7395.5919   -84009.518    913.52168 
   17250     291.9977   -489.48194    276914.96     -76621.2    7427.9054   -84049.105    917.62302 
   17300    289.86001   -682.63989    277211.75   -76571.418    7373.5265   -83944.944    921.03504 
   17350    293.98458   -688.16517    277294.53   -76611.276    7478.4482   -84089.725    924.43092 
   17400    294.29427   -604.63654    276736.93   -76640.425    7486.3261   -84126.751    925.93939 
   17450    291.79254   -414.26121    276109.37       -76604    7422.6867   -84026.687     927.4834 
   17500    292.27007    -393.7157    276304.99   -76663.198    7434.8342   -84098.032    930.88581 
   17550    289.68116   -773.11255    277067.59    -76712.15    7368.9769   -84081.127    934.78449 
   17600    286.61899   -566.34887    277426.38   -76677.134    7291.0806   -83968.215    936.95699 
   17650    290.60715   -728.96896    277433.68   -76626.161    7392.5324   -84018.693    937.70075 
   17700    292.65993   -508.77396     276872.5   -76608.476    7444.7515   -84053.228    938.32027 
   17750      297.052   -353.11119    276532.52   -76606.935     7556.478   -84163.413    940.31268 
   17800    293.97318   -615.24732    276674.88   -76602.309    7478.1582   -84080.467     942.6143 
   17850    292.27681   -661.74658       276984     -76627.2    7435.0057   -84062.206    945.54256 
   17900    293.28593   -666.22092    276915.96   -76655.569    7460.6758   -84116.245    947.74775 
   17950    292.42234    -545.6843    276851.68   -76673.559    7438.7077   -84112.267    950.43755 
   18000    290.35387   -489.72356    276856.83   -76735.079    7386.0893   -84121.168    953.68037 
   18050     292.2015   -274.01975     277088.6   -76769.124    7433.0899   -84202.214    957.39043 
   18100    284.97557    -293.0638    277070.12   -76793.895     7249.275    -84043.17    960.13331 
   18150    285.31133   -469.62189    277132.05   -76822.357     7257.816   -84080.173    961.96298 
   18200    287.86626   -527.99713    277017.38   -76758.985    7322.8089   -84081.794    964.35297 
   18250    292.33962    -182.6863    276671.31   -76709.293    7436.6035   -84145.896    966.16948 
   18300    295.93719   -627.94645    276657.44   -76695.084    7528.1193   -84223.203    967.29581 
   18350    290.63064   -599.75601    276805.66   -76687.822    7393.1299   -84080.952    970.79826 
   18400    296.19064     -578.304    277132.28   -76698.232    7534.5666   -84232.798    973.05402 
   18450     288.1478   -661.04144    277498.06   -76714.832    7329.9708   -84044.803    975.76039 
   18500    291.46867   -643.49049    277376.95   -76682.594     7414.448   -84097.042    977.59532 
   18550    289.49822   -537.47953     276830.2   -76659.792    7364.3232   -84024.115    978.78299 
   18600    290.73659   -206.74785    276339.31   -76635.734     7395.825   -84031.559    981.44466 
   18650    289.32883   -228.10237    276494.52   -76661.783    7360.0143   -84021.797    985.44434 
   18700    288.54966    -344.1072    276950.69   -76679.071    7340.1935   -84019.265    989.21904 
   18750    293.73652   -505.63658    277509.79   -76601.331     7472.138   -84073.469     992.8417 
   18800    293.99312   -469.47539    277449.01   -76610.547    7478.6655   -84089.212    996.10291 
   18850    289.18448    -498.8186    277174.68   -76639.552    7356.3421   -83995.894     997.6071 
   18900    289.35105   -396.76122    276606.76   -76665.925    7360.5795   -84026.505     999.1982 
   18950    291.23274   -295.72166    276336.82   -76698.463    7408.4462   -84106.909    1000.9355 
   19000    291.00709   -228.99464    276410.11   -76674.867    7402.7062   -84077.573     1003.155 
   19050    282.25386    113.30962    276860.47   -76639.453    7180.0393   -83819.493     1007.327 
   19100    290.44831   -622.60891    277677.11   -76674.398    7388.4917   -84062.889    1012.5849 
   19150    290.04007   -680.85927    277904.11   -76636.722    7378.1068   -84014.829     1015.424 
   19200    292.22667   -683.60236    277350.11   -76654.452      7433.73   -84088.182    1016.3699 
   19250    289.35876   -342.21757    276518.27    -76655.01    7360.7755   -84015.786    1016.5745 
   19300    287.00029   -154.02261    275914.52   -76679.544    7300.7802   -83980.325    1017.3276 
   19350    297.37658   -524.90137    276062.23   -76714.448    7564.7346   -84279.183    1018.2608 
   19400     286.4473   -298.76835    276544.72   -76720.159    7286.7132   -84006.872    1021.1304 
   19450    288.89458   -589.33866    277171.44   -76741.779    7348.9676   -84090.746    1025.3104 
   19500    287.98439   -504.48709    277277.33   -76805.177    7325.8139   -84130.991     1028.805 
   19550    291.22348   -584.12865    276819.03    -76737.31    7408.2108   -84145.521    1030.4608 
   19600    290.55173   -367.71917    276320.29   -76731.942    7391.1226   -84123.064    1031.8976 
   19650    292.59128   -165.30662    276163.37   -76692.174    7443.0051    -84135.18    1034.0629 
   19700    286.89401   -448.38584    276750.02   -76636.199    7298.0767   -83934.275    1038.9034 
   19750     290.0773   -746.31738    277268.61   -76655.351    7379.0539   -84034.405    1044.7235 
   19800    289.79131   -789.67562    277282.24   -76673.052    7371.7789   -84044.831     1047.717 
   19850    293.33589   -393.32436     276816.9   -76656.789    7461.9468   -84118.736    1049.5942 
   19900    294.91268    -470.1561    276239.02   -76609.723    7502.0575   -84111.781    1050.7582 
   19950    292.71028   -299.10021    276108.79    -76622.12    7446.0322   -84068.152    1054.9965 
   20000    289.19771   -559.60336    276595.64   -76582.333    7356.6788   -83939.012    1056.9484 
   20050     288.8191   -559.18321    277131.95   -76624.846    7347.0476   -83971.893    1062.4893 
   20100    291.38627   -640.75852    277129.95   -76649.727    7412.3517   -84062.078    1064.9424 
   20150    293.34698   -486.87654    277067.89   -76679.731    7462.2287    -84141.96    1067.4126 
   20200    291.33761   -609.18989    277075.16   -76676.651     7411.114   -84087.765     1069.002 
   20250    293.02361    -366.8721    276866.48   -76702.929    7454.0028   -84156.932    1070.8903 
   20300    287.30371   -286.77177    276838.73   -76676.707    7308.4986   -83985.205    1074.3002 
   20350    290.62618   -395.17697    276985.59   -76671.128    7393.0166   -84064.145    1077.6647 
   20400    291.72864   -414.66172    277035.17   -76647.999    7421.0612    -84069.06    1080.8796 
   20450    292.45314   -850.69221    276967.86   -76595.553    7439.4912   -84035.044    1081.9406 
   20500    295.78833   -385.64468    276518.74   -76606.964    7524.3323   -84131.296    1083.3641 
   20550     293.5268   -371.42532    276681.75   -76588.793    7466.8032   -84055.596    1085.6826 
   20600    296.97421   -783.52061    277106.75   -76576.552    7554.4992   -84131.052    1089.5602 
   20650    293.85108   -669.93509    277372.82   -76524.765    7475.0521   -83999.817     1092.653 
   20700    292.11299   -920.92869    277374.82   -76602.676    7430.8382   -84033.514    1093.9475 
   20750    294.03257   -330.88367    277015.31   -76594.523    7479.6691   -84074.192    1094.9749 
   20800    294.65667   -391.79043    276432.75   -76591.402     7495.545   -84086.947    1094.6138 
   20850    291.00297    158.64652    276204.67   -76592.761    7402.6014   -83995.362    1096.4432 
   20900    291.35211   -494.08609    276917.29   -76524.479    7411.4828   -83935.961    1101.6933 
   20950    288.54526   -559.04678    277541.96   -76574.709    7340.0814    -83914.79    1106.5652 
   21000    291.90965   -726.36691    277757.63    -76598.39    7425.6657   -84024.055     1109.082 
   21050    295.12255   -475.15397    277348.06   -76552.653    7507.3961    -84060.05    1109.8923 
   21100    291.80565   -494.35528    276669.25   -76536.233    7423.0201   -83959.253    1111.2905 
   21150    291.99209    -368.2323    276551.81   -76577.994    7427.7629   -84005.757    1112.7944 
   21200     295.8003   -377.73594     277111.9   -76600.889    7524.6369   -84125.525    1116.5675 
   21250    292.76931   -837.01053    277392.82   -76644.193    7447.5339   -84091.727    1119.8146 
   21300    290.14835   -484.51972    276912.04   -76637.614    7380.8613   -84018.475    1122.1531 
   21350    288.86359   -332.62836    276423.99   -76714.363    7348.1792   -84062.543    1122.9138 
   21400    294.27166   -414.18333    276414.77   -76719.635     7485.751   -84205.387    1125.2655 
   21450    287.86952   -443.26389    276975.36   -76698.431     7322.892   -84021.323    1128.1809 
   21500    289.33312   -652.05771    277573.19     -76666.7    7360.1232   -84026.823    1132.7275 
   21550    290.02247   -763.68205    277558.12   -76671.852    7377.6591   -84049.511    1133.7586 
   21600    290.24784   -696.13171    276793.43   -76725.459    7383.3921   -84108.851    1132.7982 
   21650    291.93413   -131.10434    275936.08   -76742.155    7426.2885   -84168.444    1133.5325 
   21700    290.05636   -96.336101    276120.01   -76716.367    7378.5213   -84094.888    1137.0301 
   21750    287.19098   -455.66802    277019.33    -76711.99     7305.631   -84017.621    1142.0889 
   21800    292.80988   -576.80122    277642.01   -76718.935    7448.5661   -84167.501    1145.3079 
   21850    287.44961   -586.38306    277359.71   -76725.097    7312.2102   -84037.307    1146.6809 
   21900    293.80123   -451.00367     276651.2   -76714.862     7473.784   -84188.646    1146.9392 
   21950    285.75268   -167.08004    276307.15   -76724.211    7269.0432   -83993.254    1148.4583 
   22000    288.68352   -429.05807    276443.56   -76676.608    7343.5986   -84020.206    1151.3463 
   22050    292.86508   -629.59601    276865.95   -76663.647    7449.9702   -84113.617    1154.2458 
   22100    287.42975   -554.86931    277018.73   -76642.814    7311.7048   -83954.519    1158.5071 
   22150    288.36604   -318.97039    276682.59   -76632.214    7335.5224   -83967.736    1160.7765 
   22200    296.00708   -246.85447    276699.68   -76629.621    7529.8969   -84159.518    1163.8526 
   22250    290.36631   -787.84693    277112.86   -76638.479    7386.4059   -84024.885     1168.114 
   22300    290.53604   -549.59858    277077.43   -76661.281    7390.7234   -84052.005    1168.5615 
   22350    290.33344   -666.71485     276872.5   -76671.841    7385.5698   -84057.411    1170.5819 
   22400    289.99818   -664.53333    276804.06   -76692.953    7377.0412   -84069.994    1171.9066 
   22450    296.77165   -527.43521    276772.24   -76675.253    7549.3463     -84224.6    1175.8451 
   22500    293.63784   -493.53183    276782.24   -76603.513    7469.6279   -84073.141    1179.6283 
   22550    293.37925     -521.693    276797.68   -76638.322    7463.0497   -84101.372    1182.3895 
   22600    290.63967   -479.08789    276904.78    -76669.09    7393.3596    -84062.45    1186.4953 
   22650    291.74665   -393.14167    276968.58   -76649.965    7421.5192   -84071.484     1189.113 
   22700    290.98153   -459.09599    277153.27   -76668.381    7402.0559   -84070.437    1194.1283 
   22750    293.56638   -686.22078    277221.12     -76638.1      7467.81    -84105.91      1197.16 
   22800     293.6428   -614.45484    277005.15   -76662.007     7469.754   -84131.761    1198.6167 
   22850    293.82563   -200.51201    276884.26   -76657.141    7474.4049   -84131.546    1200.4305 
   22900    295.13666   -789.36525    277071.58   -76602.052    7507.7552   -84109.808    1202.3767 
   22950    293.76959   -469.35365    277047.93   -76615.545    7472.9791   -84088.525    1205.2335 
   23000    289.45684   -625.31927    277030.44   -76676.724    7363.2706   -84039.995     1205.786 
   23050    290.66208   -438.58384    276980.72    -76665.76    7393.9296    -84059.69    1206.0101 
   23100    285.13427    -429.5001    276993.64   -76711.408    7253.3121    -83964.72    1209.6706 
   23150    288.58643   -421.84252    276949.41   -76710.147    7341.1289   -84051.276    1211.6267 
   23200     294.6599   -759.28338    276799.12   -76668.117    7495.6273   -84163.745    1213.4538 
   23250    294.15959   -373.62751     276568.1   -76663.989    7482.9002    -84146.89    1214.1474 
   23300    292.99612   -538.96542     276805.7   -76686.973    7453.3035   -84140.277     1217.957 
   23350    289.99077   -515.53555    277025.16   -76699.036    7376.8526   -84075.889    1221.9529 
   23400    291.54757   -694.31463    276928.63   -76684.846    7416.4551   -84101.301    1225.3997 
   23450    292.96638   -539.13425    276704.58   -76705.593    7452.5471    -84158.14    1227.4269 
   23500    292.94484    -314.2957    276416.34   -76734.369     7451.999   -84186.368    1227.7588 
   23550    292.82027    -149.9198     276549.7   -76728.612    7448.8303   -84177.442    1229.2822 
   23600    290.47524   -388.56351    276902.46   -76739.174    7389.1768   -84128.351    1232.1331 
   23650    289.52562   -579.22357    277073.98   -76771.265    7365.0201   -84136.285    1236.8565 
   23700    288.95445    -649.7296     277171.4   -76775.178    7350.4905   -84125.668    1239.9143 
   23750    286.83342   -687.99587    276808.31   -76774.438    7296.5354   -84070.973     1241.136 
   23800    288.89333   -321.66855    276398.75   -76753.472    7348.9359   -84102.408    1243.3613 
   23850    291.12789   -338.21052    276510.07   -76716.265    7405.7792   -84122.044    1245.4264 
   23900    286.27042   -293.20825     276851.2   -76719.114    7282.2137   -84001.327    1247.6088 
   23950    287.47489   -719.39765    277179.79    -76757.03    7312.8532   -84069.883    1250.7493 
   24000    290.90427   -440.27594    277082.59   -76739.438    7400.0907   -84139.529    1253.1889 
   24050    292.32423   -557.63864    276696.57   -76733.205    7436.2119   -84169.417    1255.4349 
   24100    291.68157   -212.83067    276372.17   -76738.932    7419.8637   -84158.795    1257.5538 
   24150     288.7428   -122.93206    276423.83   -76708.433    7345.1065   -84053.539    1259.6521 
   24200    289.37788   -252.30438     276789.5   -76713.001    7361.2619   -84074.263     1264.301 
   24250    290.36598   -817.25344    277061.38   -76650.302    7386.3973   -84036.699    1269.3715 
   24300    290.32441    -509.3727    276784.13   -76684.625      7385.34   -84069.965    1268.8644 
   24350    294.29707   -459.06136    276658.91    -76724.63    7486.3975   -84211.027    1270.4744 
   24400    293.20589   -687.06909    276761.46   -76736.518    7458.6398   -84195.158    1272.2951 
   24450    288.67229   -347.89789    277076.85   -76740.717    7343.3129    -84084.03    1273.3467 
   24500    292.05859   -383.68761    277331.97   -76737.213    7429.4544   -84166.667    1275.6423 
   24550    285.73015    -544.2482    277130.55   -76761.699    7268.4702   -84030.169    1275.7854 
   24600    286.54723   -572.82752    276657.84   -76786.857    7289.2551   -84076.112    1276.5798 
   24650    291.38734   -602.48288    276305.05   -76778.943     7412.379   -84191.322    1277.1949 
   24700    290.01808   -309.92347    276462.48   -76780.692    7377.5476   -84158.239    1280.7406 
   24750    290.37408   -590.77782    276885.04    -76770.32    7386.6034   -84156.924    1284.0163 
   24800    289.15487   -852.56443    277070.67   -76784.815    7355.5889   -84140.404    1286.6883 
   24850    288.59351   -517.37575    276967.56    -76781.66     7341.309   -84122.969    1287.9592 
   24900    287.62021   -547.91522    276714.88   -76818.439    7316.5499   -84134.989    1289.3021 
   24950    291.71215   -516.77124    276544.63   -76823.214    7420.6416   -84243.856     1289.187 
   25000    288.24855   -516.42898    276420.38   -76789.778    7332.5339   -84122.312    1290.9801 
   25050     291.8448    -753.6599    276523.57   -76772.567    7424.0159   -84196.582    1294.0596 
   25100    293.99211     -700.889    276870.12   -76798.623    7478.6397   -84277.262    1297.9139 
   25150    289.09269   -958.64559    277285.15   -76761.066    7354.0071   -84115.073     1301.692 
   25200    289.85786   -546.93415       276934    -76729.75    7373.4719   -84103.222    1302.4599 
   25250    291.97448   -619.19144    276569.99   -76720.718    7427.3148   -84148.032    1303.7045 
   25300    292.04842   -354.70144    276373.42   -76685.629    7429.1957   -84114.825    1306.8586 
   25350    294.26325   -345.80009    276571.93   -76698.178     7485.537   -84183.715     1310.981 
   25400    290.02394    -708.4791    276943.05    -76722.77    7377.6965   -84100.466    1313.7343 
   25450    287.06642   -657.36658    276878.97   -76745.442    7302.4625   -84047.905     1315.791 
   25500    292.52153   -391.97148    276503.31   -76773.015    7441.2308   -84214.246    1318.1691 
   25550    290.48815   -581.21729    276514.02   -76775.971    7389.5052   -84165.476     1321.504 
   25600    289.15042   -409.37069    276822.26   -76788.984    7355.4758    -84144.46    1324.8931 
   25650    285.29746    -762.5312    277174.87   -76765.127    7257.4633   -84022.591    1327.4254 
   25700    284.54721   -720.49261    277182.49   -76726.662    7238.3782    -83965.04     1330.081 
   25750    291.41973   -651.99761    277021.07   -76747.019     7413.203   -84160.222    1330.8008 
   25800    292.44242   -490.48162    276821.89    -76723.73    7439.2183   -84162.948    1331.5623 
   25850     292.6845   -398.24919    276715.66   -76731.704    7445.3764   -84177.081    1334.7736 
   25900    291.56043   -349.73278    276828.89    -76762.08    7416.7821   -84178.862    1338.6866 
   25950    288.72246   -611.67246    276807.78     -76787.6    7344.5891   -84132.189    1340.6548 
   26000    289.27394   -522.72741    276653.81     -76817.2    7358.6179   -84175.818      1340.46 
   26050    287.17074   -236.89706    276291.49   -76820.034    7305.1161    -84125.15    1340.7094 
   26100     288.1705   -416.67236    276325.28   -76844.103    7330.5482   -84174.651     1343.863 
   26150    287.94915   -477.93406    276516.88   -76774.166    7324.9176   -84099.084    1345.6578 
   26200    288.59906   -492.49131     276691.8   -76762.639      7341.45   -84104.089    1347.8131 
   26250    286.48197   -677.05043    276894.15   -76727.239     7287.595   -84014.834    1350.4667 
   26300    289.78143    -391.4784    276918.12    -76736.14    7371.5274   -84107.667    1354.9988 
   26350    286.44436   -534.29999    277259.47   -76674.471    7286.6383    -83961.11    1360.2147 
   26400    292.86147     -998.789    277228.35   -76672.758    7449.8784   -84122.636    1362.2349 
   26450     287.1301   -442.82395    276500.57   -76719.417    7304.0823   -84023.499    1361.5265 
   26500    287.22372   -135.45817    275985.71   -76694.738    7306.4638   -84001.202    1361.5137 
   26550    284.57349   -172.71581    276245.38    -76736.63    7239.0468   -83975.676     1365.452 
   26600    290.30526   -484.56055     277048.1   -76723.307    7384.8527   -84108.159    1371.6461 
   26650    287.79945   -789.00092    277725.73   -76741.633    7321.1095   -84062.742    1376.3625 
   26700    288.41269   -737.76285    277406.24   -76794.266    7336.7091   -84130.976    1378.7653 
   26750    289.50441   -232.08349    276324.45   -76832.981    7364.4807   -84197.462    1376.7447 
   26800    287.99117   -249.35055    275908.22   -76837.039    7325.9865   -84163.026    1377.9034 
   26850    288.02009   -458.79067    276179.51   -76878.419    7326.7222   -84205.141    1381.2323 
   26900    288.45399   -593.50572    276614.21   -76902.685    7337.7599   -84240.445    1384.0251 
   26950     288.0778   -917.09817    276753.75   -76896.724    7328.1901   -84224.914    1383.9708 
   27000    288.18379   -564.99507    276639.86   -76911.539    7330.8863   -84242.425    1384.5028 
   27050    287.90116   -301.98766    276701.28   -76913.238    7323.6968   -84236.935    1387.3345 
   27100    285.95613   -554.74124    277105.69   -76944.173    7274.2187   -84218.392    1390.4602 
   27150    288.36578   -785.16712    277269.58   -76838.551    7335.5159   -84174.067    1393.7848 
   27200    291.04819   -399.01104    276960.83   -76842.836    7403.7518   -84246.587    1394.4629 
   27250    286.81757   -581.58708    276474.97   -76850.154    7296.1321   -84146.286    1394.2893 
   27300    291.65953   -176.08203    276195.79   -76842.168    7419.3032   -84261.471    1396.5142 
   27350    285.09612   -371.15661     276326.4   -76847.687    7252.3415   -84100.029    1401.1724 
   27400    290.83946   -532.00503    276536.94   -76820.909    7398.4419   -84219.351    1404.0249 
   27450    286.63838   -418.79217    276791.03   -76778.305    7291.5738   -84069.879    1407.0736 
   27500    290.65507   -516.91021    277077.26   -76736.351    7393.7513   -84130.102    1410.2381 
   27550     292.3876    -347.0897    277235.79   -76722.753     7437.824   -84160.577    1412.7497 
   27600    289.37034   -506.99062    277460.56   -76698.688    7361.0702   -84059.758    1416.0654 
   27650    294.57194   -507.06167    277045.04   -76738.065    7493.3898   -84231.455    1416.4963 
   27700    290.50714   -426.98805    276564.37   -76749.103    7389.9884   -84139.092    1415.6821 
   27750    294.86576   -95.281112    276392.27   -76718.802    7500.8639   -84219.666     1418.598 
   27800     290.0681   -625.97059    276919.88   -76770.058    7378.8198   -84148.878     1423.777 
   27850    284.08934   -736.73696    277557.69    -76729.12    7226.7309   -83955.851    1427.7921 
   27900     289.1963   -504.23744    277512.73   -76653.776    7356.6429   -84010.419    1429.1131 
   27950      290.951   -522.40526    276879.03   -76673.075    7401.2793   -84074.355    1429.8249 
   28000    291.62271   -147.62146    276255.09   -76683.056    7418.3664   -84101.422    1430.5054 
   28050    290.67818   -173.43927    276257.13   -76660.404    7394.3392   -84054.743    1432.5378 
   28100    292.83051   -577.86648    276704.06   -76662.405    7449.0907   -84111.495    1435.4674 
   28150    295.27566   -547.94917    277060.75   -76693.014    7511.2911   -84204.305    1439.0579 
   28200    285.00359   -502.25449    277035.18   -76714.281    7249.9877   -83964.268    1442.1527 
   28250     291.1685   -414.16991    276793.16   -76665.839    7406.8121   -84072.652    1445.7461 
   28300    290.34661   -328.02651    276575.49   -76677.528    7385.9046   -84063.433    1448.9702 
   28350    287.09949   -401.73101    276904.79   -76701.626    7303.3037   -84004.929    1452.2464 
   28400    291.65763   -687.84506     277318.7   -76691.072    7419.2546   -84110.327    1457.1408 
   28450    291.21667   -502.58764    277411.19   -76684.092    7408.0375   -84092.129    1459.4303 
   28500    291.70783   -768.21287    277218.84   -76635.402    7420.5318   -84055.934    1460.0241 
   28550    291.31106   -489.23909     276536.8   -76601.575    7410.4385   -84012.014     1458.689 
   28600    291.06081   -259.06165    276092.17   -76564.734    7404.0727   -83968.807    1458.2471 
   28650    296.96328    90.811165    276335.07    -76583.05     7554.221   -84137.271    1461.7197 
   28700    290.22922   -675.96587    277435.17   -76529.015    7382.9186   -83911.933    1468.5469 
   28750    291.33994   -808.51544     278101.3    -76550.64    7411.1733   -83961.813    1473.0553 
   28800    293.26064   -624.95167    277664.66   -76631.113    7460.0326   -84091.146    1472.2198 
   28850    292.50783   -361.52242    276862.38   -76653.738    7440.8823    -84094.62    1470.5656 
   28900    293.19377   -370.25415    276723.67   -76658.921    7458.3313   -84117.252    1470.3789 
   28950    294.68522   -528.26874    276802.62    -76674.95    7496.2712   -84171.221    1473.6632 
   29000    288.45635   -593.03383    276890.58   -76714.775    7337.8198   -84052.595     1475.687 
   29050    286.48875   -530.06281    276944.16   -76716.908    7287.7676   -84004.675    1477.6722 
   29100    291.49996   -676.22736    276841.41   -76697.528    7415.2439   -84112.772    1477.8721 
   29150    289.90653   -522.32681    276598.79   -76705.942    7374.7098   -84080.651    1478.3735 
   29200    291.96761   -510.50134    276544.35   -76704.042      7427.14   -84131.182     1481.097 
   29250    291.71009    -639.7205    276871.95   -76658.585    7420.5891   -84079.174     1484.927 
   29300    291.48853   -755.92543    277229.21   -76705.481    7414.9532   -84120.435    1489.1877 
   29350    289.65731   -445.65715    277175.55   -76733.412    7368.3701   -84101.782    1491.7572 
   29400    287.48858   -522.31915     277049.1   -76756.795    7313.2014   -84069.997    1492.4767 
   29450    290.06175    -527.6128    276859.34    -76758.68    7378.6583   -84137.338    1493.6113 
   29500    292.37527   -170.28084    276283.52   -76775.836    7437.5103   -84213.346    1492.2764 
   29550    290.76804   -432.63312    276400.51   -76743.031    7396.6251   -84139.657     1495.479 
   29600    293.07609   -536.41734    276754.39   -76717.519    7455.3379   -84172.857    1500.4549 
   29650     290.7349   -471.12603    277081.24    -76691.96     7395.782   -84087.742    1504.9052 
   29700     291.4681   -417.27348    277248.53   -76726.784    7414.4335   -84141.218    1506.9652 
   29750    293.86876   -420.97686    276895.83   -76715.737     7475.502   -84191.239    1506.1932 
   29800    291.55569   -75.022891    276519.61   -76695.187    7416.6617   -84111.849    1507.1235 
   29850    292.42343   -42.591665     276776.1   -76690.944    7438.7355    -84129.68    1511.4668 
   29900    289.81725    -618.8374     277368.8   -76639.861    7372.4388     -84012.3    1515.2474 
   29950    291.21052   -824.82172    277478.67    -76629.11    7407.8811   -84036.991    1517.0416 
   30000     294.4408   -539.73945     276878.3   -76667.162    7490.0535   -84157.215    1516.0305 
   30050      290.628   -407.41533    276474.63   -76689.822    7393.0628   -84082.884    1517.2814 
   30100    291.71731   -502.54102    276435.22    -76646.08     7420.773   -84066.853    1517.7103 
   30150    291.98596   -395.83049    276659.09   -76647.994    7427.6069   -84075.601    1521.5442 
   30200    286.27873     -463.725    277059.04   -76645.642     7282.425   -83928.067    1524.9099 
   30250    289.70083   -640.96387    277273.85   -76641.961    7369.4771   -84011.438    1527.5506 
   30300    289.31496   -308.53951    277071.08   -76616.823    7359.6614   -83976.484    1529.1186 
   30350    288.55563   -329.16155    277095.63   -76633.662    7340.3453   -83974.008    1530.8705 
   30400    288.09649   -608.04084    277204.71   -76700.537    7328.6656   -84029.202    1535.0529 
   30450    291.97873   -492.09699    276919.97   -76737.629    7427.4228   -84165.052    1540.7916 
   30500    288.51717   -159.22938    276743.51   -76686.846    7339.3671   -84026.213    1541.5043 
   30550    294.02344   -745.09225    276947.73   -76678.833    7479.4368    -84158.27    1545.6173 
   30600    292.61978   -759.01717    276936.13   -76713.067    7443.7301   -84156.797     1547.114 
   30650    289.90985     -620.984    276789.38   -76739.007    7374.7944   -84113.801    1548.0584 
   30700    291.37566   -400.30084    276513.08    -76735.54     7412.082   -84147.622    1550.4465 
   30750    286.92085    -488.2185    276396.65   -76771.319    7298.7593   -84070.078    1552.2353 
   30800    286.18426   -407.57312     276684.8   -76820.151    7280.0219   -84100.173    1555.9942 
   30850    289.04176   -489.15711    277029.02   -76838.591    7352.7116   -84191.303    1560.8145 
   30900    286.38348   -364.25297    276936.33   -76817.845    7285.0897   -84102.935    1563.1283 
   30950    287.95642   -565.46316     276703.9   -76830.093    7325.1026   -84155.196    1563.2774 
   31000    288.32994   -254.57733    276424.24   -76836.712    7334.6042   -84171.317    1562.7853 
   31050    290.82921   -661.42605    276489.62   -76831.577    7398.1811   -84229.758      1567.37 
   31100     292.5046   -526.32169    276437.36   -76808.017    7440.8002   -84248.817    1568.4994 
   31150    289.17098   -728.99237    276729.24    -76775.97    7355.9987   -84131.969    1570.6047 
   31200    286.44993   -488.08271    276755.25   -76763.366    7286.7801   -84050.146    1573.4106 
   31250    289.95966   -297.28965    276656.65   -76766.564    7376.0614   -84142.626     1574.664 
   31300    292.52742   -622.55858     276603.6   -76761.052    7441.3807   -84202.433    1576.9501 
   31350    284.48296   -436.67605    276573.97   -76780.169    7236.7438   -84016.913    1580.4394 
   31400    285.98844    -528.4356    276672.27   -76803.378    7275.0405   -84078.418    1584.7693 
   31450    286.38671   -564.52138    276730.11   -76786.998     7285.172    -84072.17    1586.5196 
   31500    290.64971   -639.70253    276839.81   -76784.831     7393.615   -84178.446     1588.404 
   31550    287.61386   -348.40699    276708.97   -76794.351    7316.3884   -84110.739    1591.5941 
   31600    287.09831   -396.16297    276446.41   -76810.761    7303.2737   -84114.034    1594.0706 
   31650     292.6336    -496.3175       276516   -76753.484    7444.0816   -84197.565     1598.301 
   31700    290.70378   -451.64227    276970.95   -76765.419    7394.9904    -84160.41    1599.5838 
   31750    289.72651   -864.64692       277515   -76749.852    7370.1305   -84119.982    1604.1349 
   31800    285.80932   -676.58015       277286    -76753.97    7270.4839   -84024.454    1605.5255 
   31850    283.74127   -412.73534    276654.97   -76786.365    7217.8764   -84004.242    1605.1364 
   31900    286.86244   -485.02743    276350.69   -76817.915    7297.2737   -84115.189    1605.6711 
   31950    293.84394   -461.91345    276426.09   -76789.019    7474.8706    -84263.89    1609.2911 
   32000     292.8847   -366.36148    276548.51   -76819.612    7450.4693   -84270.081    1612.5031 
   32050    285.48657   -747.52625    276968.24    -76828.12    7262.2739   -84090.394    1615.7608 
   32100    284.50919   -403.29086    276859.85   -76802.857     7237.411   -84040.267    1616.3928 
   32150    286.44705    -307.7328    276407.41   -76842.587    7286.7068   -84129.294    1614.9452 
   32200    286.07047    -407.2711    276479.17   -76806.291    7277.1273   -84083.418    1615.6154 
   32250    289.92059   -493.51697    276856.68   -76794.903    7375.0675   -84169.971    1619.4363 
   32300    288.67891   -853.65982    277074.33   -76820.388    7343.4813   -84163.869    1621.1102 
   32350    286.73495   -581.50446    276798.51   -76813.664    7294.0306   -84107.694    1620.8613 
   32400     290.4462   -429.86662    276323.23   -76814.448    7388.4382   -84202.886    1621.8526 
   32450    289.00158    -463.1817     276208.2    -76858.11    7351.6895   -84209.799    1622.9539 
   32500    290.74928   -354.17388    276620.53   -76839.982     7396.148    -84236.13    1626.4378 
   32550    289.15709   -479.57801    277146.94   -76849.376    7355.6454   -84205.021    1631.0053 
   32600    287.65995   -759.84132    277549.87   -76787.932     7317.561   -84105.493    1635.0522 
   32650    295.69962   -757.93037    277220.82   -76796.626    7522.0758   -84318.702    1634.7298 
   32700    286.05245   -556.77582    276567.57   -76801.373    7276.6688   -84078.042    1633.5875 
   32750    290.39391   -396.44635    276187.58   -76783.657    7387.1078   -84170.764    1635.2391 
   32800    289.52086   -311.46222    276291.15   -76807.899     7364.899   -84172.798    1638.0213 
   32850    291.17625    -533.4613    276747.42   -76797.745    7407.0092   -84204.754    1642.2729 
   32900    284.25874   -542.69402    277057.37   -76816.711      7231.04   -84047.751    1645.2398 
   32950    291.32054   -623.41533    276894.38   -76855.479    7410.6798   -84266.159    1648.1508 
   33000    290.03171   -333.80247    276622.73   -76802.267    7377.8941   -84180.161    1648.5925 
   33050    284.35489   -273.09943    276322.87   -76794.916     7233.486   -84028.402    1649.7492 
   33100    281.26084    50.308477     276157.4   -76809.985    7154.7788   -83964.764    1651.9412 
   33150    287.27097   -379.53068    276693.71   -76816.722     7307.666   -84124.388    1655.7685 
   33200     290.8314    -886.9476     277390.1   -76833.708     7398.237   -84231.945       1660.7 
   33250    284.82224   -550.60847    277132.12   -76835.071    7245.3746   -84080.446     1660.612 
   33300    289.31849   -322.43481     276400.3   -76828.699    7359.7511   -84188.451      1659.43 
   33350    289.86538   -371.24633     275964.1   -76870.791     7373.663   -84244.454    1660.1272 
   33400    287.36491   -203.27053    276160.81   -76835.195    7310.0555   -84145.251    1665.0594 
   33450    285.89281   -518.40387    277091.77   -76803.613    7272.6078   -84076.221     1670.143 
   33500    288.60146   -840.18706       277487   -76827.684    7341.5112   -84169.195    1673.4824 
   33550     287.6241   -554.67442    277126.97   -76800.622    7316.6488   -84117.271    1674.0753 
   33600    289.73622   -196.05529    276454.88   -76824.325    7370.3775   -84194.702    1676.0493 
   33650    289.23043   -401.22802    276352.53    -76830.92     7357.511   -84188.431     1678.517 
   33700    288.73576   -430.48672    276635.81   -76792.944    7344.9274   -84137.872    1683.3099 
   33750    288.51599   -516.29537    277014.64   -76768.933     7339.337    -84108.27    1688.8529 
   33800    287.15781   -655.54545    277305.52   -76769.964    7304.7872   -84074.751    1692.6799 
   33850    287.51324   -352.96439    277085.05   -76779.122    7313.8289   -84092.951    1692.9132 
   33900    289.64319   -161.23753    276861.61   -76805.812    7368.0109   -84173.823    1693.2893 
   33950    291.35952   -708.11689    277041.77    -76809.35    7411.6714   -84221.021    1696.6083 
   34000    286.03577   -307.48289    276983.86   -76776.472    7276.2447   -84052.717    1698.6261 
   34050    289.01445   -454.37333    276787.24   -76790.479    7352.0169   -84142.495    1699.9004 
   34100    285.98236   -202.29951    276374.09   -76811.714    7274.8859     -84086.6    1698.2614 
   34150    289.01092   -451.35194    276410.29   -76814.976    7351.9272   -84166.903    1699.2086 
   34200    286.28562   -499.44486    276834.55   -76822.328    7282.6003   -84104.929    1703.9351 
   34250    287.41059   -319.97295    277223.49   -76812.089    7311.2174   -84123.306    1709.6104 
   34300    290.00529   -672.59423    277542.82   -76767.293    7377.2221   -84144.515    1712.1273 
   34350    285.55908   -514.76459     277146.6   -76786.175    7264.1184   -84050.293    1711.1604 
   34400    289.15293   -567.48223    276417.58   -76840.559    7355.5395   -84196.099    1710.6868 
   34450    287.95726   -212.37485    275966.39   -76801.317    7325.1239    -84126.44    1713.0946 
   34500    282.86655   -389.73029    276485.69   -76839.612    7195.6251   -84035.237    1718.7788 
   34550    287.10507   -684.42806    277252.78   -76886.644    7303.4457   -84190.089    1725.8018 
   34600      282.282   -761.04886    277422.93   -76902.131    7180.7553   -84082.886    1728.5028 
   34650    289.35634   -715.65024       276886   -76882.043    7360.7139   -84242.757    1728.2692 
   34700    287.70168   -306.92856    275941.96    -76853.23    7318.6223   -84171.853    1728.0416 
   34750    287.32511   -344.58785    275757.45   -76877.961    7309.0431   -84187.004    1730.1971 
   34800    289.26972   -522.76871     276303.8   -76852.324    7358.5106   -84210.835    1734.2991 
   34850    284.32216   -639.43346    277070.89   -76879.915    7232.6533   -84112.568    1738.8495 
   34900    284.82725   -767.30283    277112.79   -76880.675    7245.5019   -84126.177    1740.6025 
   34950    289.08759   -856.96011     276548.4   -76837.687    7353.8774   -84191.564    1738.4722 
   35000    289.91326   -231.75356    276005.54   -76854.197     7374.881   -84229.078     1737.027 
   35050    285.57685   -170.53986    276187.39   -76837.575    7264.5705   -84102.145    1740.1022 
   35100    284.46396   -427.66061       276823   -76867.184    7236.2604   -84103.445    1746.5918 
   35150    287.61819   -610.17598    277266.52   -76874.221    7316.4985    -84190.72    1749.8563 
   35200    279.49293    -345.2584    276965.63   -76865.968    7109.8062   -83975.774    1750.2992 
   35250    286.82543   -546.93874    276574.21   -76831.408    7296.3321    -84127.74     1751.237 
   35300    288.29727   -354.93437    276426.58    -76806.19     7333.773   -84139.963    1752.0377 
   35350    289.82226   -388.08339    276679.56   -76787.552    7372.5661   -84160.118    1755.5328 
   35400    286.39905   -689.55182    277203.15    -76821.05    7285.4859   -84106.536    1759.3625 
   35450    284.98339   -602.60658    277193.52   -76793.923    7249.4738   -84043.397    1760.9241 
   35500    288.58211   -370.21033    276883.86   -76763.379    7341.0188   -84104.397    1762.6728 
   35550    286.93281   -480.92069    276764.71   -76803.442    7299.0636   -84102.506    1765.6105 
   35600    287.47608   -579.46363    276694.05   -76714.782    7312.8836   -84027.666    1767.0817 
   35650    288.35365   -273.66047    276659.83   -76707.785    7335.2072   -84042.992    1768.1369 
   35700    294.53157   -616.19855    277039.47   -76756.977    7492.3628    -84249.34    1773.1477 
   35750    284.21107   -420.40894    276902.92   -76754.916    7229.8274   -83984.743    1774.6846 
   35800    289.04769   -538.02489    276612.68   -76771.292    7352.8625   -84124.155    1776.1873 
   35850    286.28044   -311.58063    276722.18   -76735.824    7282.4684   -84018.292    1775.6429 
   35900    290.34158   -540.72652     276906.6   -76736.266    7385.7768   -84122.043    1779.8099 
   35950    292.65238   -706.98971    277180.25   -76750.796    7444.5594   -84195.355    1782.6694 
   36000    291.56436   -779.96373     277151.9   -76771.378     7416.882    -84188.26    1784.7907 
   36050    289.51573   -553.58082    276606.62   -76812.657    7364.7686   -84177.425    1785.3951 
   36100    288.27895    -438.5273    276243.15   -76778.277    7333.3071   -84111.584      1786.27 
   36150    288.17086   -364.56794    276320.46   -76773.586    7330.5575   -84104.144    1791.0233 
   36200    285.21129   -616.65049    276753.16   -76773.055    7255.2711   -84028.326    1794.9937 
   36250    292.12306    -502.0889    276682.76   -76763.736    7431.0946    -84194.83     1795.358 
   36300    289.41332   -647.47506    276692.14   -76815.496    7362.1636   -84177.659    1798.1294 
   36350    295.05785   -573.98137    276839.91   -76746.459    7505.7503   -84252.209    1801.8463 
   36400    286.24111   -800.24224    277000.56   -76795.336    7281.4681   -84076.804    1801.7807 
   36450    290.14257   -476.02177    276738.91   -76774.575    7380.7144    -84155.29    1803.9896 
   36500    289.55741   -421.58211    276567.36   -76772.922    7365.8288   -84138.751    1802.8314 
   36550    293.18778   -355.22497    276497.01   -76741.613    7458.1791   -84199.792    1805.6376 
   36600    287.05868   -361.50234    276858.15   -76718.724    7302.2657    -84020.99    1810.8874 
   36650    290.76895   -688.24384    277240.43   -76743.337    7396.6483   -84139.986    1817.2269 
   36700    287.45965   -663.41679    277060.89   -76736.281    7312.4657   -84048.747    1819.7407 
   36750    289.53886   -415.82074    276667.82   -76772.293     7365.357    -84137.65    1821.5021 
   36800    291.61185   -528.05305    276510.09   -76730.945    7418.0902   -84149.036    1821.5413 
   36850    292.42834   -636.99633    276685.37   -76742.668    7438.8604   -84181.528    1824.4542 
   36900    288.01854   -717.59027    277031.58   -76755.954    7326.6827   -84082.637    1830.2314 
   36950    288.29073   -652.03688    277330.06   -76787.305    7333.6067   -84120.912    1832.7181 
   37000    288.15402   -627.07551    277326.97    -76809.18     7330.129   -84139.309    1834.5032 
   37050    288.46211   -625.89636     277107.1   -76817.377    7337.9663   -84155.344     1834.313 
   37100     290.7032   -709.90042    276549.59   -76779.604    7394.9756   -84174.579    1833.1844 
   37150    288.86484   -245.93152    275997.47   -76792.003    7348.2112   -84140.214    1831.7922 
   37200    291.88502   -504.94572    276324.34   -76805.536     7425.039   -84230.575    1835.8675 
   37250    288.82929   -285.65073    276788.94   -76793.449    7347.3067   -84140.755    1841.8675 
   37300    289.60368   -652.20141    277407.19   -76798.064    7367.0059    -84165.07    1847.6623 
   37350    289.78288   -622.59316    277541.65   -76790.293    7371.5645   -84161.857    1849.7653 
   37400    289.00002   -712.13567    277175.04   -76773.096    7351.6499   -84124.746    1849.8724 
   37450    287.02821   -478.72671    276478.84   -76778.335    7301.4905   -84079.825    1850.2511 
   37500    292.47387    -344.0961    276321.49    -76780.04    7440.0183   -84220.058    1854.6494 
   37550    287.06689   -213.17227    276713.12   -76766.111    7302.4743   -84068.585    1860.0314 
   37600    291.87609   -751.43445    277146.12   -76781.898     7424.812    -84206.71    1864.2776 
   37650     293.9216   -643.87109    277042.83   -76780.095     7476.846   -84256.941      1863.65 
[...]
   90850     290.1658   -448.09798     276473.1   -76598.683    7381.3052   -83979.989    4349.1914 
   90900    287.78559    -481.6631    277076.58   -76599.086    7320.7569   -83919.843    4354.9041 
   90950     289.1222   -600.76606       277396   -76627.564    7354.7578   -83982.322    4358.2879 
   91000    290.21381   -406.60934    277267.65   -76607.214    7382.5265    -83989.74    4360.3277 
   91050    288.51497   -625.92335    277079.52   -76634.676    7339.3111   -83973.987    4360.5215 
   91100    294.68744   -356.74995    276697.87   -76592.321    7496.3277   -84088.649    4359.6985 
   91150    293.86273   -394.39346    276664.63   -76609.515    7475.3485   -84084.863    4359.0117 
   91200    294.46864   -545.75134    276988.28   -76642.105    7490.7618   -84132.867    4363.7516 
   91250    292.72938   -538.69552    277144.94   -76652.244    7446.5181   -84098.762    4367.6901 
   91300    290.01374   -584.79742    277101.63   -76649.701     7377.437   -84027.138    4365.3333 
   91350    288.78208   -427.90937    276961.53   -76658.427    7346.1058   -84004.533    4366.1051 
   91400    286.79438   -755.41001    276853.31   -76684.381    7295.5423   -83979.923     4367.139 
   91450    284.76384   -516.51276    276563.94   -76710.082     7243.889   -83953.971    4366.1047 
   91500    285.87029   -427.90529    276479.92   -76709.529     7272.035   -83981.564    4367.5587 
   91550     290.2389   -228.99821    276615.78   -76700.686    7383.1646   -84083.851    4371.1222 
   91600    287.16325   -368.75732     277056.5   -76724.699    7304.9257   -84029.625    4380.0915 
   91650    288.26849   -445.28233    277224.25   -76781.268     7333.041   -84114.309    4385.8875 
   91700     290.7609   -620.12871    276941.82   -76799.944    7396.4435   -84196.387    4384.9217 
   91750     288.9445   -346.69669    276502.85   -76759.952    7350.2374   -84110.189    4383.4842 
   91800    293.12268   -469.38591    276489.81   -76760.188    7456.5229    -84216.71    4384.1594 
   91850    289.14446   -311.29867     276929.9   -76794.014    7355.3242   -84149.339    4392.6025 
   91900    293.76976   -883.72651    277379.63   -76776.494    7472.9836   -84249.477    4399.6602 
   91950    290.40626   -427.06739    277045.51   -76827.567    7387.4221   -84214.989    4395.7698 
   92000    288.33693   -132.17327    276469.21   -76797.322    7334.7819   -84132.104    4393.7857 
   92050     290.2056   -281.00518    276444.89    -76854.42    7382.3176   -84236.737     4396.747 
   92100     288.2539   -528.11445    276748.84    -76782.42    7332.6699    -84115.09    4404.9647 
   92150    289.12763   -775.41618    277161.28   -76776.123     7354.896   -84131.019    4413.2874 
   92200    292.79069   -561.00449    277238.12   -76769.646    7448.0778   -84217.724    4414.4006 
   92250    286.22498   -833.07901    276991.64   -76748.424    7281.0577   -84029.482    4409.4744 
   92300     284.0321   -526.79967    276638.28   -76759.983    7225.2748   -83985.258    4403.3351 
   92350     290.3778   -572.40622    276712.74   -76774.703    7386.6982   -84161.401    4409.1252 
   92400    287.16074   -294.46763     276645.5    -76776.53    7304.8619   -84081.392    4414.0804 
   92450    286.29479   -526.80096    276520.87   -76763.726    7282.8335    -84046.56    4415.4188 
   92500    291.57498   -590.19183     276662.4   -76790.715    7417.1522   -84207.867    4422.7086 
   92550    289.06656   -532.77901    276844.18   -76797.985    7353.3426   -84151.327    4430.1129 
   92600    286.90631   -359.78401    276545.86   -76830.265    7298.3895   -84128.654    4429.8529 
   92650    287.58884    -323.9389    276306.73   -76821.993    7315.7519   -84137.745    4431.4971 
   92700    287.76504   -573.97108    276400.17    -76812.19    7320.2342   -84132.424    4433.2728 
   92750    286.45133   -749.05969    276795.46   -76866.485    7286.8157   -84153.301    4440.7398 
   92800    292.51703   -730.81988    276958.73   -76857.171    7441.1165   -84298.287    4444.6276 
   92850    287.92102   -666.34087    276837.06   -76839.481     7324.202   -84163.683    4444.0829 
   92900    285.50425   -318.75351     276726.4    -76847.96    7262.7236   -84110.684     4446.121 
   92950      285.166   -494.27048    276846.16   -76836.186    7254.1191   -84090.305     4448.037 
   93000    285.35949   -494.76016    276823.73   -76795.106    7259.0411   -84054.147    4449.0352 
   93050    292.74449   -478.84512    276671.09   -76771.123    7446.9025   -84218.025    4447.6623 
   93100    292.05415   -249.13743    276576.25   -76731.699    7429.3415   -84161.041    4451.3348 
   93150    292.98382   -536.99356    276602.53   -76751.614    7452.9906   -84204.605    4453.0854 
   93200    291.11159   -582.77467    276818.03   -76728.545    7405.3645    -84133.91    4459.3493 
   93250    289.83559   -691.38867    277092.23   -76693.695    7372.9052   -84066.601    4464.8284 
   93300    291.46924   -443.57768    276991.64   -76723.898    7414.4624    -84138.36      4468.31 
   93350    293.52406    -577.4018     276896.2   -76769.164    7466.7334   -84235.898    4472.6476 
   93400    290.16941    -750.6384    277006.42   -76783.427    7381.3972   -84164.824    4475.1548 
   93450    285.59136   -503.73503    276845.91    -76776.86    7264.9396   -84041.799    4473.8445 
   93500    292.14251   -437.33187    276588.76   -76770.463    7431.5892   -84202.052     4472.269 
   93550    288.86091   -413.21659    276659.35    -76758.85    7348.1111   -84106.961    4476.7385 
   93600    289.10733   -539.87529    276851.59   -76726.002    7354.3796   -84080.382    4482.1503 
   93650    291.15864   -456.06694    277004.23   -76736.179    7406.5614    -84142.74    4483.9536 
   93700    289.11592   -582.36383    277123.23   -76728.815     7354.598   -84083.413    4489.8296 
   93750    293.11287   -358.34653    276873.27   -76717.481    7456.2734   -84173.754     4491.462 
   93800    292.08787   -452.75617    276834.48   -76712.134    7430.1992   -84142.333    4495.0373 
   93850    290.15482    -572.6623    276832.28    -76713.65    7381.0258   -84094.676    4499.9562 
   93900    290.70853   -608.71781    276642.12   -76698.494    7395.1113   -84093.605    4498.7182 
   93950    290.27466   -370.94478    276337.82   -76704.014    7384.0745   -84088.088    4496.2137 
   94000    289.68923   -525.96571    276623.08   -76689.165    7369.1821   -84058.347    4502.0225 
   94050    288.90631   -597.32975    277079.37   -76647.207    7349.2661   -83996.473    4514.6331 
   94100    293.69495   -888.36921    277459.27   -76664.219    7471.0806     -84135.3     4521.819 
   94150    294.59755    -602.2471    277280.39   -76654.074    7494.0411   -84148.115     4524.742 
   94200    295.00469    -332.1247    276733.37   -76649.255     7504.398   -84153.653    4521.1672 
   94250    297.14936   -390.39994    276647.31   -76632.973    7558.9547   -84191.928    4523.2858 
   94300    293.13744   -465.64932    277102.71   -76606.438    7456.8986   -84063.337    4531.3863 
   94350    286.69145   -903.24915     277547.5   -76610.229    7292.9238   -83903.153    4542.7089 
   94400    289.98259   -407.55756    277309.62   -76631.412    7376.6448   -84008.057    4544.9402 
   94450    295.65327   -605.03826    276863.28   -76632.851    7520.8968   -84153.748    4540.4751 
   94500    293.64638   -269.93535    276570.34   -76615.948     7469.845   -84085.793    4539.0878 
   94550    289.97313   -571.83226    276935.13   -76647.665     7376.404   -84024.069     4546.005 
   94600    293.95536   -655.54484    277367.63   -76638.489    7477.7049   -84116.194    4557.2052 
   94650    293.64632    -619.3183    277507.52   -76603.539    7469.8435   -84073.382    4564.0599 
   94700    297.48794   -816.85701    277287.38   -76563.567    7567.5676   -84131.135    4565.9412 
   94750    292.91268    -663.7573    276763.72   -76616.924    7451.1809   -84068.105    4563.7181 
   94800    290.43561   -316.85352    276435.71   -76634.917    7388.1687   -84023.086    4561.4655 
   94850     290.8691   -412.07695       276629   -76653.119    7399.1961   -84052.315    4567.2894 
   94900     292.7599   -344.98289     276824.4   -76654.073    7447.2946   -84101.367    4575.0164 
   94950    290.85824   -351.18068    276851.76    -76691.12    7398.9196    -84090.04     4576.804 
   95000    291.76555    -579.4264    276783.33   -76705.376    7422.0001   -84127.376    4579.6971 
   95050     292.6761   -545.91618    276724.22   -76660.168    7445.1628   -84105.331     4582.652 
   95100    286.49038   -625.56454    276608.81   -76671.808    7287.8089   -83959.617    4584.6026 
   95150    289.78726   -372.85556    276469.28   -76689.871    7371.6759   -84061.547    4583.2223 
   95200    290.84836   -512.67013    276829.72   -76694.343    7398.6682   -84093.012     4586.734 
   95250    292.18548   -692.39325    277269.35   -76673.752    7432.6823   -84106.434    4593.9066 
   95300    292.51971   -499.87187    277213.02   -76710.458    7441.1844   -84151.643    4594.1154 
   95350    287.55564   -627.06136    277015.42   -76733.612    7314.9073   -84048.519    4597.5916 
   95400    294.65042   -579.55495    276434.85   -76699.952    7495.3861   -84195.338    4591.8201 
   95450    295.35659    -329.7252    276229.53   -76712.974    7513.3497   -84226.324    4593.2398 
   95500    289.57696   -427.28968    276808.52   -76715.539    7366.3262   -84081.865    4602.0763 
   95550    293.33604   -728.97853    277139.91   -76718.677    7461.9504   -84180.627    4609.9163 
   95600    290.60559   -315.22178    276909.28    -76714.26    7392.4927   -84106.752    4610.1597 
   95650    289.19408   -703.76501    276574.44   -76762.794    7356.5864   -84119.381    4611.1898 
   95700    296.18799   -347.02146    276603.46   -76742.142     7534.499   -84276.641    4617.2143 
   95750    288.85978   -631.34874    277147.14   -76730.313    7348.0823   -84078.395    4626.6424 
   95800    290.15546   -767.72233    277184.24   -76765.238    7381.0422    -84146.28    4631.2313 
   95850    286.56938   -361.93687    276692.59    -76751.21    7289.8188   -84041.029    4631.8475 
   95900    290.45189    -356.6914    276357.71   -76755.929    7388.5829   -84144.512    4633.3509 
   95950    289.21393   -336.80427    276387.87   -76743.696    7357.0912   -84100.787    4637.2009 
   96000    291.17736   -565.14538    277024.37   -76749.052    7407.0375    -84156.09    4649.0729 
   96050    290.31512   -560.58038    277494.14   -76727.045    7385.1037   -84112.148    4654.2573 
   96100    290.92771   -751.58955    277627.26   -76653.866    7400.6868   -84054.553    4657.3364 
   96150    289.44309   -621.57995    276906.74       -76687    7362.9208   -84049.921    4650.0279 
   96200    288.51187   -210.19557    275826.63   -76638.861    7339.2321   -83978.093    4640.5546 
   96250     291.2109    -340.1048    275874.99   -76642.315    7407.8906   -84050.206    4643.5471 
   96300    290.81216   -736.39923    276997.25   -76644.126    7397.7475   -84041.874    4658.6017 
   96350    294.05348    -725.6565    277898.94   -76638.804     7480.201   -84119.005    4669.5371 
   96400    289.61034   -545.59628    277809.51   -76672.633    7367.1754   -84039.809    4667.6827 
   96450    293.02004   -634.61409    277102.31    -76647.85    7453.9121   -84101.762    4659.9561 
   96500    293.91273   -261.22145    276239.99   -76643.603    7476.6205   -84120.223    4653.1218 
   96550    296.74944   -148.35622    276024.74   -76637.781    7548.7814   -84186.562     4651.592 
   96600    295.13628   -495.64473    276776.07   -76645.126    7507.7455   -84152.871    4663.3484 
   96650     291.9513   -729.94914    277686.92   -76684.648    7426.7253   -84111.373    4675.3207 
   96700    288.85825   -476.96977    277624.32   -76689.512    7348.0435   -84037.555    4677.9693 
   96750    294.32833   -317.12658    276850.13   -76680.042    7487.1926   -84167.234    4673.7663 
   96800     297.6377   -384.10912    276168.21   -76701.455    7571.3772   -84272.832      4666.33 
   96850    290.52769   -401.74598    276200.09   -76733.919    7390.5111    -84124.43     4668.424 
   96900    291.99083   -298.92589    276824.91   -76688.837    7427.7307   -84116.567    4679.1588 
   96950     290.5215   -592.23598    277674.17   -76687.789    7390.3536   -84078.143    4690.0146 
   97000    287.38737   -930.77079    277749.02   -76704.233    7310.6269    -84014.86    4693.7016 
   97050    286.98513   -493.83532    277146.23   -76682.235    7300.3947    -83982.63    4685.2081 
   97100    290.40255   -431.04477    276426.14   -76720.497    7387.3278   -84107.824    4677.9979 
   97150    290.74062   -335.26475    276149.14   -76739.241    7395.9276   -84135.169    4675.4751 
   97200    289.23466   -354.85059    276302.96   -76724.481    7357.6187   -84082.099    4681.6376 
   97250    287.31023   -440.86764    276735.31   -76733.668    7308.6646   -84042.333    4686.4306 
   97300     292.5351   -945.76811    277200.13   -76758.181    7441.5761   -84199.757    4691.9243 
   97350    291.01143    -686.8643    276990.61   -76792.619    7402.8165   -84195.435    4692.2101 
   97400    287.96729   -677.11041    276502.58    -76803.98     7325.379   -84129.359    4688.1625 
   97450    290.99711   -278.40168    276195.32   -76831.541    7402.4524   -84233.993    4687.1879 
   97500    290.55992   -246.57201    276335.49   -76830.576    7391.3308   -84221.907    4689.8779 
   97550    287.91312   -417.69671    276821.74   -76798.037    7324.0011   -84122.038    4696.8754 
   97600     287.5154   -673.70967    277194.72   -76761.209    7313.8836   -84075.093    4699.7246 
   97650    285.49823   -612.86085    277241.68   -76734.741    7262.5705   -83997.311    4702.9049 
   97700    291.96444   -419.43121    276687.18   -76751.149    7427.0594   -84178.208    4700.4221 
   97750    290.17884   -308.75037    276180.18   -76738.924    7381.6369   -84120.561    4696.8429 
   97800    294.10536   -349.55484    276266.75   -76785.123    7481.5206   -84266.643    4701.2082 
   97850    287.74513    -412.4784    277048.28   -76813.876    7319.7277   -84133.603     4715.592 
   97900    289.53001   -708.11811    277551.57   -76843.926    7365.1318   -84209.058    4724.6232 
   97950      291.136   -697.74536    277257.81   -76810.054    7405.9855    -84216.04     4724.739 
   98000    288.94016    -325.3363     276328.4   -76835.963     7350.127    -84186.09    4718.2629 
   98050    287.99884   -143.12845    275762.89    -76839.23    7326.1817   -84165.411    4713.6316 
   98100     288.9311   -243.57554    276236.88    -76861.64    7349.8967   -84211.537    4724.4724 
   98150    281.79744   -866.56491    277494.04   -76856.065    7168.4289   -84024.494    4740.3571 
   98200    283.75522   -819.42272    278024.67   -76858.226    7218.2313   -84076.457    4748.8276 
   98250    287.57179   -874.13648    277323.08   -76849.116    7315.3181   -84164.434    4741.7149 
   98300    288.37152   -507.30627    276048.94   -76903.066    7335.6618   -84238.728    4726.4905 
   98350    290.06738   -67.654854    275445.28   -76912.074    7378.8015   -84290.876    4722.9714 
   98400    288.32932   -221.91226    275962.16   -76881.517    7334.5885   -84216.106    4731.7773 
   98450    289.58236   -720.84796    276930.33   -76846.303    7366.4634   -84212.767     4743.213 
   98500    286.03708   -769.05109    277560.58   -76847.727    7276.2779   -84124.005    4752.0281 
   98550    288.25101    -744.8788    276978.26   -76888.161    7332.5962   -84220.758    4747.4438 
   98600    289.47074   -374.04283    276105.56   -76901.509    7363.6241   -84265.133    4739.8628 
   98650    288.14919   -217.14621    275680.73   -76903.681    7330.0063   -84233.688    4741.0175 
   98700    287.54804   -186.55538    276176.99   -76888.867    7314.7141   -84203.581    4751.0013 
   98750    289.09874    -619.6506    277097.41   -76867.166     7354.161   -84221.327    4762.6836 
   98800    284.04545   -723.80872    277522.95   -76863.212    7225.6144   -84088.826    4769.6156 
   98850    284.72211   -540.85777    277283.21   -76839.401    7242.8274   -84082.228     4770.933 
   98900    288.92152   -512.92955    276710.15   -76847.382     7349.653   -84197.035    4767.8482 
   98950    291.14746   -436.24207    276344.49   -76829.496    7406.2769   -84235.773    4768.8681 
   99000    288.82351   -297.34083    276446.32   -76814.308    7347.1598   -84161.467    4775.4425 
   99050    290.77298   -559.58586    276844.99   -76822.328    7396.7508   -84219.079    4780.9795 
   99100    284.71539   -628.82239    277119.18   -76818.591    7242.6565   -84061.248    4784.4442 
   99150    287.81719   -436.78428    277074.64   -76825.574    7321.5607   -84147.135    4782.8185 
   99200    289.78223   -495.03201    276849.06   -76846.112    7371.5478    -84217.66    4779.0716 
   99250    289.04719   -548.56758    276460.74   -76866.421    7352.8498    -84219.27    4777.8251 
   99300    283.38237   -421.24271    276202.16   -76905.852    7208.7468   -84114.598    4778.9713 
   99350    289.49832   -281.16026    276177.05   -76918.797    7364.3258   -84283.123    4781.1566 
   99400     285.9723   -598.06757    276789.25   -76902.888      7274.63   -84177.518    4788.7026 
   99450    287.79332   -664.23934    277268.88    -76897.43    7320.9535   -84218.383    4797.6609 
   99500    284.45577   -617.52576    277020.62   -76914.481    7236.0521   -84150.533    4796.2677 
   99550    285.63341   -273.17165    276519.49   -76873.379    7266.0093   -84139.388    4793.1359 
   99600    286.20532   -447.38053    276409.57   -76875.718    7280.5575   -84156.276    4793.6095 
   99650    286.34453   -502.15211    276313.72   -76873.459    7284.0989   -84157.558    4795.5752 
   99700    288.41842    -355.1149    276294.57   -76858.987    7336.8549   -84195.842    4801.8753 
   99750    287.64847   -613.86709    276485.94   -76875.001    7317.2688    -84192.27    4805.7438 
   99800    286.36925   -786.16675    276609.18    -76875.48    7284.7277   -84160.208    4809.3144 
   99850    291.92229   -654.28023    276712.17   -76867.724    7425.9873   -84293.711    4815.2104 
   99900    287.42989   -520.23921    276889.27   -76883.133    7311.7085   -84194.841    4822.1383 
   99950    285.06446   -345.12591    277094.66   -76858.818    7251.5361   -84110.354     4828.368 
  100000    289.15781    -714.3088    277315.11   -76814.986    7355.6637    -84170.65    4831.8932 
Loop time of 251.54 on 6 procs for 100000 steps with 8535 atoms

Performance: 343.485 ns/day, 0.070 hours/ns, 397.552 timesteps/s
99.4% CPU use with 6 MPI tasks x no OpenMP threads

MPI task timing breakdown:
Section |  min time  |  avg time  |  max time  |%varavg| %total
---------------------------------------------------------------
Pair    | 72.411     | 129.37     | 196.95     | 450.8 | 51.43
Neigh   | 30.641     | 36.218     | 40.321     |  65.0 | 14.40
Comm    | 7.8235     | 79.503     | 141.79     | 615.4 | 31.61
Output  | 0.14913    | 0.15211    | 0.16531    |   1.5 |  0.06
Modify  | 5.1411     | 5.2015     | 5.2646     |   1.7 |  2.07
Other   |            | 1.1        |            |       |  0.44

Nlocal:        1422.50 ave        1444 max        1392 min
Histogram: 1 1 0 0 0 0 1 1 0 2
Nghost:        1976.67 ave        2019 max        1931 min
Histogram: 1 0 0 2 1 0 0 0 0 2
Neighs:        0.00000 ave           0 max           0 min
Histogram: 6 0 0 0 0 0 0 0 0 0
FullNghs:      39581.7 ave       40522 max       38972 min
Histogram: 1 1 0 2 0 1 0 0 0 1

Total # of neighbors = 237490
Ave neighs/atom = 27.825425
Neighbor list builds = 20792
Dangerous builds = 0

# Create data file for import to other simulations
#
write_data data.${NAME}
write_data data.coexist_289K_-500atm_ML
System init for write_data ...

Total wall time: 0:04:11
