LAMMPS data file via write_data, version 29 Oct 2020, timestep = 200000

4608 atoms
1 atom types

-0.466937355816782 53.866937355816304 xlo xhi
-0.03590693215842933 50.94302693215647 ylo yhi
-0.03590693215842933 50.94302693215647 zlo zhi

Masses

1 18.015

Atoms # atomic

3929 1 17.536285729586254 10.50390515992315 10.539553358976786 0 1 1
2646 1 9.906847824183199 48.91756856301501 3.106502810487076 1 -1 1
2396 1 8.116100632164969 0.8848643604609124 5.145387735794804 0 2 1
105 1 1.3867267237560865 17.50849564173839 10.137298511581289 0 1 1
2073 1 12.878371825998007 24.319350946100244 2.421990072130636 1 -1 0
2616 1 14.582182061457896 2.0499435817745546 3.679537347632058 0 0 2
4364 1 -0.3363666877323129 29.494249514622545 25.25135807130584 1 -1 1
1178 1 1.9341518661169754 1.1885443639430353 2.357200104676412 -1 0 1
1291 1 6.173755549713179 1.9470870598597232 3.3414161628157886 0 1 0
697 1 12.603225281905075 5.745818897451168 3.470983092409206 0 1 0
3881 1 2.379433897915947 18.227488700902256 23.81721932537498 0 1 2
3577 1 9.774028589720224 34.318827623069396 21.575111263357304 0 0 0
4481 1 2.9918604102810953 3.9793593593277734 2.7536159297009024 0 1 0
120 1 1.4347892915256542 7.312651383543281 4.9486162320343485 0 0 1
75 1 8.1423680781825 7.226385651155762 5.972311511434913 0 0 0
1085 1 8.14562653623742 4.476408376142336 2.4985756597810367 -1 0 2
85 1 5.09347964298296 6.607123102415753 0.2659668565400488 -1 1 0
2958 1 7.35869929895282 9.754564037617365 4.935769001610167 1 1 1
3418 1 12.076795386959343 32.61011961770615 2.483020263158866 0 0 0
4527 1 16.62265692743567 5.910727947086481 3.3303067278028746 0 0 -1
1858 1 14.771832785898532 8.429512832521414 6.314878260640198 0 -1 0
684 1 0.41071186321659314 41.47430052161265 7.253799368472314 1 -2 0
2787 1 13.731081422867893 36.548033029071775 24.930834822330056 0 0 1
2012 1 10.869408883061173 12.315633257472504 4.284986366372882 0 1 1
1554 1 2.818142812780533 24.029344541395368 3.1404176197266396 1 3 0
2935 1 2.9475661311193355 9.721934082281631 3.149406738085534 -1 1 0
2421 1 3.0202801116272058 42.990338557879554 24.788720430556463 -1 -1 0
2809 1 9.518256360948893 22.783489988078042 2.3748739188053696 1 1 0
2757 1 11.632428498760445 13.698954280921944 6.295786843680743 -1 -3 1
285 1 13.060165990336731 15.313236677087904 4.700162664787539 0 -1 1
2105 1 12.942040022754352 10.302631835672566 2.196547088969016 -1 1 0
43 1 0.9585227871869464 48.371328420942774 11.030047790868116 -1 0 1
2873 1 3.858604932375071 14.533724722530172 1.941652932512636 0 0 1
61 1 0.8473628268150506 15.638120669172297 1.1440227567436707 0 0 1
3762 1 -0.09842694325334889 24.851242321679806 9.93047200305393 1 -1 0
3732 1 6.824688151171809 17.990807392276334 0.784526733111341 1 0 0
1272 1 11.568732147860272 16.730337355705633 2.0553657323117074 -1 1 2
672 1 2.5156236358050834 22.169621659826152 24.69079087115444 0 1 0
3619 1 16.31418503617774 1.5600325823134535 7.681949814261971 1 1 0
2417 1 5.702120238236395 21.06539711690051 3.154843736839707 0 0 0
1158 1 8.72008940810492 18.666877276118473 5.126905689581933 1 0 0
1182 1 10.77664232905196 19.118826088229138 3.3681636708825575 -1 0 0
431 1 16.687349202912543 22.032542482011962 2.351691068969386 0 -1 -1
3776 1 5.510030409403068 28.198379873570953 1.591677137976733 1 0 0
2142 1 0.6201274222614579 23.272097222605975 2.047091315178655 1 0 0
1393 1 4.205654756885756 42.263275301604494 18.992622999246834 0 0 -1
2643 1 0.21520795483217636 42.36491694390958 0.33852416851648326 0 0 0
1685 1 15.229215709527544 13.512943489548519 1.6123386607261716 0 0 -1
2146 1 2.0188538285446467 29.296489209676167 3.7664611384463687 2 0 0
3696 1 10.612713473230555 0.30419200626393206 1.108436915989317 0 0 0
3392 1 12.038157827811519 28.794056444455943 3.42915029271459 1 -1 0
1384 1 16.368842452500566 26.363731505039432 3.1359582492255056 1 -1 0
615 1 16.60996129611529 37.005402476776055 19.08332315684822 0 1 -1
752 1 -0.225525936325156 37.67204573739593 22.73094871286889 1 0 1
3479 1 5.627882222809896 23.917414440607704 2.8351804958783116 0 1 -1
2929 1 1.6167263594569188 39.63884052777665 0.3941818363600218 1 0 0
3872 1 15.37316974109978 28.73993955397265 1.5183500306092264 0 -1 0
3518 1 1.152875994918557 19.122080233882215 18.345244654211772 1 0 0
3049 1 16.42115427287658 22.08428207588375 22.93863214689331 1 1 0
1573 1 15.094840631591294 41.916325949308145 0.079117685308193 0 0 0
227 1 10.09041302387067 35.347962925983566 3.0840502214983547 0 0 1
2642 1 17.106414061500917 32.44731893108049 2.2490149598037865 0 1 -1
1249 1 15.096447736388072 7.990624033659415 1.8569290846699482 -1 0 1
230 1 0.449643871981787 38.914363507607604 6.212246611377227 0 0 -1
2032 1 1.6442543702441954 32.55327759415792 5.3234356734043295 0 -1 -1
1039 1 9.627870092035144 9.669896005945805 3.02934837381341 0 0 1
4504 1 2.185969728760513 33.92788372257462 2.5126889048125016 0 0 1
1998 1 11.838711761793446 37.589544991906834 3.7903929747201457 -1 -2 0
3747 1 6.011498924976022 28.370634882937228 8.385088541057268 0 -1 0
579 1 2.705407833785254 41.32611870069735 2.5957478510500493 0 -1 1
216 1 1.780349328605832 47.54949941779347 15.500881099852897 1 -1 0
544 1 13.025615040355222 41.08817250735164 4.352937372128531 0 -1 0
816 1 1.9285449616277988 36.695089273849874 3.4188656248190985 1 0 1
2798 1 14.165040746262388 36.35616669940909 3.036901604325848 1 -1 1
2185 1 -0.11511783454619934 41.58434814280983 21.274978278292973 1 0 -1
2284 1 9.777869606583518 42.48733579379902 2.565234364728937 1 0 0
3109 1 17.31343686652828 39.81939382443511 4.1372836046700225 0 -1 -1
117 1 14.637091030194542 44.50477938519667 1.94189892302 1 -1 -1
603 1 1.992211243633689 49.706198141795014 22.389778001894864 -1 -2 0
4366 1 0.0569328460123113 25.478498196956224 12.92137024744608 1 -1 0
3210 1 16.115520524017622 46.828017047301046 1.0402387622321143 1 -2 1
2570 1 2.604297707566883 47.33372023907653 4.053407571030074 0 -2 0
1028 1 11.063781051539507 4.2920491508502705 1.5250007458969574 -1 0 0
3923 1 1.5554162150966584 29.702665370698977 6.97376404522521 1 0 1
649 1 -0.10678658343551045 38.110290251428864 19.59010330049628 -1 -1 0
4216 1 0.1754470588764604 30.903642600616163 22.99261805217513 1 0 1
2271 1 10.339741764126371 35.44690189392534 0.13334696799266427 1 0 0
3263 1 8.685090352076694 22.7120290272535 24.743528148488064 1 1 0
219 1 17.430096989552244 49.12204459582219 22.944840101076647 0 -1 0
957 1 1.0283811549959183 5.425144134298309 3.0555332284371377 0 1 1
2737 1 4.9953832244619445 50.41098793445157 3.2117031340867808 1 0 1
706 1 0.745952036958649 26.182546763449842 15.77497336596667 1 2 0
100 1 13.266190471820568 0.9846173352950895 0.29797718709761223 0 1 0
3778 1 12.924146381214195 48.62214489617284 1.2354663005217685 1 1 1
549 1 6.748376897891339 2.2015432046446812 7.090990970558363 0 1 1
16 1 11.218966848938475 4.05695107717996 6.348983161875322 0 1 1
445 1 8.612784576942282 4.475296640223039 5.6797343290526054 0 0 1
2244 1 2.191386898978403 3.4089235138274026 8.741460105222421 0 0 0
827 1 4.518021341729527 3.60384895346104 5.033246738767727 0 0 0
538 1 14.267765907556395 5.618543481655598 8.966691074542085 1 0 -1
796 1 14.372462811962873 3.7677165305701483 1.500620762686252 -1 1 1
2455 1 1.0372743832234057 24.82052526229444 20.96510074204591 1 -1 0
4208 1 4.340344857848926 7.5050856976553115 5.3796552310978285 0 0 1
766 1 4.983277136495851 9.809326693822333 7.069061869125968 1 0 0
4239 1 10.661997934295954 7.655524538285533 4.791859426420294 1 0 1
3947 1 8.7208910901184 34.30681497639718 24.8070380420156 2 0 1
1233 1 0.21591921117595803 13.046855571870314 1.7711970260104941 1 -1 0
45 1 12.486297651134747 13.472853486864382 2.4044402020601714 0 0 0
2495 1 2.556542522397163 12.600253191817975 3.8403750788523676 1 1 1
3181 1 4.014636167271546 12.342109765312207 6.079195878640442 1 0 0
2392 1 6.044864307545991 12.216122237859269 4.05173159932 0 1 0
1741 1 10.995699529842938 9.384258540024636 8.424687133287414 0 1 0
3265 1 12.395529440746698 9.881780154095578 5.29309147499627 1 1 0
2162 1 1.0526579638632332 17.151202850811238 3.8251353404626918 0 0 0
432 1 5.118750274146472 16.61355882456925 2.4402892343393576 0 1 1
4534 1 8.840584391334035 10.553390118509254 7.194114114605476 1 0 0
3234 1 15.941936604549234 14.000157857662096 6.73356196821148 1 0 1
540 1 1.3689481538590147 15.514148648754048 16.233360621680344 0 1 0
3548 1 3.341755379186253 18.605399903592627 3.7110087402184804 1 0 1
3384 1 0.6143564067249796 17.873263826363214 7.026325949944612 0 0 -1
399 1 7.275721830394348 14.38114227763324 5.303858606209794 0 -1 0
3836 1 11.88864224463638 17.9321422014191 5.880802605799343 2 0 1
1472 1 16.33158069351271 10.588187266701933 1.906361942129679 0 0 1
795 1 2.6422711598336113 7.602529683529152 1.3054832685171478 0 0 1
4189 1 3.221379364693741 20.815689479348766 2.185882302526833 1 1 1
1049 1 2.3648765026316108 2.682464694162606 24.43492633702056 0 0 -1
3895 1 5.824387038110116 21.264629800569963 5.731320877344855 0 0 0
3126 1 3.4945980421223743 22.628284308069027 6.6636851793106295 0 0 0
2 1 15.961506315883394 15.148185762534224 4.203073825629479 0 2 1
3523 1 10.047123832763925 16.671845876721477 7.605566959949746 1 0 0
1367 1 14.009999337524178 20.714098759910723 3.0094884403694353 1 0 -1
3352 1 0.20436309038233014 33.30690787001923 21.28454124985988 1 0 0
280 1 1.0728298904578708 24.776961867863786 5.398130508724152 0 1 -1
4363 1 4.176047985011686 25.827834819105934 0.914998097721665 1 1 1
2645 1 9.140274832688972 21.362082497264716 6.511350070611392 2 0 1
129 1 8.155484567813462 23.454212448818296 4.661624361656392 1 0 0
2357 1 14.340840908214002 22.920248775072025 4.839760524939796 -1 -1 1
2509 1 13.723832053044871 24.106132613785448 7.7022559086780955 1 0 1
301 1 0.6270474598050686 9.854546197755736 8.985377135971694 0 1 0
571 1 4.072660919480799 31.002816550607946 6.281756828302264 1 0 0
1054 1 6.4305350361001485 27.624298186985808 4.889182403956335 -1 0 2
1276 1 3.043866616779063 26.521430815383813 4.811480301083142 0 -2 1
859 1 8.55259402392585 25.801273357504435 6.1041551006426795 0 0 1
1413 1 13.911500317809665 30.662083706815235 2.953138436623651 0 -1 1
3754 1 4.85335877185938 32.74913281329363 1.9547602542448983 1 0 0
1889 1 17.275088960719767 4.59557709318089 22.305710001473678 0 1 0
964 1 8.614530454003901 32.869119500124455 0.6800596991707512 0 0 -1
1884 1 4.7363371083177 30.32713928355323 3.568689578269482 0 -1 -1
645 1 7.6323759762546395 30.446599138431488 4.046173048683761 0 -1 0
2364 1 8.113925945584263 27.215130838566587 0.49624319257363103 1 0 0
64 1 0.001133942153851042 27.619868655475717 1.806101518642332 1 0 1
2971 1 16.042272954100397 25.482475379712206 5.6480178050469565 0 1 1
2362 1 5.454416952597841 33.516202163250014 4.721302608316308 1 0 1
2154 1 2.747915858300836 15.707203607673126 24.729582774850698 1 -2 0
3830 1 5.1271512980715706 35.83073486570535 1.8551602048393008 0 1 0
2980 1 11.684274042771188 33.23693007843954 5.370745432694941 0 0 0
2015 1 9.500711398462974 29.110313877325318 2.228037698001413 0 0 1
333 1 15.877111297767058 34.4117946676636 5.8709369409238565 0 1 0
999 1 16.79615636540403 34.320763109562904 8.373371176408867 0 1 1
3734 1 6.400135299698013 41.969263851300354 5.562338036153764 2 -1 0
2188 1 5.2091554578443775 39.75489610214049 5.711686605438996 0 -1 0
3971 1 16.311737799220083 43.09946548230168 3.594527653758144 1 -1 0
4489 1 2.064308567783722 33.28935831858803 24.24662347539432 1 -1 0
261 1 6.208904324888492 6.334981230794428 23.71997731627698 -1 1 0
2397 1 6.866715451751522 42.50369062723891 2.9867685680842393 -1 0 1
2302 1 6.298707617724099 38.18725272409411 2.95851660702489 0 -1 0
3625 1 11.215639828537329 40.14098957333103 5.91629730577133 0 0 1
1414 1 15.046050450223234 38.096014881669205 6.8535765941428615 -1 1 2
3934 1 15.400270019446763 40.63411741179887 5.755581663436569 1 -1 1
1965 1 5.28769802715203 1.3830717263332941 21.472265983101213 0 0 -1
2025 1 2.919987161302727 44.28602099975966 3.7340070828580907 1 1 1
3898 1 5.894770239320747 48.64264386307755 6.626340353677582 1 0 1
1478 1 5.379873164697098 44.691859897662184 2.557609821500884 2 0 0
1435 1 9.445899922183996 43.60082999083262 0.04212501279887067 0 1 1
2527 1 16.46931781327151 45.47157837901018 5.032120086567842 0 -1 1
4467 1 11.773058127987262 26.734606115290422 1.1370374472040532 0 0 1
2834 1 14.384265645056237 49.231003031684324 6.590853355627451 0 0 0
2718 1 14.935531613309031 32.01152075361965 20.99253793487858 1 1 0
13 1 9.776808950405393 46.01114742135458 1.3807743499172878 1 0 0
93 1 7.4741554864605515 46.40423749478934 2.8088853413191415 0 -2 0
743 1 12.249208015830478 43.87883776591029 4.716290818407995 -1 0 -1
3639 1 12.621320019127594 50.09313934941835 8.37904661318743 0 0 0
4034 1 3.0683685996888075 49.321816192914824 5.334374678834158 1 0 1
1785 1 7.51183197706761 49.24885136555196 4.40443520032437 1 -2 0
2539 1 1.4271035520507311 0.6910704795003995 5.19291108357886 1 1 1
2383 1 11.779009974971986 48.04010048476445 4.830481485886933 2 -1 1
425 1 12.040703005872505 1.5133588927490773 5.367843236177243 0 0 1
3579 1 12.304833884522633 45.963957916735836 2.707029364895149 1 0 0
2882 1 -0.005238302692449737 47.231649427081535 4.759927938674431 1 0 1
3180 1 5.673905397975204 8.717123382651453 2.750697347890415 1 -1 1
2368 1 17.294195662553545 22.474145518358768 10.085436961421774 0 0 1
3850 1 3.163845209160163 1.8774181335590772 6.881353741746669 0 1 1
4197 1 3.7329350002030024 50.565950708902704 10.494967334294616 0 -1 0
3602 1 8.045008732390903 47.14690852560497 10.985716007397844 0 0 0
1093 1 10.675156804814112 2.858683451899353 9.110204975577592 1 0 -1
2087 1 13.001625718195415 49.116108851149036 12.959501737053216 0 -1 0
2874 1 0.24839843598302092 7.197426190746888 7.3921399161909624 1 1 0
4282 1 -0.1981561210879328 43.64269744841003 14.980036687050164 1 0 0
4149 1 5.683126470780838 4.077033931907755 10.975978485111888 0 0 1
2862 1 6.590833215761585 1.2320610931639722 10.346383675624004 0 0 1
647 1 14.571845504996855 6.014067292259619 5.583742467964244 0 2 0
4150 1 15.415500057581308 31.75990667111287 8.303614148642131 2 -1 1
3166 1 4.110607874593127 5.138869435766042 9.175974092740745 1 1 -1
744 1 5.60165984106669 5.696967712398314 6.872594563443534 -1 1 1
379 1 6.9024543735446295 9.647500424696704 9.235895071635086 0 0 1
1317 1 2.329594533618881 7.011133946080219 10.163796975640684 0 1 1
1184 1 11.972042630236844 6.355022129866898 7.887497470303636 -1 0 1
1686 1 15.61143196233948 37.66633682176111 0.9129911079013133 1 0 -1
2752 1 7.622086878252778 3.498008904357234 24.59350757829257 1 1 0
3905 1 0.37059243074073056 9.53329756224429 4.051952677451436 1 0 2
2092 1 3.764570173267612 12.600155352721016 10.399336597939572 0 1 0
3072 1 3.158595757684989 10.367830194875456 9.094265717001011 2 0 1
4297 1 9.100257142103143 7.2513688579276065 8.992105929458353 1 0 0
3111 1 11.962427358733024 9.921789561830492 11.047823328204725 0 0 -1
4225 1 15.433525394414469 8.262006863537618 9.163651568395716 2 1 0
1364 1 1.3921489673479035 0.8123087852005553 18.03275627675538 1 1 1
4594 1 6.818351773951953 33.377844721832815 21.889771664094802 1 1 1
1409 1 16.30175992305104 46.46144342765865 19.201748016563684 -1 1 0
1851 1 3.6928449491560382 13.793092354795046 8.13530462689591 0 0 -1
2913 1 8.88518877866939 13.409944892788639 7.4991070581240065 0 1 1
2906 1 6.425901558854188 14.34357234678005 8.598968156289702 0 0 1
3976 1 11.256437958892553 12.782128981333699 9.636653386008364 0 2 1
1614 1 13.562096763567107 13.873837202206468 8.286242057189643 -1 0 0
3903 1 1.0052773227673668 44.78239753333196 1.4299828609104028 2 0 1
2118 1 2.6017554892000874 47.00082359955091 25.083536367737825 -1 -1 0
3382 1 6.413315530007033 17.068618455618214 5.281814908099312 1 0 -1
2155 1 16.47649800086891 18.96613010241541 9.067288502095323 0 1 -1
4245 1 13.85238607557028 16.586864720871436 9.295605994749437 1 0 1
3635 1 3.289001119561698 19.791178963398696 10.248234887481894 1 0 1
338 1 0.06190097883946011 22.29186665671769 6.125812055813849 0 1 0
3177 1 1.9775819859213577 20.59057576421532 7.567679642990763 0 -1 -1
598 1 4.207691617358268 19.008702676817315 6.669251317196677 1 0 0
1510 1 16.102715731753353 19.578123510172823 6.271136368142659 0 1 0
1511 1 3.1104357788865435 22.668194155901748 22.16631658744943 1 -1 1
360 1 2.9530409619774516 22.72386447361959 11.157699955855152 0 0 -1
3650 1 4.252467842596104 23.679983478812712 9.118336657200642 0 -1 0
800 1 6.87772058376606 24.15478863633015 9.823738187049518 0 0 1
1974 1 13.655384409368901 18.90262002980023 7.762960703507219 0 0 0
2618 1 16.184854759603496 22.43791254608653 7.2644399573570375 1 0 1
908 1 0.46259800101260085 26.901131773009517 7.692843935010217 1 0 1
4547 1 5.309992790681478 25.109572112480457 5.461529528067336 1 0 0
4410 1 3.3371002820780507 26.957092775389103 8.564389654533773 1 0 1
2518 1 8.070937797644527 30.761277241951742 6.718693196270375 1 0 0
3365 1 11.05040870357914 27.542855398877744 5.901469393034961 0 -1 0
3590 1 13.470422393331239 26.80744864135768 7.297921604636727 0 0 -1
3448 1 13.280474385993205 27.517433095513216 9.98058571565606 1 0 -1
55 1 0.9899774586677232 4.488202812683629 11.739770798416595 0 1 0
2410 1 4.865438633566261 40.8566306995058 24.708420526968975 1 0 0
1870 1 6.647567535626984 34.3223753951211 6.968210419252658 1 1 -1
1362 1 10.947275727457535 28.770147902688095 9.922261877611373 0 0 1
3443 1 15.164103524040941 29.270889991397347 6.35170619005429 1 -1 1
2014 1 9.20732837009525 32.91930525690506 6.235511408836956 0 -1 0
2336 1 2.837419136374044 32.549644778385186 8.860320216921544 1 -1 0
2423 1 3.633558662121345 39.730824872649805 7.96712117045546 0 0 1
3342 1 5.9782933308136 31.50099462598739 8.64583125799217 1 -1 0
260 1 7.9845948459600145 32.784052273400874 3.2123131091687696 0 0 1
3178 1 15.82681516284141 31.738850741057234 4.94784953223814 1 -1 0
4332 1 16.430312045854006 37.35143951420885 9.067482870004827 1 0 0
2482 1 4.057055156554035 3.648872999381123 0.011737331641775914 1 0 0
1371 1 4.596087485411792 36.70175652929656 9.548690456063948 0 -1 0
1596 1 5.805989217347168 36.96024388854413 7.13410784958611 0 -1 -1
2921 1 8.25479674697518 38.11977915270322 6.075155554391473 1 0 0
4480 1 13.40761583892267 35.17849521279636 6.32953227235017 -1 -1 0
4427 1 14.951302186347037 36.64776636607648 11.263553944384025 1 0 1
3862 1 5.399890299703311 41.03988117864341 9.740032665798307 1 0 1
60 1 8.917084335947537 40.726259456263634 6.925676198027136 0 0 -1
870 1 12.374381693299135 36.37883325641853 10.602910097417597 0 0 1
6 1 16.624498821122902 36.863752963755374 4.781165646009947 0 -1 0
643 1 7.13068006535258 23.051353294625606 0.522427322290609 0 0 -1
2697 1 16.24946507837975 10.98736582905646 17.824417567709016 -1 0 1
4167 1 5.767703683549793 45.570126329455064 7.670224323567093 2 -1 -1
4349 1 4.488685376858659 43.59961534722878 6.41127492164628 1 1 0
2827 1 9.539307943366474 43.22984987282756 5.246801665794619 0 -1 1
135 1 11.790895509597162 38.27315214386766 8.492670728071225 0 -2 0
3746 1 11.952183866423516 41.46517440899481 9.049691151284978 0 0 -1
4171 1 13.68760192617187 21.721524445974897 0.49802439016711 1 -1 2
3250 1 8.334792420519449 10.90446098401215 23.183890359965893 1 1 0
2088 1 6.808727330878301 45.07841022246153 10.185894405325028 1 -2 2
3428 1 13.041569415078309 44.11029310096694 7.41762464868333 0 -1 0
3921 1 11.974034287888045 45.880711466322865 9.266300365482618 0 0 0
3622 1 13.346073898751326 48.281606970706676 10.349229980263027 2 -1 0
3644 1 0.718587976944647 0.4977717230355062 20.73039057189827 0 0 1
935 1 4.973845501811069 0.1960329704125078 7.811230276418548 0 1 0
2007 1 7.897123052070182 45.693437119138764 5.296645603832418 0 0 0
1968 1 10.042284731090591 46.85097220823704 7.239708805583358 1 0 0
3256 1 10.552307122202352 50.375182227695774 6.206481986049944 0 -1 1
849 1 8.024475450056732 48.29123822305884 8.179076515020785 0 0 1
24 1 13.368190419534569 46.666478275220044 25.089227651527697 0 0 1
3168 1 2.160306763220808 29.547292181496893 18.79054873801294 0 -1 -1
4477 1 17.06742059488445 41.1398084870839 14.80417461603818 1 -1 0
2830 1 1.3227386723098205 1.1978632092169703 10.80123630622593 1 1 0
2573 1 6.881024100988708 2.7184589441769433 13.388599216599205 1 1 1
3370 1 7.136020318914905 50.39836624236716 12.484599752001033 2 -3 1
3530 1 12.400988842496796 1.2031304302502888 10.229006196462688 1 -1 -1
136 1 13.720633869429262 7.750683627512976 24.47711487823755 0 1 0
4232 1 3.401049467072171 2.737600732894833 12.33203150594801 1 0 1
806 1 10.70190392042686 4.356214762976778 11.65378906735605 0 0 0
4201 1 8.68347241636843 5.853864587428673 11.75970953929323 1 0 -1
926 1 8.806329379610279 0.39275382239433354 9.1699548851153 -1 1 1
4510 1 7.310254154427614 45.02584026600208 24.01407316018689 1 -1 0
4409 1 0.45592748373440284 43.09591568654896 5.04368749885211 0 0 2
611 1 14.356454238882312 32.51608168783933 24.914295426264257 1 -1 0
1923 1 14.838663085344875 40.17907548464456 24.528834700525817 -1 0 0
2763 1 14.947670587538411 34.047053526285524 1.705277646359691 0 -1 1
3570 1 9.540301313371508 38.27456112424805 0.5405496849170174 0 0 0
3711 1 5.925747008691621 9.580981326546627 13.861164037329651 1 0 0
2508 1 10.66275586182609 7.849331283412718 12.832035849876771 -1 0 0
3037 1 8.06290642717607 4.317628489425547 8.926589251155187 1 1 1
4006 1 1.3543583821863594 11.636526438864179 13.613481012435125 2 0 0
404 1 2.803106333202727 9.719756237900414 12.020347509197762 1 0 0
2524 1 5.857903349177958 15.030066964204925 13.074392514800756 1 1 0
3391 1 6.3686360205440335 13.215143398642534 11.177236863756242 1 0 0
127 1 7.101224564123239 10.77645781047775 11.630290554545109 0 1 1
2728 1 15.609591083135438 13.034415304455168 19.91633163148477 0 0 0
561 1 0.9220878727810655 15.082427996639018 8.46252948809504 0 0 0
2605 1 5.5655174555526195 18.51061390723277 9.381510086380725 0 -1 0
2963 1 10.835650677337972 16.245048648006765 10.141867503913785 0 0 0
519 1 9.292668938050847 14.120835518338255 11.24974547470051 0 0 0
1890 1 15.269392582865649 8.010472497416153 17.3890008840957 0 0 -2
2375 1 16.461987288849844 12.846434597654497 14.43901888887002 1 0 -1
1572 1 2.886380584096318 16.768023220839257 12.263348787222839 1 0 -1
361 1 6.918775088059128 21.296774304209006 9.205511270099361 -1 0 1
3002 1 9.149215084100195 19.384250495190393 9.018021231317745 1 0 1
3594 1 15.195065412842691 19.04095138871781 11.410899851639929 0 0 1
2137 1 0.5780975222095885 8.5666561155727 23.9479486424227 0 0 -1
3316 1 0.3160661026336039 21.9240128063378 10.007363262712884 1 -1 0
295 1 6.822812052250299 16.721981287600567 8.215291782614296 0 0 0
3473 1 11.555442426718507 20.6855184441988 9.251519667554538 1 1 1
2892 1 16.241479315998728 0.6239074250624388 17.303090972062428 0 0 1
3527 1 15.29415400594522 18.074463321421952 3.637790190130852 0 2 0
3688 1 17.0430445724934 16.01670044159486 8.781012999465567 0 1 0
4440 1 2.854152346008617 27.308399037369682 11.01299304799271 1 0 1
1074 1 9.045360197231762 24.773527651834446 8.500470201325166 1 0 1
4166 1 11.302404756803703 23.047040140688946 8.141113924439733 2 0 0
688 1 6.995453542101354 23.66273860328186 12.876310896779493 0 0 1
2955 1 9.069242699220707 26.884125603934695 10.644481830168166 0 1 0
4324 1 17.35249331539389 49.674496432851015 9.937400484796814 1 -1 0
893 1 1.0922306447786978 29.415077346051973 12.217686734563951 -1 -1 1
4345 1 5.680560875298889 26.64070193010244 12.27373955532635 1 -1 -1
1018 1 12.442676862716356 31.081479529639694 6.642303970521155 0 0 0
3358 1 14.22777310343805 32.07454433479148 11.21393379228191 0 0 1
798 1 14.838460958138702 29.195250093432733 10.890656438872096 0 0 0
4111 1 7.28895051842592 28.556167274569503 10.82955412584582 0 -1 0
1607 1 5.807840454453274 28.52961441084661 14.229881865656921 0 0 0
4424 1 8.090718514554027 30.645138395435247 12.404720745556686 0 0 0
1092 1 10.579074292646466 29.99281743370462 12.028324511329256 0 -1 1
944 1 14.09775207030288 28.49153677674213 14.264831241016896 0 -1 1
3834 1 12.612749802074662 33.71959576893049 9.083347140208604 0 1 -1
109 1 1.000473225388711 32.024777460562134 13.41089799284676 0 0 1
4518 1 16.650001257594337 15.51413278820066 24.379882310868826 1 -1 0
2560 1 8.724458177472595 37.881368134246046 9.350960964883518 0 0 1
1294 1 1.6503696858954293 37.05253885400363 8.749844096416956 1 0 1
1207 1 4.629646331538777 34.17645012885927 11.023932425451038 0 0 1
4014 1 9.275666726295839 34.676669203033185 8.990231422350751 1 -1 0
4399 1 7.403464760556005 33.02588687876931 10.29936381034832 1 -1 1
3195 1 12.079462839330287 32.11752569738216 13.060363015097435 1 -1 0
2655 1 15.867294437877415 34.136487165406265 12.08901825303187 -1 2 0
853 1 3.07088909224407 35.32054761001329 5.81006430541767 0 1 1
3296 1 7.665178410651663 37.46494737868845 12.456853358846722 1 0 0
906 1 10.624823106614446 36.72598150453483 6.592784551673928 0 0 -1
821 1 13.099891757517225 13.582423316428986 18.24902842834159 -1 0 0
2310 1 16.000761504859174 38.41195660180533 13.87624108620855 -1 -1 0
3918 1 2.7372972345924733 39.38694411084188 4.5964320011331194 1 -1 0
2107 1 2.6309507816557227 42.723224999640394 8.104034380820016 0 0 0
2401 1 4.453412625627596 39.663219270819624 14.432869157761246 0 0 1
2983 1 14.43192895514887 40.2677297668757 9.379767725063974 1 -1 1
3540 1 7.861077616455708 40.258848127270895 13.840862692815765 1 1 0
4483 1 12.401992132356025 40.881902017725935 13.889045339031421 1 -1 1
2262 1 0.503255571567398 31.713120808268524 18.277354174308066 0 1 -1
3774 1 17.531863919944676 25.36338989865984 10.26958859142022 0 0 0
4430 1 2.1077432122772586 45.117529218655605 9.319066801146953 1 0 2
2213 1 3.193138032788764 42.12949710425879 10.872052123581351 0 2 0
2858 1 9.936831467590666 42.100286710630314 13.788416672711081 1 1 2
1523 1 7.9041250507951215 19.564300800064295 2.4995566766839095 0 -1 1
1304 1 3.698352196375712 47.259248729595996 8.630370941853611 1 0 1
353 1 5.617112574524556 31.685101576399365 23.8513234357225 0 1 -1
2342 1 8.980439511565434 40.55170251111886 9.978538347060605 0 0 1
2590 1 8.225498333802161 43.12667083868273 10.956748822221492 0 -1 0
1292 1 11.150545149397551 43.272699468734245 10.981018728658356 0 -1 0
1526 1 15.116850552111728 46.40943786213468 7.333175896458138 0 -1 1
2102 1 16.216832040774765 46.22150725009638 14.600359321619864 -1 -1 0
3035 1 17.014087008913567 45.135598473963086 12.205119235443854 1 0 1
1210 1 9.021627625216613 50.495471209762925 24.444475114816917 0 -1 -1
3728 1 1.5820121173098447 48.41156423402167 7.508052511493033 0 0 0
4058 1 4.2873122015119085 47.745669855349206 11.426486480601408 1 -1 0
3437 1 10.340023826717342 49.28051758787066 10.884440595034961 1 -2 -1
3253 1 16.436944096313216 47.30684858708821 10.54688405457777 1 -1 0
4214 1 2.0566157233377402 49.35844606305018 13.470537703048802 1 0 1
3135 1 4.213748969481431 0.4361695025532254 13.108933946152082 2 0 0
2019 1 9.685299744943928 49.437513277063374 15.037641218001994 1 0 0
3940 1 10.202944222568188 2.866428772014306 13.703677743120458 1 0 1
4024 1 9.59678042382046 0.23055653698760326 13.014596850858483 1 2 1
1926 1 16.660631069683465 25.40963020097617 13.001847243644233 0 1 1
3407 1 12.902935371600186 0.7123255624907214 12.723230912488475 0 0 1
2021 1 16.043403049983418 3.181245160390589 17.854822071874086 0 1 0
2128 1 17.083602697540986 28.22177199615653 13.135696579492464 0 -1 0
2247 1 14.517805759215832 2.855739567995948 9.698887821238818 1 1 0
2220 1 3.8592021161048526 0.6960999963193325 0.17398129846729407 0 0 0
3413 1 1.8678803375950115 6.488010989708551 13.125216355693626 1 1 0
3425 1 4.190127491458139 7.268643137604885 14.528408371136466 2 0 0
1240 1 8.09573423901129 6.243837608661167 18.829366454145553 -1 2 0
1089 1 12.909999952585746 6.123587186806401 11.291632655226852 2 1 1
4018 1 7.845811299672123 7.511655444448816 14.127577777742419 0 1 0
3270 1 14.621903732475252 10.185058330356409 11.37338022060802 1 -1 1
4 1 13.030561466198343 36.02361471271301 19.97669833380795 -1 0 0
3787 1 10.164152905644448 14.236644423014017 13.558549279089663 1 1 0
2218 1 3.25780320217509 7.801936802454411 17.006370969692263 2 0 0
1095 1 7.32848033057178 9.484916620731461 17.77688760497432 0 0 1
4157 1 9.745567668332912 10.943177790730568 12.233626319530543 0 -1 1
2895 1 16.927349697992323 5.850700517149998 18.068673698298813 2 2 0
1438 1 -0.023182656744755004 16.089251133710977 14.17072149343246 1 1 0
1385 1 17.20033880362266 22.19518605373659 12.962857372195836 1 0 1
292 1 4.649654567248608 10.210318685761624 17.665625293119614 1 0 0
2275 1 2.7824075455020765 13.826148936460857 12.381116043472986 1 1 0
3514 1 11.725678505446236 16.661371923528776 13.490486787800942 1 0 -1
1128 1 8.016353367947085 15.337099325191438 15.201960655780706 -1 0 1
1308 1 13.982473851743492 13.467357151932143 11.319825188756619 0 1 0
750 1 15.780821978959384 15.556657651602647 14.637325405667418 1 1 0
4367 1 -0.46394806566091973 19.347185984537077 2.639825757486735 1 0 1
2348 1 6.218656750774036 17.268367549399912 11.71669947634769 1 0 1
3328 1 5.1454597585565836 15.76546610256998 16.258782800899105 1 0 0
1940 1 9.412454119992438 17.992813078247025 11.418310050461782 1 0 1
2893 1 14.270157635306907 16.208368747054525 12.38182554731238 0 0 0
144 1 1.3487312359477597 34.539842967065994 7.66037865248646 1 1 1
4235 1 2.460054163354898 18.85583699015768 14.463606937731672 2 0 0
426 1 7.957204314949333 21.25896663435518 11.817191381644479 1 1 0
4004 1 4.160324540868283 20.73189367309745 13.10763211427258 1 0 0
2854 1 10.475493780000846 20.24458379122745 12.971586635526977 2 0 0
240 1 10.692009221481062 24.554506131413223 14.723644027620997 -1 0 0
1989 1 13.310118545455875 21.016002253588134 11.237230645589566 -1 -1 0
2367 1 13.23858955056729 22.517904006015705 13.632963214659874 1 0 1
4076 1 1.4083392117947753 25.522193833331514 0.7104597686168215 1 -1 1
644 1 4.44126432133633 23.246848967675042 14.21798637047866 -1 0 0