LAMMPS data file via write_data, version 29 Oct 2020, timestep = 0

9216 atoms
1 atom types

0.35240778021925934 104.46080599562131 xlo xhi
-0.34915829235265133 50.62977557196225 ylo yhi
-0.34915829235265133 50.62977557196225 zlo zhi

Masses

1 18.015

Atoms # atomic

5 1 1.916222813236815 1.5979122738577998 1.7859016635660272 0 0 0
674 1 0.6279790744647726 28.568923929904194 22.46329003212949 0 0 0
194 1 0.4154279870720714 3.345041127517569 9.953316793896148 0 0 0
10 1 6.072405005850432 3.588849342366386 3.50384711677736 0 0 0
13 1 7.7279099075734035 2.037777937753376 1.8101505022918323 0 0 0
21 1 14.142667678560212 1.671415486674549 1.8802242958507935 0 0 0
19 1 15.890376157053044 50.507169390030306 3.5083033308221716 0 -1 0
766 1 14.709335847967136 49.14195358064886 23.82910538249421 0 0 0
289 1 0.5082801454892835 25.065143874970666 6.6856015627467436 0 0 0
762 1 12.738801857569525 47.64796684474077 22.437702694585308 0 0 0
27 1 3.2274396121726316 6.207194735258596 3.5453447536443647 0 0 0
8 1 4.740746152764647 4.983943314501815 1.6503141808610264 0 0 0
35 1 9.494759796259288 6.231000655270729 2.6876738522163777 0 0 0
16 1 10.944927584772115 4.531621689744502 1.5125496281677027 0 0 0
18 1 12.454834816860917 3.1800614368873306 3.328298519993334 0 0 0
24 1 17.305705112917295 4.8748245260261145 1.6842767689956777 0 0 0
43 1 15.929314788657674 6.245545504107431 3.260064829038344 0 0 0
29 1 1.8945832065021804 8.201996635685346 2.3905172732006834 0 0 0
34 1 6.357707238286085 9.787330313663773 2.864153918227915 0 0 0
37 1 8.08651900723448 8.086479075267302 1.3781937503142208 0 0 0
458 1 0.3633407598715621 22.117184294164204 16.268394403771826 0 0 0
45 1 14.169203501313358 7.706712064498664 1.8318446695193382 0 0 0
42 1 12.35974233806893 9.351393430846448 3.42455072519692 0 0 0
758 1 7.588669371242926 49.00653028265423 24.291239076484278 0 0 0
51 1 3.435027919704842 13.10649880631082 3.3848181299531213 0 0 0
32 1 4.7853909318686405 11.553736608565272 1.586718691445173 0 0 0
59 1 9.597075241891709 12.90383543265164 3.2143160618011724 0 0 0
40 1 10.915097354553852 10.868447956047964 1.6995429892514768 0 0 0
48 1 17.3441296312221 11.05333315144536 1.704406860684017 0 0 0
67 1 15.937455682577342 12.880626218522409 3.4608783203843876 0 0 0
53 1 1.6663650297779957 14.469351100221811 1.7839988237377415 0 0 0
140 1 16.119303217619915 34.8449989989055 0.7951441052301411 0 0 0
58 1 6.731486396043596 15.853317146662151 3.4970694702542326 0 0 0
61 1 8.159297113541575 14.52100358416427 1.8076731933065464 0 0 0
626 1 0.5266766255124671 15.914235388293168 22.482007894660764 0 0 0
69 1 14.435166707090023 14.579011208169462 1.6294980672588955 0 0 0
66 1 12.789168541454977 16.074190920754212 3.536680961465676 0 0 0
75 1 3.811318536583789 19.06823077525462 3.3856095333070764 0 0 0
56 1 5.3013826182445145 17.413858130217125 2.071845456900496 0 0 0
83 1 9.715648142630503 19.3865678332183 3.355135774975566 0 0 0
64 1 11.23603533599537 17.664600650733647 2.05753878741454 0 0 0
100 1 3.842450978071175 28.387010753480247 0.4286463293807117 0 0 0
72 1 17.438041661100637 17.372417265043726 1.8957331257657015 0 0 0
91 1 16.04597575811834 19.0697757560444 3.7514303166605956 0 0 0
721 1 0.5579601258911708 37.75874090921013 19.069566742385103 0 0 0
77 1 1.7372372706437151 20.54754919696165 2.3417430735596905 0 0 0
772 1 3.448391128094976 3.733226899752375 24.898666186295305 0 0 0
82 1 7.000485612976166 22.19551992041587 3.537294383385618 0 0 0
85 1 8.22027962076591 20.809914990483037 1.6777502046743564 0 0 0
88 1 11.315254392775959 23.939727635010602 1.8442860057555825 0 0 0
93 1 14.531833975489631 20.42189872928523 2.0279390139112943 0 0 0
90 1 12.989236988680638 22.105934093356293 3.4560214979529724 0 0 0
96 1 17.537224347035604 23.51249138100714 1.9774884598466438 0 0 0
101 1 2.3567131139100383 26.749607780274257 1.6410211421185301 0 0 0
113 1 13.190308244675471 25.44185850841885 0.31586942062748363 0 0 0
80 1 5.125193095494656 23.29133797581726 1.994171169879941 0 0 0
625 1 0.6950523581196627 12.900690381422303 18.951105494297707 0 0 0
107 1 9.782195173496959 25.51643204868141 3.745964196349452 0 0 0
109 1 8.21094129515701 26.434382941745675 1.7181348038493345 0 0 0
117 1 14.634804559702795 27.18177559857298 2.231701943370961 0 0 0
98 1 0.7690382821664976 28.102987264773674 3.515743353844436 0 0 0
115 1 16.098611040587286 25.2393676560737 3.4152464164048872 0 0 0
1585 1 18.999697439099116 12.886416687643957 0.571306096861413 0 0 0
104 1 5.531031491562885 30.27683975429953 1.9353655100199412 0 0 0
112 1 11.425207323196103 29.895461369266542 1.8152162135168362 0 0 0
649 1 0.47999947632136225 18.842908899127078 19.12185940840598 0 0 0
114 1 12.966031956919805 28.641169651541126 3.5317145143540984 0 0 0
120 1 18.108245610616862 30.068877377316998 1.8975180699933876 0 0 0
125 1 2.1428815919396 33.37885561581448 1.4997060576983852 0 0 0
193 1 0.5436251964804981 50.57409154035466 6.707008709230115 0 -1 0
133 1 8.289690143783915 33.328715710863555 1.9950702103220879 0 0 0
131 1 9.605957359337049 31.79172138368648 3.5101441536003057 0 0 0
141 1 14.376530290801902 32.950477710348814 2.2163951646324733 0 0 0
164 1 16.008847367338234 40.95337892047911 0.3158733129749649 0 0 0
139 1 16.177346149449434 31.650468549399942 3.4728074294789253 0 0 0
337 1 0.3541043430927857 37.98184738707503 6.448050794728684 0 0 0
128 1 5.2049501789836246 36.26433761454891 2.0798947441514977 0 0 0
130 1 6.700730363513376 34.67277201989406 3.748086461832472 0 0 0
92 1 16.15422316775029 21.648981889745187 0.3532661624950393 0 0 0
136 1 11.543614575664723 36.1100949811524 1.496985087819473 0 0 0
138 1 12.863620277971387 34.8185805367813 3.441368287677957 0 0 0
144 1 17.574008528118572 36.554168303241006 2.378406120513121 0 0 0
697 1 0.3777548725168011 31.86997678419609 18.65156661139661 0 0 0
149 1 2.094834060686529 39.48456553347419 2.252161832386286 0 0 0
147 1 3.816484933228925 37.905444829000686 3.7135423928525504 0 0 0
157 1 8.230038498204939 39.31301403282103 1.8047702649184083 0 0 0
155 1 9.799867147972982 37.67459005933501 3.3018770021613673 0 0 0
165 1 14.396238958441554 39.456223059014846 1.884092066502645 0 0 0
163 1 15.957149572468929 37.937293863529035 3.6976915736039424 0 0 0
530 1 0.44214010236141965 41.049910013898135 15.845941707904206 0 0 0
152 1 4.911281291532899 42.70016779424284 1.9213933351970391 0 0 0
154 1 6.390942782993721 41.02713718458762 3.0738818143910542 0 0 0
160 1 11.2857835076515 42.490131993947074 1.6780170568053845 0 0 0
162 1 13.051301591413177 41.02265423350092 3.2403825815699028 0 0 0
168 1 17.365497436404883 42.77320714642491 1.8776522355566543 0 0 0
170 1 0.374827741807664 47.30573593620021 3.3512364484919246 0 0 0
218 1 0.3788962919024145 9.485465327695241 9.483587559340034 0 0 0
173 1 2.248727176038632 45.79141759075426 1.7191664504936057 0 0 0
171 1 3.526290659364195 44.141150541619325 3.275322266361068 0 0 0
181 1 8.012923512526843 45.71765823614369 1.3723992388505224 0 0 0
179 1 9.686932946168785 44.32206103206606 3.0694423116713514 0 0 0
189 1 14.383207011377213 45.80187252524105 1.5768132397944612 0 0 0
186 1 12.717972582761814 47.43846049648045 2.945714416198191 0 0 0
266 1 1.1547066482549402 21.773678139998157 9.9623231480512 0 0 0
187 1 15.905465810913373 44.279150857087316 3.416515165806007 0 0 0
3 1 3.044025575370444 50.41673018145289 3.7327364311941893 0 -1 0
754 1 6.480623877862676 47.537448232309536 22.40476466843662 0 0 0
410 1 0.514423705479688 10.017116359801435 15.937302175012029 0 0 0
178 1 6.490346513946535 47.39563431115587 2.952803032947433 0 0 0
176 1 5.219473793621183 49.36519150302058 2.128485123348944 0 0 0
11 1 9.407768398564833 50.59196384743183 2.970484640180955 0 -1 0
184 1 10.868903571302434 48.79069681799894 1.551552631833821 0 0 0
865 1 0.5312904959315233 25.383684618664613 25.12575626473677 0 0 0
192 1 17.76339086377169 48.945257465311975 2.009172354316123 0 0 0
750 1 1.9517287500699791 48.68517879650678 23.683757217985086 0 0 0
314 1 0.6028008686064017 34.690727447225754 10.047081338266668 0 0 0
196 1 3.215873164788627 3.276325041639628 6.772805905613772 0 0 0
7 1 4.9572894535171335 1.6573069872823467 4.986477845478682 0 0 0
201 1 6.5241323224146495 50.1454475900226 6.624578808835099 0 -1 0
15 1 10.843681438839191 1.587090001459035 4.902588631338434 0 0 0
209 1 12.588473649552856 50.16522556908615 6.145886022747767 0 -1 0
23 1 17.33207003154043 1.809444192360445 4.962747157352843 0 0 0
212 1 15.900352738673625 3.3306912062583396 6.709376098040129 0 0 0
188 1 16.401758790688913 47.15491831690862 0.393126839053754 0 0 0
6 1 1.694453088470319 4.507905936159443 4.851809117008753 0 0 0
14 1 7.822190213690111 5.091442330559877 4.783461650270948 0 0 0
225 1 6.460203215200455 6.653756826899312 6.436371739646655 0 0 0
204 1 9.33170561905652 3.161304062179248 6.33156334538651 0 0 0
22 1 14.323279793272784 4.756987815593709 5.038255990209624 0 0 0
233 1 12.49120396413069 6.186885364357441 6.5725091435361644 0 0 0
767 1 17.601778353487777 45.82900821908175 23.856636890151375 0 0 0
220 1 3.291389626693681 9.735097513338856 6.465191497987989 0 0 0
31 1 4.916659278999099 8.128007700156191 4.867899129077752 0 0 0
228 1 10.207949695000972 9.426624916104531 6.192191434279365 0 0 0
39 1 11.173848747190808 7.385793582834669 4.780014774769969 0 0 0
236 1 15.530255571508858 9.408290490667085 6.520386137528182 0 0 0
47 1 17.176604767318274 8.155178018136773 4.96661376980726 0 0 0
30 1 1.917074155845758 11.396726431032175 4.959464645856528 0 0 0
249 1 6.762668302124772 12.57660477456775 5.9916055777344255 0 0 0
38 1 8.060391397198433 10.992198748863876 4.546821356817223 0 0 0
46 1 14.233155412222168 11.322554495275957 5.097533079987563 0 0 0
257 1 12.730143082855962 12.613228156144078 6.788455001408522 0 0 0
105 1 6.647594927176516 24.966958711583747 0.3727664394708654 0 0 0
244 1 3.5565155104179356 15.942985375802905 6.390831572921861 0 0 0
55 1 5.084299017359486 14.4248227542473 4.9100536733649385 0 0 0
252 1 9.396998480781276 16.181412183939834 6.7143750832867655 0 0 0
63 1 11.165565469177588 14.382933555999355 5.0921451717424775 0 0 0
71 1 17.648122812610463 14.298271302843014 5.224283568321612 0 0 0
260 1 16.20588513430457 15.97895934415673 6.694160704548718 0 0 0
54 1 2.1707723289061804 17.475114899501754 4.815934805947756 0 0 0
57 1 6.3810673225335774 12.983377280646222 0.3982714692703837 0 0 0
273 1 6.545608657904194 19.006375318984965 6.471861590263158 0 0 0
79 1 5.132282192346655 20.792129055964036 4.837089985651723 0 0 0
62 1 8.124590099693208 17.86964493873324 4.956487967659307 0 0 0
70 1 14.52138987243674 17.242202934142266 5.158575099873765 0 0 0
281 1 13.086104091946899 18.89375761769528 6.826338728782892 0 0 0
28 1 2.8402031626824233 9.97811602491672 0.4422474185248325 0 0 0
268 1 3.433270086015598 22.070991935854643 6.315810453919762 0 0 0
78 1 1.7199079161042696 23.30482851062737 4.750526915990624 0 0 0
87 1 11.710828518242016 20.2712488549144 4.913658940863803 0 0 0
276 1 10.131295996050946 21.873468013546937 6.466940183617404 0 0 0
94 1 14.521425807793193 23.63104019900519 4.9014032716697375 0 0 0
95 1 17.41350800913406 21.038725550685996 4.919601232791725 0 0 0
284 1 15.629106723312182 22.286599531641787 6.668616645292279 0 0 0
99 1 3.590368922335256 25.125455558835 3.3349998351479484 0 0 0
297 1 6.5323924896109995 25.23336517815075 6.744904531232148 0 0 0
103 1 5.06205917256519 26.55797271459446 4.934643582589778 0 0 0
86 1 8.703265443571897 23.565760065012736 5.373811632261356 0 0 0
111 1 11.297993723102527 27.2113359065028 4.971964811334508 0 0 0
305 1 12.913560879723654 25.508970548361003 6.234571246178502 0 0 0
119 1 17.516723663722527 26.935177841126173 4.90223909635702 0 0 0
292 1 3.666243101911515 28.191672972037214 6.309281026385968 0 0 0
102 1 2.145204250036315 29.927133251656556 5.017344066282962 0 0 0
106 1 6.701256867065059 28.186213039355003 3.3064161642461736 0 0 0
110 1 8.053002668857562 30.216813645548513 5.097832118019792 0 0 0
300 1 9.494596359906225 28.338523525037136 6.820173880830236 0 0 0
118 1 14.79637926137188 29.999553632466952 5.237895274871671 0 0 0
308 1 16.264897790702463 28.24387766563557 7.079543660220449 0 0 0
123 1 3.6490429841490513 31.665519288391145 3.3367607774743973 0 0 0
321 1 6.4978233269296695 31.201029806041046 6.958483854189157 0 0 0
127 1 5.3117483968397945 32.81794202478996 5.202934688394135 0 0 0
135 1 11.411458681475047 33.27455880476919 5.158861311997661 0 0 0
329 1 12.771015345747612 31.42328765815289 6.5969380300961635 0 0 0
143 1 17.8473609487663 33.079639930817834 4.92677446173531 0 0 0
126 1 1.9284170436901198 36.448998420262456 5.001546274503596 0 0 0
316 1 3.4894191974868276 34.82024069606349 6.822135125217728 0 0 0
134 1 8.162408674311209 36.45414628618307 5.2215197222531495 0 0 0
324 1 9.758965500205997 35.158677099360375 6.5309653330659305 0 0 0
142 1 14.457707950897897 36.39898229359111 4.936511446097998 0 0 0
332 1 16.09321751897492 34.67373837306098 6.290673543518928 0 0 0
151 1 5.3147788689000475 39.81500795388191 5.223886997599168 0 0 0
345 1 6.806456855362443 37.78369228698781 6.961906766465583 0 0 0
159 1 11.06144588686449 39.69440374423043 4.701783943681892 0 0 0
353 1 12.728760921229185 38.25421098897697 6.313745933958354 0 0 0
167 1 17.860200283080022 39.450468381868184 5.159357766018105 0 0 0
217 1 0.4486005315430859 6.637866449424825 6.3689046600925945 0 0 0
340 1 3.38379175830357 41.42996461622045 6.520973556122771 0 0 0
150 1 1.4252457810303327 43.10379059738443 4.580749194324289 0 0 0
158 1 8.02257186765916 42.68954239267009 4.692826877796584 0 0 0
348 1 9.686456011918175 41.37354832186304 6.4404791766296405 0 0 0
166 1 14.601035615411087 42.38179810932924 4.9010095286520405 0 0 0
356 1 16.065689181429008 41.06357062473831 6.589696834744146 0 0 0
434 1 0.44720160556399835 15.836285446810999 15.856092870314411 0 0 0
369 1 6.740467603599221 44.377098090876004 6.464575332933316 0 0 0
175 1 5.089126333337161 45.858179953279524 5.0926373916769485 0 0 0
183 1 11.341403463565662 45.73402109059734 4.430923707991058 0 0 0
377 1 13.013252083353901 44.494744121006455 6.17980342022184 0 0 0
191 1 17.77843048357813 46.00093178604807 4.74945607602613 0 0 0
364 1 2.979687292976349 47.10541974677034 6.664489621459258 0 0 0
174 1 1.8473550426632699 48.82026511778034 5.129739466888338 0 0 0
182 1 8.021678658431545 49.058335879939015 4.612441594648424 0 0 0
372 1 9.656049987881037 47.35347644339837 6.7098281936433 0 0 0
190 1 14.285003365499964 48.99446400114822 4.615544752492015 0 0 0
380 1 15.722329933701287 47.332617229300205 6.052905826195114 0 0 0
197 1 1.9037211207888955 1.8763953382921368 8.276010805067894 0 0 0
202 1 6.803796550439375 2.854138427709678 10.041369611921942 0 0 0
199 1 5.228168399224922 1.6387464957230544 11.354441562029988 0 0 0
205 1 8.352185107175274 1.2977317694714232 8.29591916704015 0 0 0
213 1 13.91480899750999 1.5710067489515855 8.072583777855892 0 0 0
210 1 12.442276316362337 3.426817471153148 9.286797572066101 0 0 0
211 1 15.773390777435408 0.41024962583696123 9.773717215977134 0 0 0
219 1 3.5957135710403563 6.278360747384485 9.804827840635948 0 0 0
200 1 5.091723741771036 4.791874366480014 8.331298956927103 0 0 0
208 1 10.720574135478492 4.663470369187735 8.117521603089337 0 0 0
227 1 9.524547825237036 6.57434337096208 9.686161266234667 0 0 0
216 1 17.560142686387472 5.038306533463034 8.290548242128402 0 0 0
235 1 15.773997943293383 6.5686044541053095 9.967309767823101 0 0 0
221 1 2.1601902544581932 7.973034713228827 8.191170062408755 0 0 0
226 1 6.634038388704285 9.245563560089906 9.348863370114751 0 0 0
229 1 8.230328867582562 7.9277796041223425 7.560524562619441 0 0 0
237 1 13.750127628579104 7.807961602093966 8.283549773917464 0 0 0
234 1 12.78918876006678 9.4099509194674 9.817033489898915 0 0 0
763 1 15.698612668852201 44.358450700184676 22.32529471380307 0 0 0
243 1 3.3360292318278297 12.646716571459294 9.44967325964285 0 0 0
224 1 5.178582687111353 11.257681569925307 7.767405671929204 0 0 0
251 1 9.69508673413765 12.439091038543257 9.336687675936204 0 0 0
232 1 11.562487518151736 10.807555572359998 8.106676336052015 0 0 0
240 1 17.351600343727355 11.005931995998555 8.12131510875493 0 0 0
259 1 15.881170970653772 12.80674628148255 9.72675284311718 0 0 0
245 1 2.0178894256954933 14.490609493460562 8.026623471345458 0 0 0
250 1 6.700800438208426 15.953343081528708 9.378751650057072 0 0 0
253 1 8.031921628620434 14.151822710519058 7.741260100330143 0 0 0
261 1 14.146990542782621 14.425608605620397 8.262085506402737 0 0 0
258 1 12.619884334945112 15.92493394015026 10.00533954871554 0 0 0
267 1 3.7376944636902705 19.359635151825188 9.809346831854775 0 0 0
248 1 5.050887118914328 17.586118546251306 8.173229172788272 0 0 0
275 1 8.896569565465716 19.037442291467887 9.428689866832336 0 0 0
256 1 10.961942967312837 17.676377550356253 8.157064929315702 0 0 0
283 1 16.17079971470352 19.134770261037694 10.327175521232116 0 0 0
264 1 17.69012693549563 17.38764225791069 8.5888363277502 0 0 0
269 1 2.025565803911945 20.401798752985794 7.827197203425675 0 0 0
274 1 6.511022757093688 22.30181753095117 9.563264974468746 0 0 0
272 1 4.799089218800871 23.71818612049271 7.941408418387559 0 0 0
277 1 7.996927899704567 20.84329437021472 7.702129561132899 0 0 0
285 1 14.610235539257221 20.494956554589805 8.215410353921328 0 0 0
282 1 12.611888670774025 21.974189206777368 9.708673572434629 0 0 0
291 1 3.3597824065404596 25.33913671063854 9.939444753145178 0 0 0
293 1 2.1952342947427868 26.891254528687234 7.977731801975888 0 0 0
280 1 11.492100476183117 23.80335980792483 7.683003641275122 0 0 0
299 1 10.157189485820677 25.284763974989705 9.890504447551002 0 0 0
309 1 14.628949955991086 26.6602817748812 7.9876823599549915 0 0 0
288 1 17.101423328344744 23.570618245873643 8.41881270111739 0 0 0
307 1 15.97478813054639 25.10302447537963 9.943277974091165 0 0 0
338 1 0.36835978191194885 41.171533850228656 9.653078193160292 0 0 0
298 1 6.615606242339275 28.52534189427983 9.712995291058089 0 0 0
296 1 4.706824099373813 29.676314691483213 8.21352518755073 0 0 0
301 1 7.960611903489558 26.679791117858475 8.212353132249543 0 0 0
304 1 11.370376517909541 29.762533664743863 8.466313390489798 0 0 0
306 1 13.236476162866607 28.41787711659226 9.450304400307491 0 0 0
310 1 14.53779930288761 30.256165261204803 11.446557206958275 0 0 0
755 1 10.035590395814813 44.395918238938044 22.224457335576886 0 0 0
315 1 3.392269232279289 31.595904890881652 9.905871064789629 0 0 0
317 1 1.7737621350863295 32.96278449696258 8.198431763232618 0 0 0
325 1 8.232782445408741 33.370972183102886 8.182637971909395 0 0 0
323 1 9.653321675856448 31.53739304603079 9.583260218156049 0 0 0
333 1 14.373490016943084 32.9150155330574 7.897544863215628 0 0 0
312 1 17.691456394404266 29.884941375601162 8.474641005863708 0 0 0
331 1 16.116883362655763 31.626132146936687 9.519713661858646 0 0 0
759 1 11.28354790531353 45.908227909704664 24.098056990039332 0 0 0
318 1 1.9404407825053203 36.45887041577834 11.298776316468816 0 0 0
322 1 6.7278805052479616 34.709196834865445 9.802875065306806 0 0 0
320 1 5.0083257514388455 35.97853236666618 8.449611660709929 0 0 0
328 1 11.306135966333185 36.62718415228578 8.249918558480275 0 0 0
330 1 12.979623631961429 34.54969934920116 9.590343693804463 0 0 0
336 1 17.3167186926925 36.39720835525931 8.265684302885337 0 0 0
148 1 3.2609709245601493 41.14733817976457 0.6415211921981125 0 0 0
341 1 2.103524701135895 39.61470917714954 7.733970991389919 0 0 0
339 1 3.5206224684072525 38.06723038083304 9.60712268761784 0 0 0
349 1 8.265034578836891 39.80366341171262 8.101941036855841 0 0 0
347 1 9.825018810495745 37.98430233122079 9.817300541382977 0 0 0
357 1 14.192115379816938 39.68694970262944 8.232491803116051 0 0 0
355 1 15.901133358102054 37.973447271217495 9.926319618164188 0 0 0
346 1 6.568133015039877 41.22931102608721 9.702965266540918 0 0 0
344 1 5.088444511490533 42.78600104249071 7.909246049558272 0 0 0
352 1 11.625589329511545 42.80137126077343 7.62117356081707 0 0 0
354 1 12.80732177833866 41.13491355399794 9.729702700283491 0 0 0
360 1 17.60600528762593 42.559940709959136 7.857043452252038 0 0 0
745 1 0.544111107122757 44.224130450928705 18.774463310944714 0 0 0
363 1 3.360834141327903 43.976418284794676 9.654860282967146 0 0 0
365 1 1.8400512670992974 45.442200956529874 8.008422095721745 0 0 0
373 1 8.110495708098414 45.50207117841187 8.144335877254724 0 0 0
371 1 10.180124456309638 44.29209575131528 9.525007624122793 0 0 0
381 1 14.348742121084696 45.51832805604546 8.064583092513463 0 0 0
379 1 16.08143133745852 44.04838522363578 9.646192176550493 0 0 0
195 1 3.8187771304857034 50.38999281229087 9.841703283072627 0 -1 0
370 1 6.323464033810433 47.088908230343456 9.452144756626307 0 0 0
368 1 4.7192472858018935 48.82406887288717 7.738611720635653 0 0 0
203 1 9.37745550791211 49.999629758473425 9.795252311658734 0 -1 0
376 1 11.420754601840795 48.741428071989645 8.053871895119151 0 0 0
378 1 12.868291454940328 47.05924610134562 9.463887665572138 0 0 0
384 1 17.152036869665004 48.69240228492635 7.908750024827814 0 0 0
388 1 3.5219159142575416 3.264348621671572 12.906056665924105 0 0 0
389 1 1.793404313876539 1.7074629244340074 14.278211361780375 0 0 0
397 1 7.650177096846434 1.4193500399145615 14.273462022645578 0 0 0
207 1 11.384617576298218 1.559360743422648 11.006297376464968 0 0 0
396 1 9.654522482913178 2.820316456712561 12.9906949947194 0 0 0
405 1 14.376422896364247 1.8461143635145234 14.313110353922688 0 0 0
215 1 17.500511328295012 1.8607398335255978 11.431362813550741 0 0 0
404 1 15.461741683586569 3.4030339127180467 12.427101064494018 0 0 0
198 1 2.0213634890024545 5.07921852100347 11.549702608363551 0 0 0
417 1 6.758212691092895 6.1700139607387845 12.977098755066429 0 0 0
392 1 4.820039484762445 4.992440856894942 14.33153401093363 0 0 0
206 1 8.324188718060558 4.750996141682187 11.477494414980827 0 0 0
214 1 14.20064631173871 4.911023037441856 10.95404031664649 0 0 0
425 1 12.41206130462238 6.363243301364279 12.489010515198423 0 0 0
408 1 17.250338908726444 4.8408991683553735 13.94538101746515 0 0 0
172 1 3.819014112596044 47.50809803288469 0.40934554489435726 0 0 0
412 1 3.38407355490512 9.385343674747377 12.432959531605547 0 0 0
413 1 1.6646954349070493 8.171053278072616 14.076307362446931 0 0 0
223 1 5.180219466127069 7.773926527493494 11.127194673564858 0 0 0
231 1 10.81926749427994 8.168741200016875 11.197331614626851 0 0 0
420 1 9.555144866687941 9.72511391337103 12.93149062386745 0 0 0
421 1 7.779800831773927 8.109962449434423 14.48932117677815 0 0 0
429 1 14.313854557988263 8.103144978184524 13.891339926443816 0 0 0
239 1 17.69720950490514 8.016211920218304 11.119567678335502 0 0 0
428 1 16.066354182250016 9.516089933813896 12.819204479295458 0 0 0
222 1 1.9764003659123721 11.161267831552232 11.173309817336806 0 0 0
441 1 6.692379549399662 12.508229796950655 12.80557495137556 0 0 0
416 1 4.926201877463095 11.054897063530273 14.096060000547249 0 0 0
230 1 8.103851392517127 11.100241458002289 11.124932728698429 0 0 0
424 1 11.580986089640453 11.339579689987932 14.1951517921689 0 0 0
238 1 14.378741429819039 11.280619154038803 11.17607587981009 0 0 0
449 1 12.690705540021714 13.006563087577996 12.740349583280866 0 0 0
432 1 17.3482238866129 11.286841767847339 14.387344380832575 0 0 0
242 1 0.5417985378707976 16.198338940763826 9.487537953862047 0 0 0
436 1 3.481743126337122 16.18400676940255 12.761777928911345 0 0 0
437 1 2.160705770060839 14.13348699683552 14.091381038262108 0 0 0
247 1 5.273303695772089 14.408059844556991 11.244854028615713 0 0 0
445 1 8.32520508758942 14.21249136137036 14.285395353397679 0 0 0
255 1 11.140496817615702 14.34036664084261 11.124956454320747 0 0 0
444 1 9.643392394804048 15.90345288325032 12.741377940333626 0 0 0
453 1 14.22157310798115 14.454239593311167 14.44765570491243 0 0 0
263 1 17.24710872786241 14.327854550480673 11.506413095491258 0 0 0
452 1 15.940495206811914 15.99733329196962 13.076670083731003 0 0 0
246 1 1.861694306114933 17.774844321025213 11.404567810429276 0 0 0
465 1 6.509891241811288 19.095261492407484 12.605395477287738 0 0 0
440 1 5.115287829960649 17.702626561442987 14.447340345853739 0 0 0
254 1 7.95141550910807 17.37947500909385 11.28012480759077 0 0 0
448 1 11.173306950631282 17.339498755071713 14.307675472089056 0 0 0
262 1 14.238156607561434 17.475614870011473 11.601647137810659 0 0 0
473 1 12.513046889113957 19.148637103988502 13.131810227778683 0 0 0
456 1 17.668449212663656 17.53754509851012 14.650936820264937 0 0 0
460 1 3.3908490813592405 22.142753348709494 12.965834159733522 0 0 0
461 1 1.5940072123281026 20.728769691907868 14.390953290907047 0 0 0
271 1 5.238896304549259 21.024477431298493 11.309521559941222 0 0 0
468 1 9.33913194175795 22.032720530874936 13.00471664344945 0 0 0
469 1 8.006097939299629 20.36825994353255 14.352631982085219 0 0 0
278 1 8.219032026833187 23.567381026022307 11.128578949404938 0 0 0
279 1 10.706077342037702 20.580152805271844 11.230907576976689 0 0 0
477 1 14.238746893389266 20.31390283898521 14.453757511872768 0 0 0
287 1 17.81302283171315 20.79072401049264 11.587190442447138 0 0 0
476 1 15.717141128180765 22.13963526344594 12.974303755517493 0 0 0
270 1 1.8490151994465527 23.625383540850052 11.492955696741621 0 0 0
489 1 6.735740944047803 25.088254660908543 13.061357602040166 0 0 0
295 1 5.167553634376761 26.70612420666768 11.295189170368138 0 0 0
464 1 5.225238699342393 23.80749726137921 14.3144572490097 0 0 0
493 1 8.418643915977677 27.13440940993687 14.106301316439064 0 0 0
286 1 13.973019146156611 23.558190586012383 11.463137438296046 0 0 0
497 1 12.76206224326904 25.806683737444605 13.178502502552305 0 0 0
480 1 17.110011615428988 23.591165115218512 14.482061224639287 0 0 0
145 1 0.7692548471969138 37.705136926893296 0.9258398593185163 0 0 0
484 1 3.3119893557528406 28.387706208978543 12.761598486660908 0 0 0
294 1 1.727203752735638 29.97046655816211 11.52481504286699 0 0 0
488 1 5.139311036806652 30.111196800989884 14.294719935016202 0 0 0
302 1 8.205648139062951 30.27596529845455 11.124377415612352 0 0 0
303 1 11.510492316333396 27.233125513982852 11.139556149999539 0 0 0
492 1 9.774661128013417 29.004775011981494 12.87266568327569 0 0 0
501 1 13.97841179884045 27.101998270470084 14.887876770887209 0 0 0
311 1 17.23009835684847 26.590067204752426 11.653901051827528 0 0 0
500 1 15.78850719234167 28.464602017033165 13.302140584945288 0 0 0
504 1 17.33805161806469 30.041297389353325 14.509630202604145 0 0 0
121 1 0.4706036134220739 31.576835124534817 0.3545424170655309 0 0 0
509 1 1.8244579909409708 33.27813714686961 14.06041135507341 0 0 0
319 1 4.827387474706804 33.4233299920039 11.079454495279418 0 0 0
513 1 6.665268509524455 32.034039001596646 12.812118386689095 0 0 0
327 1 11.063461820241233 33.258966255707286 11.281210464073006 0 0 0
517 1 8.167201485326443 33.565257978367065 14.342352348347582 0 0 0
521 1 12.78409725216761 31.716067649195647 12.982609255705611 0 0 0
525 1 14.407406394483406 33.28074016913392 14.713800785443045 0 0 0
335 1 17.447278630372466 33.45922464090902 11.26483741034565 0 0 0
508 1 3.4703362979247836 34.813337370489464 12.89095132846104 0 0 0
326 1 8.292555682300907 36.32405381881584 11.296819783066613 0 0 0
512 1 5.144328487498567 36.39961385344147 14.513336781233283 0 0 0
516 1 10.005779614215875 34.94275743315882 12.936237727107835 0 0 0
334 1 14.535132823419053 36.2696703772219 11.388505741977093 0 0 0
524 1 15.920285829980926 34.67430794451394 13.100496944709217 0 0 0
528 1 17.605246035734716 36.74567376566113 14.845745839306723 0 0 0
533 1 1.9841928472024455 39.42031793087332 14.0021912660102 0 0 0
343 1 5.147846297831338 39.45752554366898 11.258736326349691 0 0 0
537 1 6.476597893050037 37.860029309351454 12.83425072331652 0 0 0
351 1 11.532600001673323 39.35621815725502 11.223077367302428 0 0 0
541 1 8.090388670681545 39.18809477444417 14.776606847114921 0 0 0
545 1 12.887881006268602 37.962912755057616 12.805629413943134 0 0 0
549 1 14.315730275066727 39.87791895163297 13.978857429830683 0 0 0
359 1 17.20990380872198 39.501821232886165 11.237303511445353 0 0 0
342 1 1.6477811994239795 42.841212813967715 11.49884432029177 0 0 0
532 1 3.7320850368941194 40.93220383727403 12.618369933967891 0 0 0
536 1 4.892763498793785 42.73607314930734 14.282761879883275 0 0 0
350 1 8.482222912211306 42.59321851678274 10.944079326443282 0 0 0
540 1 9.588630491887185 40.9655649224303 12.719308718138679 0 0 0
544 1 11.406633897745547 42.60655192414238 14.236376011442193 0 0 0
358 1 14.815756939100778 42.6616137726231 11.314419525952827 0 0 0
548 1 16.184556392065474 41.26878111471167 13.024799946801732 0 0 0
557 1 1.521255110721031 45.981214959189735 14.335523385870983 0 0 0
367 1 5.119359056073945 45.29323691569864 10.991172528427944 0 0 0
561 1 6.567470192133171 43.839738251502375 12.568713102578023 0 0 0
375 1 11.759031637486812 45.9047893125995 11.82971676353149 0 0 0
565 1 7.97220305813602 45.68065687272688 14.343457651155045 0 0 0
569 1 13.668920626779087 44.11765796248411 13.13526672416777 0 0 0
573 1 14.789736245503438 46.04490070727067 14.601976705414016 0 0 0
383 1 17.771719327522092 45.71092184415171 11.093864302860089 0 0 0
572 1 16.111659408975648 47.37811522969464 12.63333543169592 0 0 0
366 1 1.8406993117968982 49.199872340518446 11.01785789188691 0 0 0
556 1 3.445435697202563 47.09153311959654 12.306150284011782 0 0 0
393 1 6.135367139831894 49.88122848985234 12.609860585785368 0 -1 0
560 1 4.709223129894586 48.70413018565548 14.342262921830368 0 0 0
374 1 7.7767468871966745 48.53073981776289 11.224775192126705 0 0 0
564 1 9.635418587909221 47.2944353745309 12.870992942741292 0 0 0
401 1 12.62934772621804 50.45537019724134 13.061535775582852 0 -1 0
382 1 14.336894906969889 48.97284672511971 11.048137075314209 0 0 0
576 1 17.78348474041616 48.54429243907642 14.554500731020545 0 0 0
391 1 4.841177537519288 1.5494673504736973 17.419831656611365 0 0 0