LAMMPS data file via write_data, version 29 Oct 2020, timestep = 100000

8513 atoms
1 atom types

0.31054380265766923 104.50266997318255 xlo xhi
-0.3696578964192838 50.650275176028 ylo yhi
-0.3696578964192838 50.650275176028 zlo zhi

Masses

1 18.015

Atoms # atomic

106 1 2.9103348333867354 0.7544998003454031 2.557170159605839 0 0 0
110 1 5.087532630287628 -0.29788456570712685 0.9516286515115153 0 1 0
111 1 9.279195621919486 0.9298743959400761 1.7943053365509751 0 0 0
7 1 15.767016941472955 0.8450117435932849 2.332556561551323 0 0 0
842 1 21.985354114403897 2.00676627027219 2.4957634868404694 0 0 0
845 1 28.290517848190092 0.870320633424033 2.1357803442541137 0 0 0
846 1 29.809833166228593 -0.29716742743831337 0.3708116786978437 0 1 0
848 1 34.524930785780434 1.7145961112367427 2.282656150096508 0 0 0
1 1 1.781625049142793 2.9163530049238724 0.6087696730058705 0 0 0
4 1 5.941149802415058 4.908891261159833 2.328096763648237 0 0 0
5 1 7.597986124489078 3.3565724256076392 0.6330380135762705 0 0 0
14 1 10.817591050328087 5.852421822112731 0.3351977974502952 0 0 0
15 1 12.328712607553708 4.499774592814146 2.1524069839709847 0 0 0
6 1 14.017902888986379 2.989915331835406 0.7031681631601767 0 0 0
687 1 18.690202470194826 4.854637156811537 2.418024593069199 0 0 0
753 1 20.288238602849255 3.299163423530737 0.8595285332097953 0 0 0
759 1 23.54709837613817 5.928214463425884 0.9572656737237659 0 0 0
754 1 25.087091513101676 4.775289987514125 2.647268710702929 0 0 0
755 1 26.575285274050252 3.16477023777779 0.8088322430882939 0 0 0
757 1 31.66487267640076 4.506527747828091 2.0420869667050363 0 0 0
756 1 33.35133720192964 3.0439826303474535 0.3981275752015835 0 0 0
11 1 3.0938963787713405 7.5293424275466725 2.3696277745047194 0 0 0
12 1 4.608419978354859 6.305107221218228 0.47307314566606795 0 0 0
13 1 9.36625698142238 7.55316749319024 1.5112671013354277 0 0 0
22 1 14.044460052863162 9.030065725966967 0.6547496280832077 0 0 0
17 1 15.805986889014367 7.567724039551301 2.0841184168713585 0 0 0
16 1 17.18348415900841 6.195900675240456 0.5070630478100542 0 0 0
764 1 20.78305156851154 9.12229269773281 1.1333742249496936 0 0 0
758 1 22.5267298111292 7.47067408872411 2.554186861245061 0 0 0
761 1 28.5564138143589 7.73602703163221 2.3606128261931643 0 0 0
760 1 30.074101224118657 6.143679382489604 0.8349304974233265 0 0 0
762 1 34.860697813701215 7.7462078217109696 2.3745549634568537 0 0 0
18 1 1.759968039008787 9.525748623946184 1.2138715376373967 0 0 0
19 1 6.226681485816513 11.112357287894596 1.6878890993652167 0 0 0
20 1 7.95688363130236 9.410138159888477 0.2007338654616846 0 0 0
28 1 10.787736829497844 12.194344406429941 0.5223415457435884 0 0 0
23 1 12.233543651753921 10.676069807965298 2.24873659887879 0 0 0
29 1 17.221939579780702 12.379378293572096 0.5272093288901533 0 0 0
740 1 18.66485333321478 10.933699489452477 2.163087203772807 0 0 0
765 1 25.307062732635117 11.037716733587798 2.0620590458985792 0 0 0
766 1 26.881169892170416 9.214249770265049 0.8183471353441389 0 0 0
768 1 31.540469849826817 10.877485775484878 2.598901617278628 0 0 0
767 1 32.98847225102961 9.472262977680058 0.934681309625361 0 0 0
25 1 3.3016516367592006 14.4341951827733 2.2089720491610714 0 0 0
26 1 4.653100662497227 12.880184194288171 0.4094265103238822 0 0 0
27 1 9.468654713049308 14.231368819477858 2.0383328567267367 0 0 0
30 1 15.814134330151022 14.208140939612804 2.2850934101057017 0 0 0
771 1 22.200446784522036 14.111149441449445 2.4048914156034793 0 0 0
772 1 23.53324179845314 12.536768585925318 0.7311294934177026 0 0 0
869 1 28.306120753181226 13.9012326856573 1.9797387602366694 0 0 0
773 1 30.399957671403943 12.681688291319169 0.7996621058328663 0 0 0
775 1 34.797837264254355 14.319701165033777 2.094110904817317 0 0 0
31 1 1.5315663204994432 15.798143534616472 0.6068653028420388 0 0 0
4891 1 0.8212397349870962 18.440505911547802 0.9040108815611949 1 2 1
39 1 5.16950732911984 18.74501864976787 0.8949434332759556 0 0 0
33 1 6.600761251066949 17.18322261947582 2.3213136662843126 0 0 0
34 1 8.029720268545312 15.849837559460312 0.6305587122442895 0 0 0
37 1 12.663315216114936 17.404274028704183 2.3609570145696157 0 0 0
36 1 14.31063715642069 15.907891835416095 0.4522402909460935 0 0 0
43 1 17.315927137304545 18.703544456265845 0.7186894658666276 0 0 0
745 1 19.059822622699098 17.28269320994464 2.399627532862843 0 0 0
776 1 20.788092322441813 15.650684903994737 0.7149660362989405 0 0 0
778 1 24.96013498970354 17.397461972571804 2.2041287855956515 0 0 0
779 1 26.57662641097068 15.744064509221342 0.6817125678292335 0 0 0
781 1 31.56625174927848 17.707615192034613 2.486056501610088 0 0 0
780 1 33.150935361639874 16.23270103078924 0.9157369398561244 0 0 0
46 1 1.602495559531558 21.881229950706782 1.1650581119178163 0 0 0
38 1 3.6782448809420556 20.40072180455218 2.2097640889943997 0 0 0
40 1 9.587322974648986 20.719314881353004 2.1792658224981123 0 0 0
41 1 11.108932921537063 18.99596282700742 0.8806252578177094 0 0 0
51 1 14.407382168334088 21.755478430117815 0.8510016790458699 0 0 0
44 1 15.922741681686949 20.402268027874445 2.5758790794096376 0 0 0
791 1 20.657484355929665 21.890802622771094 0.9715178727721092 0 0 0
784 1 22.379306321252848 20.238777626369217 2.804314245780916 0 0 0
785 1 23.8432456010577 18.98559305600477 0.6833482247359821 0 0 0
786 1 28.508735153902993 20.39589352680122 2.113518477999656 0 0 0
787 1 29.97644219429592 19.013662192452998 0.5891760859465768 0 0 0
789 1 34.82136909731515 20.801466343570077 2.4647109677382044 0 0 0
56 1 4.993176108018245 24.62722538942504 0.8172066776240952 0 0 0
49 1 8.09075182023396 22.143806748831572 0.5005312345763882 0 0 0
48 1 6.869976807456292 23.53052603523676 2.3615709298269874 0 0 0
52 1 12.863544566037014 23.440868159829794 2.2802326816319276 0 0 0
53 1 17.415189589748834 24.84855665464103 0.8005105507157126 0 0 0
661 1 18.987743806671382 23.719994573416702 2.5491821579363974 0 0 0
793 1 25.4545797268459 23.90340574241287 2.42047576347995 0 0 0
796 1 27.16535146457347 22.307660946445875 0.8838762902144328 0 0 0
802 1 30.059053909610725 25.072899306653046 0.7162424209137452 0 0 0
798 1 31.708812671044214 23.5476243482032 2.648788270469806 0 0 0
797 1 33.170633429049644 22.100668562416345 0.8225704347162084 0 0 0
54 1 2.222469608960866 28.08827646670816 0.46377263310159833 0 0 0
165 1 3.457117570564316 26.46281803994263 2.159113688579749 0 0 0
59 1 8.081405984386027 27.77279811230994 0.540948312588552 0 0 0
58 1 9.653923525182336 26.85410896803285 2.570408563035766 0 0 0
50 1 11.188215689312768 25.276136508378535 0.6672009701182939 0 0 0
62 1 15.97541929546371 26.57682174964641 2.239424807206055 0 0 0
799 1 22.05813821988988 26.645702652670877 2.318021846206569 0 0 0
794 1 23.774692797891834 25.298236658629413 0.9726267564806039 0 0 0
803 1 28.552245098588717 26.773884815357956 2.3861170937356264 0 0 0
805 1 33.370761974959954 27.959259411879515 0.7323612728573576 0 0 0
806 1 34.85043667389893 26.707653516106785 2.4533658224023456 0 0 0
61 1 0.6335179084023271 29.442744390740753 2.3400025681260184 0 0 0
174 1 6.5705074103448755 29.526037098678014 2.1305070295953166 0 0 0
65 1 11.298257048084512 31.236660071459678 0.6381077988402806 0 0 0
67 1 12.84032087190194 29.98135960437121 2.3559865732542633 0 0 0
60 1 14.510435565428562 28.520791850892838 1.0549284824461818 0 0 0
68 1 17.986670090467012 31.41021554729398 0.7204758456180007 0 0 0
800 1 20.83523394458266 28.581441826573055 0.9582843294450212 0 0 0
1130 1 19.47646990574273 29.97269065517206 2.5074916756025787 0 0 0
808 1 25.54549858779152 29.971202016360138 2.2894177699547016 0 0 0
804 1 27.31027358203164 28.406609747771327 0.6311681438435479 0 0 0
811 1 31.944142079489136 29.999964414635283 2.1291633015783704 0 0 0
64 1 5.399340894844238 31.618345175576504 0.7583537240005629 0 0 0
179 1 3.5158388203023705 33.00814153885018 2.1608760471218385 0 0 0
71 1 8.160218165849116 34.672675567489755 0.818106441108585 0 0 0
72 1 9.47754397383264 33.13444513069926 2.334398864789885 0 0 0
73 1 14.251953582483488 34.29413337351108 1.0396093934108592 0 0 0
75 1 16.0542177261112 32.993078695478765 2.2970321130489757 0 0 0
813 1 20.82600411953002 34.646829428767695 1.0875716575371537 0 0 0
812 1 22.3016720779729 32.7838030612692 2.488831682908612 0 0 0
809 1 23.886247857235688 31.56850866337037 0.6848161806355588 0 0 0
815 1 28.041707006252352 33.269138472098184 1.7408749192350363 0 0 0
810 1 30.45349894743568 32.16525180566364 1.0563224876745165 0 0 0
817 1 34.918777553970166 33.2892830355315 2.244633164782994 0 0 0
69 1 2.0084661155032895 34.72285579686868 0.3223438976880777 0 0 0
5675 1 1.5413618051218188 36.91287834525284 1.5945390002329871 1 -1 2
77 1 5.072997335203707 37.61065841057446 0.9029991940725133 0 0 0
78 1 6.569980483358862 36.01781281800218 2.5725325353264354 0 0 0
80 1 11.416759528192937 37.45629172935571 0.31962073949969627 0 0 0
81 1 12.737826829564693 36.16373859967755 2.265567686687548 0 0 0
707 1 18.971286840551606 36.117771805670635 2.1711569095806 0 0 0
819 1 23.817537104167528 37.79598270404854 0.607219527602153 0 0 0
820 1 25.16067840538632 36.322239533239085 2.5628485359891795 0 0 0
814 1 26.665099979700425 35.67287187491773 0.484444383464387 0 0 0
822 1 31.397037718334357 36.3336906035178 2.001116029000493 0 0 0
816 1 33.56520050741066 35.07764933509731 0.9614360217641089 0 0 0
381 1 0.6337346476026247 39.052616468822585 -0.2519838258332971 0 0 0
84 1 1.960379942588183 40.83347615993531 1.0754048260852378 0 0 0
85 1 3.6834154326009894 39.25308546620726 2.5379606846844633 0 0 0
86 1 8.100518546135095 40.66178669100751 0.6276534492102973 0 0 0
87 1 9.671609712136572 39.0220450343084 2.125964216944122 0 0 0
88 1 14.271678100588169 40.80511089137729 0.7070390444218093 0 0 0
89 1 15.833844058622498 39.284960114944596 2.5220971176010107 0 0 0
82 1 17.452003354077128 37.90072219219099 1.2017506446977895 0 0 0
824 1 20.793335011122085 40.93143522675043 0.7942487836324237 0 0 0
825 1 22.534935622278457 39.28551375286798 2.2501604036099145 0 0 0
826 1 26.925673107777236 40.95138434638978 0.9460212275676867 0 0 0
827 1 28.485581089578467 39.48008130396406 2.350760925620989 0 0 0
821 1 30.17271475196906 38.47122389377185 0.5442745990896453 0 0 0
829 1 34.84978366132299 39.71927693664898 2.321972809681029 0 0 0
91 1 4.7790922680032875 44.051664531015504 0.7443703122239462 0 0 0
92 1 6.25994375982019 42.377288406166606 1.8977856667238413 0 0 0
93 1 11.158721102574885 43.84145981189464 0.5007983013205985 0 0 0
94 1 12.92565908349621 42.37280184971554 2.064420340188579 0 0 0
95 1 17.243324569768358 44.12476262423726 0.7005940343153572 0 0 0
709 1 19.06318983085893 42.424237839220915 2.444789769770918 0 0 0
831 1 23.942662407015405 43.71092165133672 0.9801975154450726 0 0 0
832 1 25.539819288025086 42.38284659142232 2.7303185571058743 0 0 0
833 1 30.035897639704107 44.21553940294818 0.7118464981709198 0 0 0
834 1 31.45610997969103 42.57122763631913 2.2300891605219655 0 0 0
828 1 33.030889990954456 41.10402876666596 0.4270082314015129 0 0 0
98 1 2.1143968246686287 47.14540042882777 0.5419807889227383 0 0 0
99 1 3.3929877734037355 45.49380617182165 2.0993881248085495 0 0 0
100 1 7.883228948283303 47.07158175412295 0.19493469382994644 0 0 0
101 1 9.558584684328535 45.674862157400256 1.8933425935872505 0 0 0
102 1 14.258635672733066 47.15586377157221 0.39951309233005483 0 0 0
105 1 15.782118731009914 45.631917472423694 2.2406945769821753 0 0 0
836 1 20.580626095024133 47.230386254037036 0.9626806662047815 0 0 0
837 1 22.181179621014934 45.310693535068715 2.4331497166335265 0 0 0
839 1 26.92032518267283 47.298152437367165 0.8135199663312402 0 0 0
840 1 28.569650095015106 45.58937036033097 2.3275098056481762 0 0 0
841 1 32.90041301540075 47.31443453790357 0.2705640897157954 0 0 0
927 1 34.45175964831906 45.75145190015016 1.7146374597225393 0 0 0
109 1 6.359427435055114 48.75090732166343 1.7766095090948228 0 0 0
112 1 10.741505895439696 50.14709179112622 0.37423216882388377 0 0 0
103 1 12.592061998909529 48.793767949445154 1.769515191408646 0 0 0
114 1 17.641537998246985 50.301776742020934 0.8322199265848069 0 0 0
1380 1 19.243192648024802 48.924166716481004 2.383106509311405 0 0 0
844 1 23.591309690801094 50.1841510818503 0.770342199606791 0 0 0
843 1 25.216634924030608 48.573998037058175 2.191756965719757 0 0 0
847 1 31.4262060106312 48.81269910042796 1.988232291595553 0 0 0
70 1 0.40792353689262234 0.9119877152697069 5.533834461150961 0 0 0
7557 1 0.3275114536952515 2.49688398901383 3.214319449151594 1 2 1
119 1 6.393240415361969 0.48299903308083203 5.451338267477503 0 0 0
121 1 12.462458917705675 0.50279291835154 4.972260498346245 0 0 0
734 1 18.947305605123304 0.745637829470819 5.440041049368533 0 0 0
852 1 25.16152566697986 0.6620349680004949 5.615326614952427 0 0 0
932 1 31.40262615179402 0.8486137572704353 5.310420704636486 0 0 0
125 1 1.5596769686826937 5.828686995412314 3.677142846471428 0 0 0
117 1 3.082320629208003 4.596115616438876 5.5996845741561305 0 0 0
118 1 4.825137431510909 2.9757954858484466 3.8119198806808994 0 0 0
128 1 9.203071669814792 4.481002132708608 5.158087149788183 0 0 0
120 1 10.71626347837314 2.9055220288397425 3.7279631996285376 0 0 0
123 1 15.777001546641976 4.650525504406284 5.536203753905715 0 0 0
122 1 17.209870281306188 3.128055045484805 3.7881701074294023 0 0 0
850 1 21.957138738961763 4.709931243318779 5.619730264460363 0 0 0
851 1 23.533422003454504 3.0932284390277567 4.075288131601994 0 0 0
854 1 28.274196793177378 4.837629335903232 5.134759406727345 0 0 0
853 1 29.945319214776845 3.117299935342124 3.739774198042346 0 0 0
855 1 34.65249564815451 4.729617051375199 5.301668804527313 0 0 0
196 1 0.31282244948829824 7.9603605043752435 5.195458495807432 0 0 0
127 1 6.329259893915052 7.976263661499317 5.26297983496649 0 0 0
126 1 7.692342254433779 6.412692692096244 3.608740412086054 0 0 0
135 1 11.046696319899903 8.708889149388037 3.605290764476398 0 0 0
130 1 12.365111004283241 7.509016723072919 5.399226725762593 0 0 0
129 1 14.198660258868253 6.077969196019326 3.8637396673776463 0 0 0
652 1 19.033507005397208 7.913994817614103 5.426994685765945 0 0 0
856 1 20.50718034347998 6.421221884623728 3.860545583339098 0 0 0
857 1 25.256411217969752 7.745089825753112 5.399323550968427 0 0 0
858 1 26.82405585386058 6.371327173957168 3.582043547790824 0 0 0
865 1 30.153496227423844 9.165604525206932 3.964061876265042 0 0 0
859 1 33.17717850785679 6.166495686624458 3.7488509096211464 0 0 0
860 1 31.890458946117693 7.818055940157915 5.3954173157476895 0 0 0
132 1 3.1578978243396967 11.060082479954549 5.2918227712595485 0 0 0
4427 1 0.4067518803479686 10.097363878337164 3.0437310957160792 2 2 0
133 1 4.7844745806526126 9.451700183686212 3.6932457987410805 0 0 0
140 1 7.930735008442615 12.318194724366032 3.3719098034583728 0 0 0
134 1 10.080020454754033 10.751361797261557 5.018603150459641 0 0 0
136 1 15.406606733181965 10.733012626576937 5.347061800438986 0 0 0
137 1 17.054279985973846 9.478892353075388 3.792039829559789 0 0 0
863 1 23.937230954840924 9.666700919269513 3.813143214433551 0 0 0
862 1 22.420833282077343 11.02284284708795 5.588881043790189 0 0 0
864 1 28.45027577721955 10.943257081601304 5.096444132527844 0 0 0
866 1 34.56009925060555 11.207150620409331 5.366249268530341 0 0 0
138 1 1.78247707643401 12.723047743165534 3.7848849560113242 0 0 0
139 1 6.631968234829119 13.90387498998619 4.817855975098453 0 0 0
142 1 12.604242286985064 13.94052782548584 5.615346255552548 0 0 0
141 1 14.10846339634353 12.648816155503182 3.9230644300555078 0 0 0
743 1 19.036427322810248 13.780080097535777 5.597502392811615 0 0 0
867 1 20.371976032182832 12.387031198249526 3.608621376831439 0 0 0
868 1 25.401828898588175 14.324608260655523 5.142950935555757 0 0 0
870 1 26.700165753551804 12.545809783605838 3.653617219254678 0 0 0
872 1 31.76600561472838 14.28933577309243 5.229095766776319 0 0 0
871 1 33.205977325090586 12.587888495821742 3.560061106230453 0 0 0
144 1 3.4232369324385927 17.2729629632365 5.2174030430977965 0 0 0
145 1 4.952249141301449 15.753579377243614 3.735434245326119 0 0 0
146 1 9.26841704255657 17.511581523329735 5.541206759526995 0 0 0
147 1 11.038406380157287 15.711656490100708 3.9176721886494983 0 0 0
155 1 14.396929665734442 18.573225402020256 3.9841555422708685 0 0 0
149 1 16.082779663108795 17.308965863230554 5.520976123612359 0 0 0
148 1 17.526177244110308 15.62692614832236 4.04991685598228 0 0 0
873 1 22.01250925364643 16.95323124918769 5.471407176675082 0 0 0
874 1 23.731619444878202 15.812346837518735 3.693709231045057 0 0 0
875 1 28.667005248546385 17.492560414406142 5.217916372437087 0 0 0
876 1 29.87640954005218 15.725064547424221 3.602069446263968 0 0 0
2994 1 34.99631636926735 17.57903254827333 5.379693287661839 0 0 0
6789 1 0.37301253342074253 19.073149398936945 5.63999448552808 2 1 -1
150 1 2.03637928326708 18.80632468408878 3.64123968391792 0 0 0
152 1 6.414734022941734 20.338816601759095 5.29849822787754 0 0 0
154 1 7.994985341989406 19.201172019465382 3.7819058838559227 0 0 0
160 1 11.584107950617067 21.604707397356666 3.7390424123196064 0 0 0
156 1 12.960489573531731 20.226108329007182 5.653260450469022 0 0 0
676 1 19.01356108677278 20.91178613758657 5.737854059825265 0 0 0
877 1 20.331582740470886 18.9192089021566 4.048130151435139 0 0 0
878 1 25.277274947810163 20.495874035929116 5.607099139092728 0 0 0
879 1 26.85064820228714 19.097450108922214 3.9236383924594476 0 0 0
881 1 31.58952465023509 20.498763154755473 5.684509367310731 0 0 0
880 1 33.213726707289986 19.12204539853216 3.871566464430705 0 0 0
159 1 1.5851522680625483 24.64072677383907 3.5757791904326153 0 0 0
158 1 3.299892389352776 23.405897900508318 5.142321589243365 0 0 0
153 1 5.000270906193011 22.126006510183384 3.6624118774255168 0 0 0
168 1 8.574126078708991 24.90186817935992 4.199565176106115 0 0 0
161 1 10.00330510796797 23.208215121908225 5.293572863248592 0 0 0
162 1 14.396965629991154 24.967200814131303 3.7267768866478743 0 0 0
164 1 15.505537384861302 23.621678896170543 5.495411520846728 0 0 0
163 1 17.291373754436393 22.37280132723711 3.7449894832666155 0 0 0
883 1 22.28492307912765 23.60814437502333 5.82764327016087 0 0 0
885 1 23.959409960104765 22.237358155426264 4.059536871435093 0 0 0
886 1 28.6351023135761 24.047317975523825 5.821920468144748 0 0 0
887 1 29.856491158821804 22.170759900977874 4.043440467667306 0 0 0
888 1 34.666004106671075 23.60939193081496 5.673752215234933 0 0 0
9 1 0.37255006005978913 26.40245785111488 5.51241009822085 0 0 0
167 1 4.929991410373592 27.8964872807804 3.760043930695848 0 0 0
166 1 6.401507225700865 26.570814444301472 5.571760760422075 0 0 0
170 1 12.78780759545953 26.846641466890546 5.061017045824186 0 0 0
171 1 17.394672419000702 28.2739957701 3.7276133835371272 0 0 0
751 1 18.82001672056842 26.65852691355478 5.775251128212418 0 0 0
884 1 20.632005286515756 25.250776028641646 4.22368097245492 0 0 0
889 1 25.305389104101465 26.91122594696399 5.52626334625665 0 0 0
891 1 26.98904763214156 25.460840333946766 3.939532949892423 0 0 0
893 1 31.876362147918044 26.780366562254287 5.532290482044807 0 0 0
892 1 33.32935394874024 25.185683700156467 4.1552923684821 0 0 0
173 1 2.010790641570439 31.268357425588803 3.842810925282196 0 0 0
172 1 3.5330527710573083 29.531501422447793 5.135786910494162 0 0 0
176 1 9.36609341362783 29.678470078276245 5.64709064450955 0 0 0
169 1 11.170941137949045 28.550375932352573 3.797395174598959 0 0 0
177 1 14.672140211651818 31.340836049640725 4.063539509586467 0 0 0
178 1 16.141839779741773 29.583748101053136 5.906669018995007 0 0 0
890 1 23.786582805793437 28.560541958877796 3.821373072570604 0 0 0
894 1 22.439736530186348 30.155370664630013 5.410304514579856 0 0 0
898 1 28.48773700542795 30.236478661204142 5.37962645381272 0 0 0
897 1 30.41274362714009 28.580357718113717 3.9782745910022523 0 0 0
6191 1 0.42584375094981 32.252688524321094 5.75824310382437 2 0 0
181 1 5.179881444270963 34.161491097684014 4.028550806467363 0 0 0
180 1 6.366910261176651 32.543278496296885 5.785511852038443 0 0 0
175 1 7.92334033780406 31.558270791532262 3.9233637085870594 0 0 0
182 1 11.284497349179194 34.618475106341435 3.9844419845768275 0 0 0
183 1 12.64514742091316 32.765715096672416 5.42367525896665 0 0 0
184 1 17.725575615195645 34.42339947117431 3.7521684811935163 0 0 0
557 1 19.07049376677733 32.743402389584745 5.677536660498939 0 0 0
895 1 20.587563958749932 31.57468879355937 3.950657324324519 0 0 0
902 1 23.664340172619397 34.256031115820214 3.992777326424701 0 0 0
901 1 25.56922135674996 32.792368578554495 5.716436290452075 0 0 0
896 1 27.07611581755907 31.544079593732892 3.8998128063569153 0 0 0
903 1 30.285888206148723 34.397074294523236 3.6426526346305828 0 0 0
904 1 31.43848161250892 32.995718915254635 5.596103063334582 0 0 0
899 1 33.51922329455969 31.749865260033737 3.919508952545897 0 0 0
185 1 1.7938290866624984 37.7954677275703 3.8270004283156904 0 0 0
186 1 3.356086658086659 36.1654000941235 5.649053466204511 0 0 0
187 1 8.032834331750953 37.800619733598374 4.047150787123578 0 0 0
188 1 9.630675169699773 36.50410868091531 5.357649504171073 0 0 0
189 1 14.333196528759087 37.74541137601793 3.7619132964137068 0 0 0
190 1 15.97002143617572 36.01877994834812 5.117164462777141 0 0 0
907 1 22.27413860900869 36.16111966137736 5.451756743936639 0 0 0
908 1 27.212996805632947 37.7494011291697 3.8355431288659103 0 0 0
909 1 28.95239653188095 35.86708244696259 5.323441221279407 0 0 0
911 1 34.28284666899355 36.36244999459166 5.480735049258136 0 0 0
192 1 6.675792004495967 39.131235006144315 5.788937517151825 0 0 0
193 1 10.934203060894186 41.04348313060606 3.5269970171626968 0 0 0
194 1 12.602859013770372 39.602132117262826 5.140255408915807 0 0 0
195 1 17.738425275391105 40.799351586099725 3.98493883786478 0 0 0
728 1 19.055053988033062 39.398271823816735 5.780983030785486 0 0 0
906 1 20.50145731970516 37.97095612670905 3.861807547026207 0 0 0
912 1 23.78200028602781 40.98774377704701 4.109258860371072 0 0 0
913 1 25.38571864210011 39.13442242330451 5.441472782227957 0 0 0
914 1 29.98620393006315 41.07248538940797 3.8949968900030907 0 0 0
915 1 31.79986982622839 39.6230511821577 5.25913822859217 0 0 0
910 1 33.266781547976684 38.02450492048238 3.64088022416745 0 0 0
197 1 3.250374269277511 42.78043980702169 5.347649691458132 0 0 0
191 1 5.182914353552589 41.16418433477609 4.049519966320386 0 0 0
199 1 7.892885062991762 44.041030584087366 3.5180327476602113 0 0 0
200 1 9.558107366508676 42.72397814051823 5.267090575307239 0 0 0
201 1 14.476639462860758 43.73303880102789 3.7263828269657937 0 0 0
202 1 15.94247095928663 42.413751147479076 5.416428239968571 0 0 0
916 1 20.553760107269902 44.068761086943525 4.056707384174267 0 0 0
917 1 21.92398830008566 42.59700419185296 5.622219450815717 0 0 0
919 1 28.427369289298326 42.70803464604271 5.644132362798754 0 0 0
920 1 33.29652521951619 44.17704656974324 3.827953581979128 0 0 0
921 1 34.6251257551448 42.703788297906925 5.278651415159847 0 0 0
198 1 1.2902531544311961 44.455611943050016 3.405864927030087 0 0 0
205 1 4.9570803395911724 47.212216484196624 3.918164804448967 0 0 0
204 1 6.60974968165298 45.72994347912109 5.291206110660065 0 0 0
206 1 11.214385790184439 47.08795776820873 3.2559189453104507 0 0 0
207 1 12.887578974567402 45.84768412468776 5.006205173487371 0 0 0
208 1 17.656589713489918 47.355083123448686 3.574707489258895 0 0 0
736 1 18.974059172123823 45.956920435464525 5.328280539640464 0 0 0
924 1 23.482641455530313 47.21060336275419 3.9281861408569965 0 0 0
923 1 25.152245440674708 45.495120034372974 5.551917876017043 0 0 0
918 1 27.06484341596515 44.41782902541047 4.287938522215624 0 0 0
925 1 30.073052357387045 47.195580860694925 3.6832194048815046 0 0 0
926 1 31.78919510054994 45.79465922708962 5.304131379685743 0 0 0
210 1 1.7127018924745034 50.17668387086366 3.9552967185646857 0 0 0
209 1 2.8459448076855614 48.46045935562813 5.491281177903513 0 0 0
211 1 7.891991135411143 50.414946098634466 3.4375828155939723 0 0 0
212 1 9.52767688878454 48.70871554893796 5.53665621310121 0 0 0
213 1 14.160353047728446 50.35102285163656 3.4406884691165147 0 0 0
214 1 15.598835568921443 48.68783955905991 4.879205523563457 0 0 0
929 1 20.638773178080083 50.55218533662714 3.944733536781807 0 0 0
928 1 22.076838433173222 48.93458179974171 5.456020881734311 0 0 0
930 1 27.01440344098461 50.14752640614002 4.076507038145103 0 0 0
931 1 28.646177043208873 48.44336938652326 5.621812401124326 0 0 0
933 1 32.918583108577295 50.389997983473044 3.515574869387352 0 0 0
934 1 34.92437915090465 49.30089720227154 5.134351438583305 0 0 0
305 1 3.685709473330389 0.7277409279686564 8.671050076245976 0 0 0
218 1 8.222763390079741 2.6159310838963834 7.124022781514008 0 0 0
308 1 9.248858352480344 0.3370639292554731 8.624561747184462 0 0 0
221 1 15.649937477738352 1.727735193183539 8.603009332155224 0 0 0
937 1 22.08802958745814 1.7192734392552897 8.636838366950737 0 0 0
940 1 28.85104222001131 2.106901805894553 8.324391871175507 0 0 0
1024 1 34.62286895793501 0.7516277024121985 8.180399631940542 0 0 0
215 1 1.7691133023557366 3.1950600360883445 7.104098408475568 0 0 0
216 1 6.673129560054012 4.173589463888842 8.870876984392224 0 0 0
224 1 10.593057167410434 5.984376539306543 6.945481743420056 0 0 0
220 1 12.316144007028932 4.74672907771914 8.115698088845878 0 0 0
219 1 13.789860955271347 2.889425841565954 6.9005077774687456 0 0 0
936 1 20.76804236928465 3.026301111069357 7.030999737550705 0 0 0
1378 1 19.319908378408492 4.928944342640772 8.593801866769903 0 0 0
939 1 26.90764685219133 3.408726505028809 6.784252168240694 0 0 0
938 1 25.878472095674802 5.061649340016198 8.76362230356695 0 0 0
942 1 31.482268415670536 4.780099017599486 8.620885016095935 0 0 0
941 1 33.17839096506093 3.296181419642356 7.0324190439957945 0 0 0
222 1 3.462466517640282 7.600565674101207 8.634144977168098 0 0 0
223 1 4.959679836960169 6.112883804003742 7.159431025181082 0 0 0
225 1 9.396068967072662 7.8967863382238725 8.515382966569847 0 0 0
231 1 13.62504714328501 9.13139669231279 7.111643440452278 0 0 0
227 1 15.650545131902959 7.89104280591077 8.796757578534896 0 0 0
226 1 17.438126360904423 6.359514161159207 7.118647537098924 0 0 0
949 1 20.729378796445367 9.084131889582016 7.206682117932953 0 0 0
944 1 24.0740337123654 6.020671451963993 7.252380041227892 0 0 0
943 1 22.548262007351575 7.807219348085683 8.55392396789368 0 0 0
946 1 30.09313971007815 6.295633912096891 6.991959675716039 0 0 0
945 1 29.060484858985426 7.942220264165167 8.658334558414989 0 0 0
948 1 34.80298030676089 7.999736733110462 8.620659245458413 0 0 0
228 1 2.0257886983101447 9.296602561556437 7.019189433646945 0 0 0
229 1 6.503234872313295 10.570154824778726 8.177813802582813 0 0 0
230 1 8.100809149038914 9.251311056560297 6.388036744629714 0 0 0
237 1 11.435647649021698 12.133403050758767 6.934627754204345 0 0 0
232 1 12.663335450987415 10.734674390757561 8.646360442680956 0 0 0
238 1 17.229416300517272 12.331939016302844 6.949278299968107 0 0 0
788 1 19.096783556505315 11.018625821797846 8.403714697762094 0 0 0
951 1 27.056451532473105 9.317888207015372 7.126616657914483 0 0 0
950 1 25.64041821822676 11.0795899277887 8.511873201895344 0 0 0
953 1 31.47912173847543 11.13785231905532 8.33791285836382 0 0 0
952 1 33.2862093648931 9.503709279382564 7.058501745782947 0 0 0
234 1 3.202573330351502 13.974043173465525 8.278704767279246 0 0 0
235 1 5.046608637585761 12.583891056864152 6.595084235639024 0 0 0
242 1 7.902242343387905 15.480359776440503 6.568917636771163 0 0 0
236 1 9.566745029885286 13.76625066015666 8.165628316245432 0 0 0
239 1 15.757804351910371 14.134201585500456 8.556007188750517 0 0 0
958 1 20.367948579784343 15.373476462909458 7.003080472978477 0 0 0
954 1 22.193654512823834 14.190808084107667 8.379726925737232 0 0 0
955 1 24.00778710914114 12.968005560733314 6.843174190056269 0 0 0
956 1 28.267210123476257 14.122625815856537 8.144220916874913 0 0 0
957 1 29.89829218401988 12.514631484077839 6.619708739888317 0 0 0
3088 1 35.012493864556056 14.017701834458768 8.649230866990957 0 0 0
240 1 1.8833734257790833 15.819419024668289 6.854510507922384 0 0 0
345 1 0.40609540921423193 17.528521893298795 8.316599913733636 0 0 0
241 1 6.570050614410675 17.283328999024135 8.207726119822892 0 0 0
244 1 12.493894864772532 17.254897009928786 8.83481794443153 0 0 0
243 1 14.022229229821376 15.754365860628536 7.090161910552906 0 0 0
250 1 17.568215148315996 18.718781693654638 7.417175517406008 0 0 0
1040 1 19.17425783582456 17.038775183222327 8.826236817845288 0 0 0
959 1 25.177267259805966 17.331320618809695 8.262534595994723 0 0 0
961 1 26.907187659683864 15.997028419144254 6.782083186936732 0 0 0
963 1 31.47977517616531 17.259778791766248 8.693060114081218 0 0 0
962 1 33.49398044539695 15.753113645294555 7.172273010953168 0 0 0
251 1 1.8910559776324565 21.73536228865015 6.654923853771543 0 0 0
246 1 4.918810371729979 18.91741760421536 7.001234115277033 0 0 0
245 1 3.6045615967536975 20.692360539667433 8.638667602732733 0 0 0
247 1 8.767585663170111 20.369908559489694 8.257704498822104 0 0 0
248 1 10.834620117289974 19.007749198063053 6.98505687190147 0 0 0
255 1 14.485846785637023 21.828595011319436 7.043449220128613 0 0 0
249 1 16.047666026472974 20.467314803933355 9.156912749744325 0 0 0
967 1 23.757334299625544 18.79298884171236 6.712874057264621 0 0 0
965 1 22.56516119114375 20.36811795191839 8.760101672056567 0 0 0
968 1 28.488558867993344 20.813563475430502 8.92256764761752 0 0 0
969 1 29.7948999790211 18.976707222630132 7.179242964412038 0 0 0
970 1 34.88091179125097 20.28772467781969 8.902045651197591 0 0 0
104 1 1.0194964437393115 23.108344993527925 8.791766948332647 0 0 0
253 1 4.66680996611609 25.054416821701096 6.7692269217599685 0 0 0
252 1 6.380120306827293 23.636909134376257 8.392387836905826 0 0 0
254 1 7.867220471177088 22.17721297353682 6.5297556272979005 0 0 0
259 1 11.365203999102988 25.13965900906934 6.51061432564412 0 0 0