
# Define the lattice
#
variable	    lattice_constant equal 6.36339
lattice		    diamond ${lattice_constant}
lattice		    diamond 6.36339
Lattice spacing in x,y,z = 6.3633900 6.3633900 6.3633900

# Define region
# multiples of lattice spacing
#
region 		    simbox block 0 9 0 8 0 8

# Create Atoms
#
create_box          1 simbox
Created orthogonal box = (0.0000000 0.0000000 0.0000000) to (57.270510 50.907120 50.907120)
  3 by 1 by 2 MPI processor grid
create_atoms        1 box
Created 4608 atoms
  create_atoms CPU = 0.000 seconds
mass                1 18.015

# Define potential
#
pair_style          sw
pair_coeff          * * /data/emrosky-sim/Freezing_Simulations/Melting/mW_fancy/mW.sw mW
Reading sw potential file /data/emrosky-sim/Freezing_Simulations/Melting/mW_fancy/mW.sw with DATE: 2019-02-27

# Add velocity/set timestep
#
velocity            all create ${TEMP} 120598 rot yes dist gaussian
velocity            all create 272 120598 rot yes dist gaussian
timestep            5.0

# Define output
#
compute	            1 all msd
thermo              100
thermo_style        custom step temp press vol etotal ke pe c_1[4]

# Neighbor lists
#
neigh_modify        delay 0 every 1 check yes

# Set fixes
#
fix                 1 all momentum 10 linear 1 1 1 rescale
fix                 2 all nve
fix                 3 all temp/csvr ${TEMP} ${TEMP} 500.0 928347
fix                 3 all temp/csvr 272 ${TEMP} 500.0 928347
fix                 3 all temp/csvr 272 272 500.0 928347
fix                 4 all press/berendsen iso ${PRES} ${PRES} 1000.0 modulus 20000
fix                 4 all press/berendsen iso -1000 ${PRES} 1000.0 modulus 20000
fix                 4 all press/berendsen iso -1000 -1000 1000.0 modulus 20000

# Run 0.5 ns equilibration
#
dump		    1 all custom 1000 eq.${NAME}.dump id type x y z vx vy vz
dump		    1 all custom 1000 eq.ice_272K_-1000atm_mW.dump id type x y z vx vy vz
run                 100000
Neighbor list info ...
  update every 1 steps, delay 0 steps, check yes
  max neighbors/atom: 2000, page size: 100000
  master list distance cutoff = 6.3065
  ghost atom cutoff = 6.3065
  binsize = 3.15325, bins = 19 17 17
  1 neighbor lists, perpetual/occasional/extra = 1 0 0
  (1) pair sw, perpetual
      attributes: full, newton on
      pair build: full/bin/atomonly
      stencil: full/bin/3d
      bin: standard
Per MPI rank memory allocation (min/avg/max) = 4.778 | 4.778 | 4.778 Mbytes
Step Temp Press Volume TotEng KinEng PotEng c_1[4] 
       0          272   -4583.2148    148418.52   -52818.257     3735.265   -56553.522            0 
     100    215.36045   -1514.0212    142540.91   -51631.645    2957.4572   -54589.102   0.21032131 
     200    211.83624   -1005.1454    142053.04   -50755.092    2909.0607   -53664.152   0.27497591 
     300    224.38968   -968.14658     142220.9    -50188.33    3081.4519   -53269.782   0.28914301 
     400    243.76209   -1008.2194    142416.33   -49800.804    3347.4853   -53148.289   0.26306185 
     500    260.45954   -1020.7831    142562.28   -49525.991    3576.7846   -53102.775   0.27227359 
     600    260.65335   -957.99284    142679.87   -49265.969    3579.4461   -52845.415   0.29639487 
     700    270.92887   -943.90262    142717.58   -49196.142    3720.5556   -52916.698   0.24770447 
     800    267.66955   -990.69977    142761.21   -49111.788    3675.7967   -52787.585   0.27723263 
     900    266.33523   -1009.8389    142827.45   -49101.113     3657.473   -52758.586   0.27305832 
    1000    273.15023    -997.8066    142782.54   -49143.998    3751.0607   -52895.059   0.26353433 
    1100    274.33398   -983.85319    142820.43   -49084.898    3767.3166   -52852.215   0.25373902 
    1200    280.28678   -972.36323    142811.39   -49085.896     3849.064    -52934.96   0.26415466 
    1300    277.45163   -1014.3488    142827.68   -48996.318    3810.1301   -52806.448   0.28410218 
    1400    272.30335    -1006.672    142836.84   -49090.855    3739.4308   -52830.286   0.25030703 
    1500    268.43401   -1030.6239    142792.08   -49122.336    3686.2947   -52808.631   0.27202682 
    1600    273.60889   -985.90953    142787.61   -49061.381    3757.3592    -52818.74   0.28231313 
    1700    270.56358   -1014.1053    142762.45   -49077.918    3715.5392   -52793.457   0.26545837 
    1800    270.04377   -992.47025    142750.26   -49078.075    3708.4008   -52786.476   0.26088644 
    1900    274.67944   -988.63369    142767.37   -48988.908    3772.0607   -52760.969   0.27736787 
    2000    277.92188   -989.07905    142814.88   -48939.745    3816.5877   -52756.333   0.28357649 
    2100    266.67841   -1032.9978    142790.09   -49102.203    3662.1858   -52764.388   0.25237005 
    2200     267.1334   -989.05586    142798.07   -49040.979    3668.4339   -52709.413   0.27688352 
    2300     277.5959   -976.41998    142793.85   -48974.228    3812.1113   -52786.339   0.28405491 
    2400    273.38902   -986.87927    142796.95   -48998.824    3754.3398   -52753.164   0.25658655 
    2500    275.80147   -1010.7534    142805.01   -49040.732     3787.469     -52828.2   0.26621747 
    2600    269.88064   -985.01826    142796.21   -49075.007    3706.1608   -52781.168   0.28727201 
    2700    270.72321   -1004.1748    142804.65   -49053.835    3717.7314   -52771.566   0.26537152 
    2800    275.50352    -1014.334    142819.18   -48956.081    3783.3774   -52739.458   0.25221497 
    2900    275.90348   -1004.7406       142848   -48976.323      3788.87   -52765.193    0.2886929 
    3000    269.74814   -1000.4476    142806.96   -49029.192    3704.3412   -52733.534   0.27709314 
    3100    269.10275   -1019.0067    142814.14   -49005.744    3695.4783   -52701.222   0.25452497 
    3200    270.33128   -991.23987    142809.67   -49110.334    3712.3491   -52822.683    0.2723142 
    3300    272.38089   -1032.2124    142762.35    -49167.28    3740.4956   -52907.776   0.27597913 
    3400    270.44206   -995.21802    142765.37   -49105.588    3713.8704   -52819.459   0.25742686 
    3500     271.6582   -995.24176    142767.14   -49069.373    3730.5712   -52799.944   0.26278724 
    3600    274.81302   -987.94576    142785.32   -49075.551    3773.8951   -52849.446   0.27840011 
    3700    273.22553   -962.23349    142802.79   -49042.737    3752.0947   -52794.832    0.2683378 
    3800    273.38035     -1024.15    142840.53   -49036.708    3754.2207   -52790.928   0.25545543 
    3900    274.33345   -1018.0084    142828.71   -49039.285    3767.3093   -52806.594   0.27862041 
    4000    272.13542   -995.12913    142801.14   -49080.386    3737.1247    -52817.51   0.27641248 
    4100    274.44874   -965.27433    142771.14   -49099.333    3768.8925   -52868.226   0.25736451 
    4200    271.92444   -1033.1385    142755.73   -49050.291    3734.2273   -52784.518   0.26766105 
    4300     266.5668   -999.12278    142739.19   -49182.997     3660.653    -52843.65    0.2849927 
    4400    271.48726   -1012.4324    142756.37   -49073.924    3728.2237   -52802.148   0.27301772 
    4500    273.34519   -966.97486    142742.99   -49122.861    3753.7379   -52876.599   0.25365683 
    4600     263.6008   -1002.8446    142708.61   -49153.279    3619.9223   -52773.201   0.29366523 
    4700    274.52687   -999.66757    142712.68   -49058.148    3769.9654   -52828.113   0.28040992 
    4800    272.26174   -1042.3958    142728.55   -48964.505    3738.8594   -52703.364   0.26101573 
    4900    276.87897   -968.82955    142760.34   -48931.992    3802.2658   -52734.257   0.28519974 
    5000    272.49659   -1002.1692    142751.52   -49052.769    3742.0845   -52794.853    0.2918384 
    5100    274.69382   -1011.0016    142749.81   -48991.527    3772.2582   -52763.785   0.25134551 
    5200      272.896   -1001.6223    142740.25   -49055.165    3747.5694   -52802.734   0.27108856 
    5300    269.70098   -1010.0741    142706.08   -49153.524    3703.6935   -52857.217   0.30302031 
    5400    268.94706   -1008.5814     142735.3   -49126.904    3693.3403   -52820.245   0.26181247 
    5500     277.1802   -972.84296    142732.88   -49092.618    3806.4026    -52899.02   0.25741545 
    5600    270.90668   -991.64575    142696.21   -49124.821    3720.2508   -52845.072   0.29635926 
    5700    272.28427   -970.42633    142732.44   -49122.373    3739.1688   -52861.542   0.26837307 
    5800    272.63606   -979.16153    142739.24   -49060.806    3743.9998   -52804.806   0.25413108 
    5900    267.56544   -961.10427    142741.26   -49134.765     3674.367   -52809.132   0.28335446 
    6000    266.92671   -957.44669    142728.49   -49109.399    3665.5956   -52774.994    0.2770228 
    6100    267.89566   -1027.7806    142725.88   -49188.181    3678.9017   -52867.082   0.25519532 
    6200    270.13908   -982.66082    142724.95   -49171.069    3709.7097   -52880.779   0.27741331 
    6300    271.89679   -1010.0889    142765.44   -49056.366    3733.8477   -52790.213    0.2845854 
    6400     274.0048   -974.13386    142778.55   -49111.662     3762.796   -52874.458   0.26131091 
    6500    270.70439   -1007.9647    142715.27   -49120.216    3717.4729   -52837.689   0.26916858 
    6600    271.00813   -994.24156    142737.13   -49126.859     3721.644   -52848.503   0.27264729 
    6700    270.13145   -1003.7116    142724.93   -49173.021    3709.6049   -52882.626   0.27468318 
    6800    271.09054    -996.0493    142714.18   -49129.904    3722.7758   -52852.679    0.2632151 
    6900    270.56794   -975.55909    142765.33    -49061.29    3715.5991   -52776.889   0.26957665 
    7000    275.32466   -1005.6763     142768.6   -49064.841    3780.9212   -52845.763   0.27941647 
    7100     270.1704   -1009.7862    142771.37    -49071.13    3710.1398    -52781.27   0.25793406 
    7200    269.20392   -1008.5025    142732.47   -49177.381    3696.8675   -52874.248   0.26552612 
    7300    269.67538   -1040.6345    142702.16   -49229.304    3703.3419   -52932.646   0.27243489 
    7400    275.08087    -991.9352    142716.79   -49124.219    3777.5733   -52901.792   0.27934517 
    7500    273.86552   -1004.9336    142762.82   -49056.463    3760.8835   -52817.346   0.25096741 
    7600    274.43392   -995.65673    142755.51   -49031.897     3768.689   -52800.586   0.27509857 
    7700    271.54798   -993.31948    142746.67   -49117.139    3729.0576   -52846.197   0.28351865 
    7800    269.76511    -992.9559    142723.91   -49174.431    3704.5741   -52879.005   0.24288328 
    7900    267.84112   -1006.0834    142717.32   -49116.296    3678.1528   -52794.449   0.28100341 
    8000    270.83147   -1047.7808    142751.21   -49022.644    3719.2181   -52741.862   0.28857074 
    8100    272.34504   -996.00319    142786.76    -48994.63    3740.0033   -52734.633   0.26208401 
    8200    272.16965   -1020.3937    142786.44    -49012.94    3737.5947   -52750.535   0.26505074 
    8300    273.30939   -1028.3911    142786.37   -48972.918    3753.2464   -52726.164    0.2839119 
    8400    268.84996   -1033.5784    142785.99   -48949.931    3692.0067   -52641.938   0.27890576 
    8500    274.49939   -980.04118    142775.57   -49033.418    3769.5881   -52803.006   0.25783842 
    8600    271.23436   -977.71211       142755   -49040.809    3724.7508    -52765.56   0.29510547 
    8700    273.73489   -974.28005    142774.16   -49020.633    3759.0896   -52779.723   0.26317831 
    8800    273.57728   -936.56437    142786.46   -49061.845    3756.9251    -52818.77   0.25732691 
    8900    272.09362   -1005.6633    142751.84   -49119.294    3736.5507   -52855.844   0.27058553 
    9000    271.55901   -997.83109    142767.07   -49055.982     3729.209   -52785.191   0.27580519 
    9100    268.30846    -989.0923     142785.4   -49105.278    3684.5706   -52789.849   0.26766894 
    9200    274.49794   -999.57376    142805.27   -49005.953    3769.5682   -52775.521   0.26105281 
    9300    273.39524   -1027.5518    142767.81   -49142.784    3754.4252   -52897.209   0.28322062 
    9400    272.23919   -984.75673    142770.93   -49111.848    3738.5497   -52850.398   0.27075204 
    9500     270.3442   -1026.7295    142757.56   -49148.799    3712.5265   -52861.326   0.27107636 
    9600     269.9792   -983.90574    142777.09   -49140.582    3707.5141   -52848.096   0.26120017 
    9700    271.43569   -954.15417    142793.45   -49022.004    3727.5155   -52749.519   0.27829448 
    9800    284.04094    -987.8067    142805.97   -48978.298    3900.6183   -52878.916   0.26713574 
    9900    272.74778   -1016.1015    142786.82   -49012.945    3745.5339   -52758.479   0.26372178 
   10000      273.571   -991.41489    142782.63   -49063.695    3756.8389   -52820.534   0.28815775 
   10100    280.21642   -970.47942    142773.81   -49015.948    3848.0978   -52864.046   0.27097071 
   10200    274.94072   -1001.5118    142795.97   -48987.832    3775.6487   -52763.481   0.26331721 
   10300    271.31917   -991.67791     142794.8   -48984.863    3725.9154   -52710.778    0.2824371 
   10400    270.03191   -1003.7054    142790.34     -48989.6     3708.238   -52697.837   0.28442182 
   10500    271.88217   -998.85965    142765.38   -49035.345    3733.6468   -52768.992   0.25811029 
   10600    271.87504   -1006.3564    142746.15   -49055.435     3733.549   -52788.984   0.27358162 
   10700    277.03545   -953.29411    142750.36   -49079.589    3804.4148   -52884.004   0.28508448 
   10800    270.89671   -1001.5486     142692.3   -49197.354     3720.114   -52917.468   0.26644037 
   10900    263.04407   -1012.2588    142693.16   -49185.843    3612.2769    -52798.12   0.27404231 
   11000    265.25227   -1045.8203    142697.68   -49198.654    3642.6012   -52841.255   0.29584629 
   11100    268.96384   -1002.8467    142721.87   -49112.491    3693.5707   -52806.062   0.27009475 
   11200      265.385   -1016.6728    142698.52   -49213.155    3644.4239   -52857.579   0.26972866 
   11300     268.5597   -1020.8968    142701.42   -49132.355    3688.0208   -52820.376   0.29011137 
   11400    268.37139   -1006.5754    142698.93   -49111.108    3685.4347   -52796.542   0.27545349 
   11500    274.15764   -963.52325    142727.74   -49015.111     3764.895   -52780.006   0.27361651 
   11600    278.35739   -1021.4957    142766.15   -49017.342    3822.5684    -52839.91   0.27497564 
   11700    276.90054   -997.43383    142800.42   -48889.561    3802.5622   -52692.124   0.27961808 
   11800    273.41765    -999.4862    142792.77   -48958.296     3754.733   -52713.029   0.27000673 
   11900    275.06387   -1017.3859     142781.2   -49006.396    3777.3398   -52783.736   0.27313852 
   12000    274.07891   -979.97602    142784.89   -48972.917    3763.8138    -52736.73   0.27693977 
   12100    274.53558   -1041.8312       142766    -49026.87    3770.0851   -52796.955   0.27674375 
   12200     271.6775   -997.26162    142751.56   -49025.121    3730.8362   -52755.957   0.28225025 
   12300    269.95267   -957.91081    142742.67   -49082.271    3707.1498   -52789.421   0.26669327 
   12400    273.12558   -1032.8007    142721.36     -49074.4    3750.7222   -52825.122    0.2842181 
   12500    272.59893    -997.5424    142750.37   -49006.868    3743.4898   -52750.357   0.27932391 
   12600    276.26351     -996.462    142779.35   -48974.758    3793.8141   -52768.572   0.27237452 
   12700    273.68494   -1007.1864    142767.73   -49045.304    3758.4036   -52803.708   0.28399102 
   12800     277.2815   -1039.2778    142756.27    -49031.57    3807.7937   -52839.364    0.2880593 
   12900    274.08672   -1023.9925     142781.2    -49096.48    3763.9211   -52860.401   0.25831045 
   13000     279.1518   -986.79033    142764.65   -49068.385    3833.4777   -52901.863   0.27705201 
   13100    269.14481   -1025.9996    142725.35   -49130.353    3696.0558   -52826.409   0.29443489 
   13200    266.42336   -1008.3368    142716.86   -49163.699    3658.6833   -52822.382    0.2590398 
   13300    263.83383   -1009.0507    142677.67   -49236.312    3623.1223   -52859.435   0.28508356 
   13400    267.74403   -1010.3956    142682.19   -49227.636    3676.8196   -52904.456   0.28284871 
   13500    270.38796   -996.75979    142704.56   -49143.897    3713.1274   -52857.025    0.2682425 
   13600     272.9078   -1001.3208    142723.96   -49090.181    3747.7314   -52837.912   0.27470538 
   13700    272.19452   -1027.7064     142733.8     -49122.7    3737.9362   -52860.636   0.28460038 
   13800    271.62422   -1019.8064    142723.11   -49069.757    3730.1046   -52799.861   0.27863034 
   13900    270.95142   -995.36072    142741.55   -49064.169    3720.8652   -52785.034   0.26313565 
   14000    277.02751   -972.32573    142804.71    -48965.19    3804.3057   -52769.496   0.29340573 
   14100     267.6108   -1005.6939    142781.59   -49046.589      3674.99   -52721.579   0.27255055 
   14200    270.48652   -995.45685    142772.92    -49051.55     3714.481   -52766.031   0.27125182 
   14300    270.35659   -995.09349    142785.57   -49084.512    3712.6967   -52797.209   0.28204191 
   14400    267.69455   -995.42544    142744.44   -49135.825      3676.14   -52811.965   0.26896406 
   14500    270.07291    -1018.825    142729.09   -49156.959    3708.8011    -52865.76   0.27937274 
   14600    272.86979   -988.56494    142737.42   -49110.108    3747.2095   -52857.317   0.27310116 
   14700    274.21369   -959.20874    142782.71    -49065.38    3765.6647   -52831.045   0.27198843 
   14800    265.94187   -979.78678     142819.5   -49043.659    3652.0712   -52695.731   0.27459581 
   14900    269.93959   -1008.6372    142812.34   -49057.656    3706.9703   -52764.626   0.27365911 
   15000    271.05312    -1001.415    142795.93   -49120.951    3722.2619   -52843.213   0.26375424 
   15100    273.34774    -958.1284    142767.02   -49129.051     3753.773   -52882.824   0.26929704 
   15200    272.29363   -974.49643    142788.79    -49061.65    3739.2973   -52800.947   0.27520285 
   15300    269.61628   -1025.6648    142797.94   -49143.296    3702.5303   -52845.827   0.26260726 
   15400    270.84518   -995.96276    142777.98    -49136.35    3719.4064   -52855.756   0.28013021 
   15500     272.5774   -959.91937    142780.49   -49078.382    3743.1942   -52821.576   0.27259386 
   15600    275.73674   -982.48464     142815.4   -48959.216    3786.5802   -52745.796   0.26140912 
   15700     279.3888    -1023.672     142825.7   -48977.473    3836.7324   -52814.206   0.27862479 
   15800    278.81738   -1026.7066     142815.4   -48977.281    3828.8853   -52806.166   0.28181496 
   15900    273.66582   -990.11425    142792.98   -48993.979     3758.141   -52752.121   0.26251306 
   16000    273.16559   -1013.9159    142772.17   -49038.141    3751.2716   -52789.412   0.27233606 
   16100    274.10923   -1019.6064    142718.92   -49071.226    3764.2302   -52835.456   0.29392501 
   16200    277.53553   -1010.6537    142729.61   -49078.188    3811.2822    -52889.47   0.26261783 
   16300    269.71689   -1023.2447    142716.81   -49093.743     3703.912   -52797.655   0.27443589 
   16400    269.47126   -1042.9486    142720.97   -49101.215    3700.5389   -52801.754   0.30013522 
   16500     273.4193   -1006.4141    142744.83   -49028.901    3754.7557   -52783.657   0.26540757 
   16600    272.60402   -997.42066     142763.9   -48956.158    3743.5597   -52699.717    0.2742963 
   16700    274.23429    -980.8876    142750.88   -48990.863    3765.9476    -52756.81   0.28912511 
   16800    266.79114   -1058.4563    142733.65   -49045.782    3663.7338   -52709.516   0.27966608 
   16900    272.66166   -984.43932    142737.23   -49063.704    3744.3512   -52808.055   0.26845675 
   17000    275.85805   -1018.9897    142765.46   -49118.147    3788.2461   -52906.393   0.26998852 
   17100    272.68244   -971.36314    142748.71   -49068.011    3744.6367   -52812.647   0.27625736 
   17200    273.22163   -1005.7405    142755.87   -49121.754    3752.0411   -52873.795   0.25991194 
   17300    269.43737   -1037.0682     142748.8   -49222.573    3700.0734   -52922.647   0.27414717 
   17400    266.10417   -982.68974    142712.15    -49209.25       3654.3    -52863.55   0.27144122 
   17500      275.076   -998.83478    142724.84   -49115.047    3777.5064   -52892.554   0.26990438 
   17600    267.94668   -996.81083    142736.17   -49122.607    3679.6025    -52802.21   0.28295706 
   17700    268.90509   -1000.5366    142727.75   -49182.478    3692.7638   -52875.242   0.26045277 
   17800    272.78968   -980.12849    142687.21   -49126.438    3746.1093   -52872.547    0.2840413 
   17900     271.7512   -1014.0366    142734.03    -49079.06    3731.8483   -52810.909   0.27971132 
   18000    276.15683   -975.08727    142749.76   -48993.973    3792.3491   -52786.322   0.26396009 
   18100     272.8157   -1002.7329    142787.78   -48996.865    3746.4667   -52743.332   0.28893663 
   18200    271.40219   -1024.5548    142763.58   -49042.504    3727.0556   -52769.559   0.27694528 
   18300    273.73683   -956.18979    142730.48   -49043.125    3759.1161   -52802.241   0.26375922 
   18400    270.23235   -1015.4018    142720.28   -49138.007    3710.9906   -52848.998   0.28285825 
   18500    271.02998   -995.57187    142745.67   -49081.357    3721.9441   -52803.301   0.28289731 
   18600    272.85638     -992.867    142753.13   -49032.321    3747.0254   -52779.347   0.25874414 
   18700     274.8072   -960.11112    142758.74    -49049.01    3773.8152   -52822.825   0.27480777 
   18800    271.82716   -1004.4432    142755.36   -49067.641    3732.8915   -52800.532   0.29149709 
   18900    273.41966   -1004.1976    142795.54   -49034.685    3754.7607   -52789.446   0.26037933 
   19000    270.54405   -1015.9393    142797.55   -49059.834    3715.2711   -52775.105    0.2697598 
   19100    273.60871   -993.47459    142790.89   -48979.936    3757.3567   -52737.293   0.28552125 
   19200    274.56243   -974.92902    142790.22   -49005.682    3770.4537   -52776.136   0.26540169 
   19300    277.01483   -981.89115    142815.75   -48907.047    3804.1315   -52711.179   0.27371124 
   19400    275.66761   -991.86792    142808.25   -48968.325    3785.6308   -52753.956   0.28217982 
   19500    273.87233   -1008.7865    142810.67   -48960.623    3760.9769     -52721.6    0.2699914 
   19600    280.10721   -991.34603    142802.09   -48954.779     3846.598   -52801.377   0.27112554 
   19700    273.77648   -1027.2998    142800.07    -48996.83    3759.6606    -52756.49    0.2769824 
   19800     276.4269    -980.2467     142824.3   -48955.956    3796.0578   -52752.014   0.26737038 
   19900    274.71816   -988.54657    142812.94   -49029.719    3772.5924   -52802.311   0.27844071 
   20000     274.5233   -974.14138    142792.13   -49056.162    3769.9164   -52826.079   0.27070945 
   20100    272.78022   -991.70249    142753.66   -49100.712    3745.9795   -52846.691   0.26328718 
   20200    267.72211   -1026.2728    142730.71   -49077.455    3676.5184   -52753.973   0.28526762 
   20300    273.90864    -975.6857     142766.5   -49044.844    3761.4755   -52806.319   0.26416572 
   20400    271.63161   -993.24385    142791.54   -49104.297     3730.206   -52834.503   0.26782495 
   20500    269.14514   -1021.1569    142760.51    -49141.72    3696.0603    -52837.78   0.27917979 
   20600    271.58018   -1017.9173    142732.54   -49162.165    3729.4997   -52891.665   0.27279565 
   20700    271.54063   -944.01772    142711.66   -49099.607    3728.9567   -52828.564   0.26626876 
   20800    275.59127   -995.46599    142731.08   -48969.888    3784.5824    -52754.47   0.28498523 
   20900    271.18375   -1018.3885    142754.84   -49076.723    3724.0558   -52800.779   0.28297552 
   21000    272.50244   -1024.1428    142759.42   -49086.811    3742.1648   -52828.976   0.26298372 
   21100     272.4018   -1003.2582    142768.32   -48967.594    3740.7827   -52708.377   0.29501019 
   21200    278.15785   -968.81728    142790.62   -48985.797    3819.8283   -52805.625    0.2761112 
   21300    275.27018   -969.04246    142788.55   -48981.266     3780.173   -52761.439   0.25895161 
   21400    277.07834    -1007.056    142793.75   -49017.929    3805.0038   -52822.933   0.27462468 
   21500     272.1556   -975.65868    142802.31   -48927.843    3737.4018   -52665.245   0.28164479 
   21600    277.69708   -1007.9911    142820.44   -48938.573    3813.5006   -52752.074   0.26490746 
   21700    271.24283   -1051.2696    142801.59   -49064.965    3724.8671   -52789.832   0.27506654 
   21800    265.21653    -1043.053    142748.56   -49095.015    3642.1104   -52737.126   0.28770777 
   21900    271.76449   -1003.9205    142751.47    -49069.14    3732.0308   -52801.171   0.26814275 
   22000    269.32114    -994.1375    142755.95   -49099.036    3698.4773   -52797.513   0.27235406 
   22100    270.26055   -992.18705    142735.98   -49138.257    3711.3778   -52849.634   0.27178927 
   22200     270.2397   -1012.7895    142710.25   -49226.401    3711.0915   -52937.493   0.27742885 
   22300    268.01114   -985.32321    142726.27   -49119.811    3680.4877   -52800.299    0.2763032 
   22400    269.35665   -1004.7927     142767.2   -49069.785     3698.965    -52768.75   0.26753416 
   22500    278.46259   -988.45981     142754.8   -49019.302    3824.0131   -52843.315    0.2819406 
   22600    271.83157   -1020.0564    142750.23   -49051.685     3732.952   -52784.637   0.27416814 
   22700    272.62281   -995.07458    142725.99   -49109.355    3743.8179   -52853.173   0.28043841 
   22800    271.69952   -990.40693    142736.94   -49037.728    3731.1386   -52768.866   0.27282065 
   22900    272.66363   -986.60421    142746.05    -49071.45    3744.3783   -52815.829   0.28277325 
   23000    270.52848   -996.13353    142702.89   -49133.839    3715.0572   -52848.896   0.27624001 
   23100    269.81621   -1042.5612    142739.07   -49086.042    3705.2759   -52791.318   0.27365771 
   23200    275.46796   -1012.6173    142752.19   -49032.346    3782.8891   -52815.235   0.29516035 
   23300    274.28154   -999.35412    142768.92    -49029.77    3766.5965   -52796.366   0.26257073 
   23400    271.53926   -1014.5452    142765.23   -49078.296    3728.9378   -52807.233   0.27359044 
   23500    273.17328   -995.92225     142794.8   -48970.789    3751.3772   -52722.166   0.28542305 
   23600    276.11953   -1013.8034     142845.9   -48991.156    3791.8368   -52782.993   0.26751641 
   23700    276.68324   -963.16517    142833.81   -48980.468    3799.5781   -52780.046   0.27002264 
   23800    268.47857   -982.76245    142829.23   -48988.615    3686.9067   -52675.522   0.28075027 
   23900    273.21362   -1003.6301    142820.81   -49078.896    3751.9311   -52830.827   0.27666616 
   24000    273.73322   -969.07244    142813.68   -49023.396    3759.0665   -52782.463   0.26674801 
   24100    273.00381   -976.25707     142810.4   -48963.355      3749.05   -52712.405    0.2757729 
   24200    273.14744   -995.57387    142814.06    -49081.98    3751.0223   -52833.002   0.27349242 
   24300    272.08913   -1014.0257    142798.54   -49122.997    3736.4889   -52859.486   0.26957511 
   24400    270.44314   -1032.2702     142773.3    -49144.37    3713.8853   -52858.255   0.27303239 
   24500    272.18806   -1003.2899    142765.02   -49096.909    3737.8475   -52834.757   0.27076271 
   24600    265.49834   -969.28482    142731.94   -49140.802    3645.9804   -52786.782   0.27484911 
   24700    264.68072   -1038.1815    142735.46   -49149.342    3634.7523   -52784.094   0.28049622 
   24800    273.45538   -996.35257    142748.99   -49092.888    3755.2512   -52848.139   0.27327163 
   24900    270.64811   -978.15419    142722.09   -49145.209    3716.7001   -52861.909   0.27874132 
   25000    271.16991   -1005.1696    142718.91    -49128.02    3723.8657   -52851.886   0.27134443 
   25100    266.54571   -1026.4894    142717.49   -49179.266    3660.3635   -52839.629   0.27160563 
   25200    262.97126   -1016.5681    142707.97   -49304.001     3611.277   -52915.278    0.2752186 
   25300    271.25597   -997.94502    142747.05   -49155.464    3725.0476   -52880.512   0.27380175 
   25400    267.47373   -1016.5265    142755.91   -49191.474    3673.1075   -52864.581    0.2642083 
   25500     272.9105   -1005.0391    142759.75   -49080.544    3747.7685   -52828.313   0.27449328 
   25600    273.27709   -1009.6103    142793.53    -49006.68    3752.8028   -52759.483   0.28682603 
   25700    269.24769   -1012.2891    142808.27   -49096.389    3697.4686   -52793.858   0.25799313 
   25800    274.35077   -1011.0132    142831.23   -48963.526    3767.5472   -52731.073   0.27580707 
   25900    274.52567   -959.80935    142836.57   -48981.713     3769.949   -52751.662   0.28142133 
   26000    272.64098   -1019.5471    142802.97    -49028.65    3744.0673   -52772.717   0.26617762 
   26100    276.42062   -1012.2136    142812.81   -49008.637    3795.9715   -52804.609   0.27023325 
   26200    269.12316   -1016.7382    142804.37   -49113.838    3695.7586   -52809.596   0.27513594 
   26300    269.20663   -980.67922    142771.17   -49069.015    3696.9047    -52765.92   0.27605663 
   26400    271.53104   -989.61949    142745.58   -49126.561     3728.825   -52855.386   0.26230624 
   26500    276.44432   -1008.9891    142778.85   -49045.877     3796.297   -52842.174   0.28513826 
   26600    274.32713   -989.99819     142818.3   -48995.464    3767.2225   -52762.687   0.26565381 
   26700    273.75841   -1016.5812    142831.95   -48999.563    3759.4126   -52758.976   0.26428046 
   26800    273.66706   -1016.3649    142814.91   -49045.995     3758.158   -52804.153   0.27731972 
   26900    275.33253   -1004.1719    142845.24   -48989.766    3781.0293   -52770.796   0.26945356 
   27000    269.01852   -1012.1162    142836.01   -49011.958    3694.3215   -52706.279   0.27624803 
   27100    277.96542   -1005.5564    142825.67   -48964.864    3817.1856   -52782.049   0.26350996 
   27200    275.12371   -979.35273    142800.33    -49027.94    3778.1616   -52806.102    0.2760462 
   27300    278.50582   -989.38459    142852.54   -48872.038    3824.6068   -52696.644   0.27588679 
   27400    274.97492   -1018.1027    142841.63     -48988.1    3776.1183   -52764.218   0.27227165 
   27500    271.70796   -1037.1727     142779.8   -49089.196    3731.2545    -52820.45   0.27163338 
   27600    268.87301   -1022.9713    142724.53   -49136.077    3692.3233     -52828.4   0.27920095 
   27700    273.32044   -992.17913     142748.1   -49038.884    3753.3981   -52792.282   0.28196815 
   27800    274.74814   -975.25232       142789   -49021.794    3773.0041   -52794.798   0.25843813 
   27900    273.42761   -994.71615    142790.01   -49076.298    3754.8698   -52831.168   0.28529636 
   28000    267.73474   -997.24316    142765.89   -49146.567    3676.6919   -52823.259   0.27608256 
   28100    266.51759   -1034.4784    142748.25   -49122.189    3659.9773   -52782.166   0.27082345 
   28200    274.49915   -1014.2788    142765.18   -49095.071    3769.5848   -52864.656   0.27710064 
   28300    271.91038   -979.60538    142764.98   -49114.148    3734.0343   -52848.182   0.28032936 
   28400    272.53048   -990.86496    142740.38   -49046.768    3742.5499   -52789.318   0.27419358 
   28500    267.73256   -1008.3221     142746.5   -49075.372     3676.662   -52752.034   0.27652411 
   28600    271.92202   -980.11219    142737.08   -49077.503    3734.1942   -52811.697   0.29032434 
   28700    276.56632   -992.89928    142716.89   -49074.869    3797.9724   -52872.842   0.26899255 
   28800    272.62465   -1003.1592    142723.89    -49116.62    3743.8431   -52860.464   0.27235706 
   28900    270.16977   -985.34144    142718.19   -49083.849    3710.1312   -52793.981   0.28890811 
   29000    272.00762   -1024.0914    142734.21   -49036.483    3735.3696   -52771.853   0.28140582 
   29100    274.00857   -1015.6061    142750.89   -49031.292    3762.8478    -52794.14   0.27600804 
   29200    275.30879   -994.54986    142794.42   -48968.305    3780.7033   -52749.008   0.28111643 
   29300    272.65022   -1024.8762    142779.14   -48974.828    3744.1941   -52719.023   0.28562737 
   29400    274.79307   -1004.9441    142770.24   -48995.102     3773.621   -52768.723   0.28046249 
   29500    273.28415   -987.15979    142761.41   -49029.968    3752.8997   -52782.868   0.27137097 
   29600    275.27421   -1000.1606    142731.51   -48994.183    3780.2283   -52774.412   0.29493465 
   29700    275.10557   -1005.2145    142724.89   -49070.328    3777.9125    -52848.24   0.27736224 
   29800    270.42127   -1016.8163    142691.96   -49162.065     3713.585    -52875.65   0.28232842 
   29900    269.37135   -999.16512    142714.95   -49143.119    3699.1668   -52842.286   0.28458922 
   30000    269.92955   -998.40595    142700.96   -49105.876    3706.8324   -52812.708    0.2863334 
   30100    272.91017   -1026.0761    142715.84   -49081.351     3747.764   -52829.115   0.28273311 
   30200    273.38406   -995.46563    142720.82   -49092.259    3754.2717    -52846.53   0.27096067 
   30300    268.56831   -1033.4132    142735.22   -49084.718     3688.139   -52772.857   0.29788928 
   30400    274.76447   -1000.2199    142744.86   -49117.909    3773.2283   -52891.137     0.275226 
   30500      270.071    -995.3919       142695   -49212.429    3708.7748   -52921.204   0.26796455 
   30600    271.11832   -985.62647    142695.69   -49091.841    3723.1572   -52814.998   0.29270469 
   30700    271.31669   -970.26563    142711.59   -49124.212    3725.8813   -52850.094   0.28746654 
   30800    269.57413   -1001.5381    142705.69   -49054.468    3701.9516   -52756.419   0.27737492 
   30900    273.55324   -1009.1521     142743.7    -49035.66    3756.5951   -52792.255   0.27821285 
   31000    274.81363   -992.94951    142739.61   -49066.021    3773.9035   -52839.925   0.29871619 
   31100    271.92511   -994.57985    142716.23   -49074.475    3734.2366   -52808.712   0.27205618 
   31200    274.43111   -973.05002     142710.7   -49024.736    3768.6504   -52793.387   0.27472982 
   31300    274.57876   -1022.2001    142729.54   -48963.242     3770.678    -52733.92    0.3121518 
   31400    275.20637   -1028.1437    142718.86   -49077.443    3779.2967    -52856.74   0.27328071 
   31500    272.47837   -1006.7951    142705.84   -49020.774    3741.8343   -52762.608   0.28319774 
   31600    273.55023   -964.03592    142685.21    -49041.96    3756.5537   -52798.513   0.29443594 
   31700    272.64767   -995.55772    142726.13   -49017.352    3744.1591   -52761.511   0.29159407 
   31800    275.32816   -1019.6951    142733.63    -49075.95    3780.9693   -52856.919   0.26875652 
   31900    271.02195   -998.19486    142750.39   -49068.825    3721.8338   -52790.658   0.29170433 
   32000    268.20186   -974.89988    142746.92   -49020.325    3683.1066   -52703.431   0.29465013 
   32100    275.46132    -976.1155    142725.28   -49056.201    3782.7979   -52838.999   0.26209044 
   32200     266.1914   -1007.5917    142688.83   -49170.725    3655.4979   -52826.223   0.28982013 
   32300    270.24112   -1003.0283    142692.39   -49119.072     3711.111   -52830.183   0.28374928 
   32400    265.42738    -1022.457    142681.48   -49210.505    3645.0059   -52855.511   0.27970941 
   32500    268.32163    -1072.331    142702.05   -49072.769    3684.7515    -52757.52   0.28660127 
   32600     278.5508   -965.78809    142736.55   -49027.096    3825.2245    -52852.32   0.27901341 
   32700    270.29301   -1002.2094    142723.78   -49116.553    3711.8236   -52828.376   0.28531324 
   32800     272.1288   -975.47109    142744.59   -48993.539    3737.0337   -52730.573   0.28865423 
   32900    270.79651   -1015.6487    142739.18   -49057.534     3718.738   -52776.272   0.28077326 
   33000    272.67861    -962.4014    142776.12   -49046.544    3744.5841   -52791.128   0.28155851 
   33100    272.86219   -1003.8217    142782.03   -49080.048    3747.1051   -52827.153   0.28644242 
   33200    273.84516   -995.62999    142773.93   -49062.026    3760.6038    -52822.63   0.26615877 
   33300    267.84527   -984.45213    142788.35   -49062.069    3678.2098   -52740.279   0.28145797 
   33400    266.87746   -1019.7321    142749.02   -49082.163    3664.9192   -52747.082   0.30027026 
   33500    269.94668   -986.93438     142718.7   -49107.485    3707.0676   -52814.553   0.26469513 
   33600    270.43637   -985.26141    142703.67   -49114.485    3713.7923   -52828.278    0.2881573 
   33700    274.34873   -934.47307    142764.88   -49018.355    3767.5191   -52785.874   0.29290377 
   33800    273.25886   -999.45968    142819.61   -48916.345    3752.5524   -52668.897   0.26922546 
   33900    274.29365   -983.70041    142820.93   -48940.678    3766.7628    -52707.44   0.27648324 
   34000    273.32868   -998.35425    142778.63   -49077.045    3753.5112   -52830.556   0.30049032 
   34100    273.99544   -1007.5527    142741.68   -49093.168    3762.6675   -52855.835   0.27667815 
   34200     269.4609   -994.39916    142717.37   -49094.849    3700.3965   -52795.245     0.267163 
   34300    270.40217   -1016.0899    142714.73   -49130.565    3713.3227   -52843.887   0.30908221 
   34400    276.90484   -980.88086    142716.16   -49057.498    3802.6212   -52860.119   0.26836084 
   34500    276.00116   -1004.3197    142733.51    -48986.02    3790.2113   -52776.231   0.27242883 
   34600    273.23155   -1018.7076    142766.31   -48983.623    3752.1774   -52735.801   0.30438385 
   34700    266.86244   -1045.7607    142736.26   -49095.592    3664.7129   -52760.305   0.27702647 
   34800    270.52046   -1000.9597     142718.6    -49090.74    3714.9471   -52805.687   0.27500498 
   34900     272.4646   -975.41207    142696.05   -49066.932    3741.6452   -52808.577   0.28450743 
   35000    274.62636   -978.27275    142689.07   -49044.631    3771.3318   -52815.962   0.29107217 
   35100    268.14291   -1009.8283    142723.02     -49060.4    3682.2971   -52742.698   0.27542357 
   35200    275.91763   -979.03878    142743.15   -49002.727    3789.0642   -52791.791   0.28078045 
   35300    272.50589   -974.81306    142749.93    -49080.33    3742.2121   -52822.542   0.27806292 
   35400     269.6013   -994.44857    142716.95   -49079.718    3702.3246   -52782.043   0.27874848 
   35500    271.02081   -987.01038    142727.58   -49065.279    3721.8181   -52787.097    0.2900832 
   35600    273.23588   -965.25321    142756.73   -49046.254    3752.2368    -52798.49   0.26680406 
   35700    277.93661   -1001.4169    142755.44   -49058.512      3816.79   -52875.302   0.28428804 
   35800     274.2147   -1012.6529    142787.62   -48901.769    3765.6786   -52667.447    0.2851317 
   35900    273.44213   -1046.1851    142777.58   -49009.636    3755.0692   -52764.705   0.27652757 
   36000    269.39128   -1039.2074    142731.83   -49062.132    3699.4405   -52761.572   0.29402385 
   36100    274.74953   -996.46889    142697.42   -49105.013    3773.0231   -52878.036   0.28330373 
   36200    267.34012     -997.071    142661.96   -49128.645    3671.2727   -52799.918   0.27852414 
   36300    270.89721   -972.98504    142692.97   -49068.147    3720.1208   -52788.267   0.27579206 
   36400    264.36205   -1033.5351    142683.35   -49119.705    3630.3761   -52750.081   0.30227861 
   36500    269.67872   -1030.6968    142717.92   -49098.338    3703.3878   -52801.726   0.26448719 
   36600    271.12657    -990.7676    142705.98   -49096.215    3723.2706   -52819.485   0.27476155 
   36700     269.5485    -998.0815    142701.22   -49131.803    3701.5996   -52833.403   0.30298166 
   36800    267.81255   -1007.2375    142670.31   -49202.948    3677.7605   -52880.708   0.27250828 
   36900    269.71289   -1011.7923    142678.75   -49127.681     3703.857   -52831.538   0.28120998 
   37000    269.16128    -1011.847    142663.86    -49110.19    3696.2821   -52806.472   0.29403974 
   37100    268.13706   -999.61131    142655.83    -49153.52    3682.2168   -52835.737     0.286107 
   37200    266.67492    -971.7184    142658.07    -49149.24    3662.1378   -52811.378   0.27202351 
   37300     268.6057   -977.04168    142673.89   -49152.525    3688.6524   -52841.177   0.28919864 
   37400    271.14225   -987.33188     142677.7    -49157.36    3723.4859   -52880.846   0.28573581 
   37500    269.30457   -1013.1293    142678.11   -49134.881    3698.2498   -52833.131   0.27225513 
   37600     266.7306   -1036.6187    142678.16   -49182.212    3662.9025   -52845.114   0.29098241 
   37700    270.20903   -1009.8074    142657.01   -49258.674    3710.6704   -52969.344   0.28830483 
   37800    268.87694   -1000.6081    142646.53   -49275.388    3692.3773   -52967.766   0.27015924 
   37900    264.89709   -992.31746    142642.56   -49186.428    3637.7236   -52824.152   0.29096447 
   38000     266.2909   -1000.0202    142694.72   -49129.837    3656.8642   -52786.701   0.28052016 
   38100    269.74809   -1025.8196    142694.09   -49069.942    3704.3405   -52774.283    0.2900631 
   38200    277.62979   -990.18891    142711.74   -49034.583    3812.5766    -52847.16   0.27714531 
   38300    271.09905   -1010.2001    142747.03    -49087.53    3722.8926   -52810.422   0.27324652 
   38400    273.51861   -1014.4451    142756.83   -49023.364    3756.1194   -52779.483   0.29107668 
   38500     273.7877    -982.3196    142735.29   -49076.158    3759.8147   -52835.973     0.277221 
   38600    273.32272   -1061.9236    142695.83   -49042.278    3753.4294   -52795.707   0.28724188 
   38700     277.6154   -972.12423    142742.83   -49006.279     3812.379   -52818.658   0.27062487 
   38800    274.68238   -1034.9321    142718.19   -49045.714    3772.1011   -52817.815     0.295485 
   38900    274.56703   -1010.6397    142759.95   -48991.059    3770.5169   -52761.576   0.27326845 
   39000    273.88304    -1005.666    142765.42   -49045.086     3761.124    -52806.21   0.27716357 
   39100    271.76147   -1011.9119    142764.55   -49068.227    3731.9894   -52800.216     0.295841 
   39200    269.46483   -1030.6049    142721.73   -49191.024    3700.4506   -52891.475   0.27174187 
   39300    268.08543     -1012.97    142676.21   -49198.043    3681.5078   -52879.551   0.27962646 
   39400    269.06765   -1019.9698    142717.01   -49076.953    3694.9963   -52771.949   0.28822639 
   39500    271.97586   -1000.3472    142711.96   -49060.213    3734.9335   -52795.146   0.27880208 
   39600    271.49068   -1012.6046    142738.81   -49054.187    3728.2708   -52782.458   0.26312632 
   39700    272.17477   -1008.2905     142732.4    -49045.37    3737.6651   -52783.035   0.29198589 
   39800     275.8203   -1009.7982    142714.72   -49064.039    3787.7276   -52851.766   0.28191406 
   39900    271.86098   -995.75057    142698.38   -49028.761     3733.356   -52762.117   0.26653867 
   40000     266.2132   -1000.3377     142730.5   -49090.762    3655.7972    -52746.56   0.29447433 
   40100    265.65311   -996.40816    142741.66   -49104.824    3648.1058    -52752.93    0.2846445 
   40200    270.37911   -1017.3815    142723.01   -49079.888     3713.006   -52792.894   0.27754068 
   40300    274.00009   -972.20677    142729.66   -49090.095    3762.7314   -52852.827   0.27378106 
   40400    269.56084   -980.02314    142728.67   -49170.421    3701.7691    -52872.19   0.27806958 
   40500    272.60111   -983.52035    142746.59   -49040.951    3743.5198   -52784.471   0.27491337 
   40600     271.2094   -1009.8759    142771.69   -49116.276     3724.408   -52840.684   0.26689678 
   40700    265.89941   -999.27015    142743.57   -49122.368     3651.488   -52773.856   0.28904036 
   40800    269.52283   -994.18553    142747.44   -49091.079    3701.2471   -52792.326   0.26833791 
   40900    271.07964   -978.02451    142735.95    -49082.28    3722.6261   -52804.906   0.28827763 
   41000    271.66875   -1015.6584    142735.04   -49142.533    3730.7161   -52873.249   0.27553001 
   41100    270.55115   -995.17974    142720.84   -49113.239    3715.3686   -52828.607   0.28257461 
   41200    278.17825   -988.08246     142748.5   -49009.632    3820.1084   -52829.741   0.27621736 
   41300    271.71354   -1014.7666    142771.27   -49076.127    3731.3312   -52807.459   0.26868983 
   41400    277.47123   -992.12832    142774.13   -49026.733    3810.3991   -52837.132   0.28439784 
   41500    273.73168     -992.886    142759.66   -49038.455    3759.0454   -52797.501    0.2814519 
   41600    274.04251   -975.23119    142760.32   -49045.371     3763.314   -52808.685   0.27406349 
   41700    268.01276   -1014.7053    142713.18   -49140.784    3680.5099   -52821.294   0.28055553 
   41800    270.96047    -1014.325    142739.56   -49063.383    3720.9896   -52784.373   0.29945993 
   41900    270.84265    -1017.166    142737.85   -49145.696    3719.3716   -52865.068   0.26971909 
   42000     270.3736   -981.76731    142736.86   -49120.843    3712.9303   -52833.773   0.27045327 
   42100    272.66942   -993.89584    142715.66    -49187.58    3744.4579   -52932.038   0.28922682 
   42200    269.66704   -994.56408    142712.04   -49150.734    3703.2274   -52853.961   0.27353216 
   42300    270.30709   -974.23616    142762.15   -49117.753    3712.0169    -52829.77   0.27187185 
   42400    270.15175   -1012.6489    142752.01   -49136.658    3709.8838   -52846.541   0.28372962 
   42500    269.55695   -1009.6081    142757.64    -49106.52    3701.7156   -52808.235   0.27493347 
   42600    270.61088   -1002.4832    142750.65   -49139.941    3716.1887    -52856.13   0.27080734 
   42700    267.68476    -1010.836    142739.53   -49204.246    3676.0056   -52880.251   0.28413192 
   42800     267.7768   -991.36977    142768.19   -49130.108    3677.2695   -52807.377   0.27932791 
   42900    273.51811   -980.79949    142760.81   -49144.365    3756.1126   -52900.478   0.26592373 
   43000    265.14447   -1011.5935    142755.89   -49159.219    3641.1207    -52800.34   0.27542716 
   43100    269.67332   -1025.1443    142743.85   -49080.386    3703.3136     -52783.7   0.28751046 
   43200     270.2632   -1022.2722    142776.36   -49097.522    3711.4142   -52808.936   0.27238757 
   43300    270.81725   -1002.2157    142717.41   -49087.735    3719.0227   -52806.758   0.28380684 
   43400    275.12652   -1001.6743    142759.69   -49027.582    3778.2002   -52805.783   0.27204107 
   43500    270.71606   -996.40057    142766.87   -49082.177    3717.6332    -52799.81   0.28174623 
   43600    271.77209   -986.20717    142754.96    -49120.51    3732.1352   -52852.646   0.27508724 
   43700    271.05906   -974.24854    142740.78   -49165.899    3722.3435   -52888.243   0.26035211 
   43800    270.86547   -1014.0799    142723.02   -49198.003     3719.685   -52917.688   0.29118355 
   43900      268.898    -997.7749    142732.44   -49116.616    3692.6664   -52809.282   0.27502315 
   44000    267.47204    -1019.462    142696.45   -49199.743    3673.0844   -52872.827   0.27504182 
   44100      271.174   -955.93197    142707.21   -49151.054    3723.9219   -52874.976   0.28171201 
   44200     272.9091   -968.76098    142733.51   -49121.029    3747.7493   -52868.778   0.27551704 
   44300    272.06269   -1001.0873    142700.81   -49113.738    3736.1259   -52849.864   0.27491391 
   44400    270.38397   -1018.0822    142720.61   -49135.655    3713.0728   -52848.727   0.27339677 
   44500    271.67979   -1018.4176    142728.72   -49134.251    3730.8677   -52865.118   0.28795776 
   44600    266.18978   -1011.6783    142726.94   -49141.635    3655.4756    -52797.11   0.26616835 
   44700     268.8345   -990.06104    142736.24   -49121.899    3691.7945   -52813.693    0.2725451 
   44800    272.97309   -998.59874    142705.98   -49081.861     3748.628   -52830.489   0.29509409 
   44900    268.73396   -1005.8694     142734.2   -49077.329    3690.4138   -52767.743   0.27186068 
   45000     268.9608   -1015.8649    142702.52   -49107.136    3693.5289   -52800.665   0.28720571 
   45100    273.64196   -963.84711    142718.88    -49004.34    3757.8134   -52762.154   0.28579601 
   45200    275.36868   -995.84233    142744.05   -49034.966    3781.5257   -52816.491      0.27932 
   45300    274.95779   -999.46223    142772.01   -49062.098    3775.8831   -52837.981   0.26786713 
   45400     269.7866   -976.71452    142733.75   -49118.255    3704.8693   -52823.124    0.2798504 
   45500    272.01823   -1017.8901    142730.34   -49062.297    3735.5153   -52797.812   0.28883269 
   45600      272.616   -994.56413    142725.23   -49053.943    3743.7242   -52797.667   0.27354251 
   45700    270.81977   -1005.8529    142725.62   -49007.992    3719.0574   -52727.049   0.28613901 
   45800     268.9078   -994.40023    142737.53   -49080.879    3692.8011    -52773.68   0.28311184 
   45900    276.28852   -996.12006    142727.96   -48955.711    3794.1574   -52749.868   0.27991746 
   46000    275.89228   -1003.9231    142725.23   -49011.261    3788.7161   -52799.977   0.28067649 
   46100    274.39187   -1001.9814    142749.24   -48923.572    3768.1116   -52691.684   0.28696198 
   46200    276.14898   -1015.9898    142770.94   -48979.523    3792.2413   -52771.764   0.28406589 
   46300    273.67303   -981.96737     142770.8   -48971.663      3758.24   -52729.903   0.27477795 
   46400    275.77855   -985.47613    142756.55   -49012.598    3787.1542   -52799.753   0.27620712 
   46500    275.23859    -1002.706    142766.48    -48978.43    3779.7392   -52758.169   0.28828941 
   46600    274.78298    -987.1212    142763.09   -49034.849    3773.4825   -52808.331    0.2794334 
   46700    276.66119   -1000.1269    142799.84    -48975.21    3799.2752   -52774.485   0.27080156 
   46800    273.99228   -1017.5699    142794.99   -48986.726    3762.6241    -52749.35    0.2881639 
   46900    274.20239   -969.80473    142791.79   -49044.935    3765.5096   -52810.444   0.27472991 
   47000    274.64263   -1013.5075    142762.93   -49073.674    3771.5552   -52845.229   0.26479457 
   47100    270.36122    -1025.909       142726   -49080.946    3712.7604   -52793.707   0.29356884 
   47200    275.20408   -947.80188    142733.56   -49054.103    3779.2653   -52833.368    0.2847659 
   47300    267.87864   -1015.8519    142733.54     -49172.1    3678.6681   -52850.768   0.27181325 
   47400    269.71967   -955.16402    142728.17   -49104.657    3703.9502   -52808.607   0.27323376 
   47500    270.86481   -972.52323    142729.46   -49110.359    3719.6759   -52830.035    0.2852226 
   47600    273.56137   -955.50912    142742.99   -49107.658    3756.7067   -52864.365   0.26949853 
   47700    272.07178   -972.86023    142800.99   -49039.738    3736.2507   -52775.989   0.26859133 
   47800    269.45693    -1016.667    142778.66   -49099.093     3700.342   -52799.435   0.29113742 
   47900    272.99892   -999.41924    142732.29   -49140.791    3748.9827   -52889.774   0.27457368 
   48000    268.02721   -1001.1277    142732.26   -49100.695    3680.7083   -52781.403   0.28398212 
   48100    267.65546   -967.90941    142711.11   -49138.135    3675.6032   -52813.738   0.27975469 
   48200    268.96125   -1004.7695    142734.63   -49131.398    3693.5352   -52824.933   0.28604794 
   48300    269.87184   -995.16335    142751.81   -49090.684    3706.0398   -52796.723   0.27288392 
   48400    269.84552    -998.6945    142745.53   -49124.185    3705.6785   -52829.864   0.27340086 
   48500    268.07604    -1018.139     142709.6   -49204.537    3681.3789   -52885.916   0.29510046 
   48600    267.10762   -1015.6676    142709.69   -49197.496      3668.08   -52865.576   0.27996001 
   48700    272.26701   -985.53824    142732.31   -49094.425    3738.9318   -52833.357   0.27525603 
   48800    275.13895   -951.15741    142722.86    -49083.29    3778.3709   -52861.661    0.2759845 
   48900    272.71272   -978.08309    142720.49    -49103.43    3745.0525   -52848.482    0.2878784 
   49000    271.96535   -997.78795    142714.94   -49137.761    3734.7892   -52872.551   0.26791543 
   49100    272.46385   -1005.6952    142735.98   -49054.749    3741.6348   -52796.384   0.28092784 
   49200    271.84034   -1021.2843    142744.09   -49091.491    3733.0725   -52824.564   0.29254645 
   49300    274.05787   -981.19967    142762.26    -49151.16    3763.5248   -52914.684   0.26311334 
   49400    267.66157   -1008.5058    142741.64   -49171.961    3675.6871   -52847.649   0.27789168 
   49500    268.98207   -1022.7919     142717.9   -49114.071     3693.821   -52807.892   0.28180479 
   49600    272.23285   -988.64446    142703.66   -49110.549    3738.4627   -52849.012     0.281073 
   49700    272.66577   -973.20938    142717.87   -49112.892    3744.4077   -52857.299    0.2712252 
   49800    273.62961   -982.63841    142699.83   -49123.778    3757.6437   -52881.422   0.28243829 
   49900    269.98364    -996.0221    142700.31   -49104.736    3707.5752   -52812.311   0.29170477 
   50000    271.31325   -979.80593    142725.34   -49110.111    3725.8341   -52835.946   0.26635257 
   50100    277.37453   -997.47999    142785.63   -48981.296    3809.0712   -52790.368   0.28200506 
   50200    274.09437   -1037.9448    142772.87   -49046.594    3764.0261    -52810.62   0.28430444 
   50300    270.17795   -1040.2003     142788.6    -49066.44    3710.2435   -52776.683   0.27595713 
   50400    269.42333   -996.13242    142784.11    -49082.87    3699.8807    -52782.75   0.27111228 
   50500    276.96376   -960.57394    142788.95   -49000.766    3803.4302   -52804.196   0.28017803 
   50600    274.07618   -980.03608    142793.08   -48928.505    3763.7764   -52692.281   0.28554259 
   50700     262.5652   -1042.1117    142773.14   -49148.362    3605.7007   -52754.062   0.27260646 
   50800    270.92098   -1015.7714    142744.41   -49130.721    3720.4473   -52851.168   0.28421275 
   50900    270.21607   -1014.5672    142750.09   -49156.715     3710.767   -52867.482   0.28707607 
   51000    271.40795   -1014.2919    142748.36    -49124.06    3727.1346   -52851.194   0.26563045 
   51100    270.20766    -1026.884    142734.86   -49134.812    3710.6515   -52845.463   0.28711107 
   51200    268.43523   -1027.5858    142689.95    -49183.09    3686.3114   -52869.401   0.28811506 
   51300     269.9826   -1009.4494    142708.14   -49201.996    3707.5609   -52909.557   0.27429721 
   51400    269.62032   -997.68597    142697.95   -49133.826    3702.5858   -52836.412   0.28359681 
   51500    267.46843   -999.54915    142699.73   -49191.875    3673.0349    -52864.91   0.27910169 
   51600    271.63087   -983.15706    142686.66   -49110.045    3730.1959   -52840.241   0.28997778 
   51700    272.23083   -985.13032    142713.13   -49008.409     3738.435   -52746.844   0.27621402 
   51800    272.67868   -1032.9879    142749.23   -49059.596     3744.585   -52804.181   0.28139159 
   51900    276.57575   -972.52111    142740.51   -49115.186    3798.1019   -52913.287   0.27922002 
   52000    270.86752   -1010.4907    142710.64   -49104.475    3719.7132   -52824.188   0.27606713 
   52100    274.51435   -1001.4958    142675.11   -49172.323    3769.7935   -52942.116   0.28232538 
   52200    267.70514   -1053.3074     142684.8   -49227.894    3676.2854   -52904.179   0.28317996 
   52300    266.91578   -975.68682       142674   -49200.753    3665.4455   -52866.198   0.28362618 
   52400    264.85201   -996.95916    142675.14   -49284.934    3637.1045   -52922.038   0.27101418 
   52500    268.60069   -967.78869    142697.35    -49141.33    3688.5836   -52829.914   0.28177367 
   52600    266.73985   -1011.9095    142718.85    -49115.15    3663.0295    -52778.18   0.28683363 
   52700    267.69738   -1013.1775    142724.89   -49053.084    3676.1789   -52729.263   0.27441166 
   52800    269.43713   -1005.6028    142757.19   -49025.429    3700.0701   -52725.499   0.28477273 
   52900    274.35592   -1000.8926    142752.96   -49050.102    3767.6178   -52817.719    0.2815765 
   53000    276.89874   -986.76923    142760.69   -49000.872    3802.5374   -52803.409   0.27458404 
   53100    269.83553   -982.22218    142735.91   -49128.315    3705.5413   -52833.856   0.27506569 
   53200    269.31629   -993.95428    142710.79   -49175.906    3698.4107   -52874.317   0.29357804 
   53300    269.36213   -969.22847    142689.93   -49138.102    3699.0402   -52837.142   0.27504716 
   53400    270.59299   -996.95749    142729.98   -49074.491     3715.943   -52790.434    0.2778739 
   53500    272.91166   -997.79059    142760.99   -49065.295    3747.7845   -52813.079   0.28751732 
   53600    273.16614   -1006.4765     142757.7   -49135.717    3751.2792   -52886.996   0.27439111 
   53700    272.77452   -1013.5429    142740.32   -49114.035    3745.9012   -52859.936   0.27962542 
   53800    273.65707   -1003.2203    142713.03    -49138.31    3758.0209   -52896.331   0.27722619 
   53900    267.87713   -970.01088     142716.2   -49141.289    3678.6474   -52819.936   0.29544635 
   54000     269.0888   -1010.5768    142731.82   -49154.251    3695.2867   -52849.537   0.27110764 
   54100    273.20641   -1047.0119    142709.36   -49123.099    3751.8321   -52874.931   0.28511779 
   54200    268.64055   -976.09259    142710.93    -49073.66    3689.1311   -52762.791   0.28934407 
   54300    274.63331   -976.32677    142757.85    -49004.07    3771.4271   -52775.497   0.27248714 
   54400    274.96229    -1027.927    142770.97   -48930.238    3775.9449   -52706.183   0.29289374 
   54500    273.72442   -1013.4319     142765.6   -48994.468    3758.9457   -52753.414   0.28053366 
   54600    274.76611   -1000.9066    142754.16   -49013.772    3773.2508   -52787.023   0.28968931 
   54700    273.54478   -980.54347    142735.15   -49066.272    3756.4788   -52822.751   0.28208361 
   54800    272.95075   -1023.5309    142764.36   -48996.022    3748.3213   -52744.344   0.28536994 
   54900    275.90149   -1014.7535       142735   -49011.612    3788.8426   -52800.454   0.29111814 
   55000    276.57578   -970.44272     142729.1   -49042.449    3798.1023   -52840.552   0.28100303 
   55100    271.81804   -1014.9258    142772.28   -49060.228    3732.7662   -52792.994   0.28038753 
   55200    271.46095   -992.09994    142717.16   -49169.529    3727.8624   -52897.391   0.27694935 
   55300    270.01269   -999.13091    142678.83   -49215.766    3707.9741   -52923.741     0.281421 
   55400    269.97788   -985.10811    142681.15   -49179.606     3707.496   -52887.102   0.27468501 
   55500    273.57207   -951.41325    142696.56   -49143.904    3756.8537   -52900.758   0.26932822 
   55600    275.18292   -962.65692    142740.65   -49043.086    3778.9747   -52822.061    0.2872431 
   55700    274.78679   -1019.0118    142793.76   -49010.087    3773.5348   -52783.622   0.27322054 
   55800    276.54493   -970.72103    142803.77    -48997.31    3797.6787   -52794.988   0.27136664 
   55900    277.83821   -971.12101    142788.12   -49011.289    3815.4387   -52826.728   0.28291358 
   56000    273.82866   -1026.6265    142795.05   -49018.999    3760.3773   -52779.376   0.27579965 
   56100    275.19264   -970.76971     142776.8   -49004.545    3779.1083   -52783.653   0.26769816 
   56200    274.08495   -1011.0353    142778.58   -49038.394    3763.8968   -52802.291   0.28690261 
   56300    273.31377   -987.95002    142754.35   -49099.866    3753.3064   -52853.172   0.27996047 
   56400    269.85449   -1012.5821    142707.84   -49150.377    3705.8015   -52856.179   0.26971512 
   56500     268.1359    -1020.514    142695.11   -49200.102    3682.2009   -52882.302   0.28916716 
   56600    270.63843    -988.3587    142668.53   -49250.821    3716.5671   -52967.388   0.27731203 
   56700    265.32226   -1020.8966    142678.62   -49231.827    3643.5624   -52875.389   0.28170749 
   56800    265.95223   -985.67106    142717.59   -49121.086    3652.2135     -52773.3   0.28347207 
   56900    268.57786   -1020.7527    142707.64   -49216.677    3688.2702   -52904.947   0.28175419 
   57000    270.21644   -1009.7851     142684.3   -49201.617    3710.7721   -52912.389   0.27968745 
   57100    271.25833   -964.74551    142698.67    -49125.02      3725.08     -52850.1    0.2712686 
   57200    275.56496   -970.87744    142747.16    -49083.21    3784.2211   -52867.431   0.28160915 
   57300    270.36585   -1046.0287    142723.27   -49205.885    3712.8239   -52918.709   0.27838196 
   57400    270.85828   -986.31751    142737.08   -49096.413    3719.5863   -52815.999   0.27425385 
   57500    269.45774   -1008.5463    142722.69   -49056.051    3700.3531   -52756.404   0.27773067 
   57600    271.70582   -991.23665    142716.32   -49166.662    3731.2252   -52897.888   0.27714601 
   57700    272.42798   -983.81779    142707.44   -49081.389    3741.1422   -52822.531   0.28906564 
   57800    274.84053   -984.09652    142725.67   -49033.345    3774.2729   -52807.618   0.26927384 
   57900    272.99318    -985.6224    142705.77   -49071.155    3748.9039   -52820.058   0.28757424 
   58000    273.08203   -1011.4083    142672.63   -49027.932     3750.124   -52778.056   0.29620685 
   58100    274.34971    -1034.374    142686.37   -49076.088    3767.5326    -52843.62    0.2725654 
   58200    275.84716   -991.92816    142720.69   -48975.772    3788.0965   -52763.868   0.29206517 
   58300    270.14259    -1015.288    142704.91   -49033.828    3709.7579   -52743.586    0.2876342 
   58400    271.90885   -990.65184    142714.98   -49080.122    3734.0133   -52814.135   0.27556975 
   58500    268.21412   -1003.5713    142695.89   -49087.272     3683.275   -52770.547   0.27702737 
   58600    265.31079   -1065.7308    142652.37   -49116.393    3643.4048   -52759.798   0.29266423 
   58700    274.51538   -993.56939    142662.36   -49070.588    3769.8077   -52840.396   0.28132067 
   58800    269.55963   -1008.1936     142665.9   -49111.301    3701.7524   -52813.053   0.27371628 
   58900    273.68817   -967.58962    142694.93    -49036.26     3758.448   -52794.708   0.28354576 
   59000    269.39818   -1014.9859    142716.92   -49001.609    3699.5353   -52701.145   0.28691906 
   59100    270.33812   -990.12276    142747.81   -48971.194    3712.4431   -52683.637   0.27783083 
   59200     272.3435   -978.07362    142749.57   -49081.904    3739.9822   -52821.886   0.27832567 
   59300     274.5206   -964.73511    142751.56   -49064.161    3769.8794   -52834.041   0.28030074 
   59400    272.80074    -1020.226    142748.92   -49054.479    3746.2612    -52800.74    0.2746743 
   59500    271.32416   -974.62649     142715.8   -49154.869    3725.9839   -52880.853      0.27486 
   59600    273.61157   -971.39193    142713.61   -49131.134    3757.3961    -52888.53   0.27854419 
   59700    276.38921   -1024.6907    142731.25   -49070.461    3795.5402   -52866.001    0.2851772 
   59800    266.00137   -1035.4809    142674.98   -49179.756    3652.8883   -52832.644   0.28141125 
   59900     266.5076   -984.69762    142665.07   -49172.129    3659.8402   -52831.969   0.27845384 
   60000     269.7125   -993.60465     142685.9   -49139.332    3703.8516   -52843.184   0.29229338 
   60100    271.00763   -1007.2396    142704.23    -49098.39    3721.6372   -52820.027    0.2753359 
   60200    274.79331   -999.48929    142702.05   -49069.538    3773.6244   -52843.163   0.27309494 
   60300    274.34112   -957.65549    142736.27   -49031.681    3767.4146   -52799.095   0.28677064 
   60400    273.94095   -1013.7386    142754.16   -48983.168    3761.9193   -52745.087   0.28444087 
   60500    274.92626   -976.17585    142776.06   -49009.747    3775.4502   -52785.198   0.27425084 
   60600    270.22558   -1028.2588    142755.19   -49066.354    3710.8976   -52777.251   0.27947996 
   60700    275.20619    -1015.504    142786.98   -48905.221    3779.2942   -52684.515   0.28853855 
   60800    272.61703   -1029.0921    142800.32   -48923.389    3743.7385   -52667.128   0.27733543 
   60900    272.30575   -996.99583     142796.3   -49011.379    3739.4637   -52750.843   0.27571781 
   61000    273.39219   -1014.4766    142762.55   -49057.683    3754.3834   -52812.067   0.29214791 
   61100     269.9466   -1039.9864    142767.22   -49043.116    3707.0666   -52750.183     0.271249 
   61200    278.86921   -994.33012    142795.23   -48987.467     3829.597   -52817.064   0.27305363 
   61300     273.1027   -1010.1944     142801.3   -49073.207    3750.4079   -52823.614   0.28409099 
   61400    270.46348   -1030.2959    142789.95   -49130.433    3714.1646   -52844.598   0.27019904 
   61500     269.7304   -962.96577    142796.35   -49073.378    3704.0974   -52777.475   0.27541271 
   61600    270.79467   -1009.4348    142783.22   -49113.014    3718.7126   -52831.726   0.27728872 
   61700    274.36546   -1007.3985    142785.62   -49172.829    3767.7489   -52940.578   0.27494923 
   61800    268.74636   -993.76478    142781.44   -49161.897     3690.584   -52852.481   0.26089148 
   61900    269.77255   -995.49863    142816.08   -49062.896    3704.6764   -52767.573    0.2760644 
   62000    270.45282   -1000.1506     142814.2   -49074.257    3714.0182   -52788.276   0.28102312 
   62100    266.96274   -1006.1136    142808.08   -49140.312    3666.0904   -52806.402   0.27117613 
   62200    267.20411   -1026.2889    142843.67   -49042.785     3669.405    -52712.19   0.27753862 
   62300     273.5975    -985.9113    142812.17   -49081.751    3757.2028   -52838.953   0.27524447 
   62400    266.60301   -998.38695    142806.24    -49124.39    3661.1503    -52785.54   0.27471076 
   62500     266.7829   -978.24838    142805.76    -49114.99    3663.6207   -52778.611   0.26379768 
   62600     269.7974   -1021.4992    142754.96   -49140.752    3705.0176    -52845.77   0.28085427 
   62700    264.94986   -1007.0831    142749.73   -49178.129    3638.4483   -52816.577   0.28438075 
   62800    267.26339   -1000.7756    142734.31   -49150.802     3670.219   -52821.021   0.27493974 
   62900    274.21325   -1016.5003    142767.88   -49066.173    3765.6586   -52831.831   0.27402727 
   63000    275.78173   -978.60632    142802.35   -49092.701    3787.1979   -52879.899   0.27581062 
   63100    271.50944   -1024.7074    142766.05   -49164.462    3728.5284   -52892.991   0.26852748 
   63200    272.58316    -969.7488    142779.29   -49047.416    3743.2733   -52790.689   0.26732058 
   63300    274.54902   -962.53118    142779.31    -49139.12    3770.2697   -52909.389   0.28487723 
   63400     264.2046   -999.39252    142760.03   -49227.784     3628.214   -52855.998   0.26997624 
   63500      266.553   -1007.7884    142742.41    -49200.18    3660.4635   -52860.644   0.26352525 
   63600    264.48669   -1005.4607    142743.63   -49249.384    3632.0877   -52881.472   0.27823987 
   63700    266.19942   -1011.3337    142725.87   -49218.494     3655.608   -52874.102   0.27340751 
   63800    262.87972   -999.98457    142695.13   -49281.416      3610.02   -52891.435   0.26984829 
   63900    268.35752   -971.33428    142719.21   -49177.839    3685.2443   -52863.083   0.26885652 
   64000    264.86011   -996.97736    142757.63   -49096.971    3637.2158   -52734.187   0.28583087 
   64100    276.21202   -1026.8809    142779.74   -49052.557    3793.1069   -52845.664   0.26998858 
   64200    272.77873   -1011.5039    142785.75   -49038.979    3745.9589   -52784.938   0.26763176 
   64300    271.76939   -1054.1871    142782.11    -49076.03    3732.0982   -52808.128   0.28188199 
   64400    266.23265   -1007.5341    142775.09    -49129.54    3656.0643   -52785.605   0.26921016 
   64500    267.20696   -1016.8228    142765.96   -49123.347    3669.4441   -52792.791   0.26867878 
   64600    265.41583   -1000.7363    142769.46   -49157.185    3644.8472   -52802.032    0.2664816 
   64700    267.79979   -1023.8651     142758.1   -49161.683    3677.5852   -52839.268   0.27672634 
   64800    271.22236   -989.17627    142774.61   -49110.044     3724.586    -52834.63   0.27407909 
   64900    276.06304   -948.21831    142799.01   -49024.223     3791.061   -52815.284   0.25941209 
   65000    272.05191   -997.38766    142835.33   -49019.374    3735.9779   -52755.352   0.27876545 
   65100    273.59516   -1032.5493     142815.1   -49082.873    3757.1707   -52840.044   0.27422363 
   65200    271.73572   -1022.9911    142773.45   -49099.658    3731.6357   -52831.294   0.26288258 
   65300    274.94199   -998.28167    142758.82   -49032.972    3775.6662   -52808.638   0.28144457 
   65400    273.31676   -991.73396    142733.38   -49076.447    3753.3475   -52829.794   0.28344895 
   65500    271.15753   -997.36882    142750.28   -49011.778    3723.6956   -52735.474   0.27444623 
   65600    268.83323   -999.12989    142778.29   -49024.042     3691.777   -52715.819   0.27693137 
   65700    277.64724   -1011.7257    142774.77   -48988.672    3812.8162   -52801.488   0.28745436 
   65800    270.35645   -1038.9534    142762.99   -49046.554    3712.6948   -52759.249    0.2787598 
   65900    267.60402   -1006.2973    142745.63   -49056.221    3674.8968   -52731.118   0.27092568 
   66000    271.30419   -1013.2351     142728.2   -49065.359    3725.7097   -52791.068   0.29267535 
   66100    272.02326   -980.88799    142704.18   -49036.406    3735.5844   -52771.991   0.27781145 
   66200    265.59396   -1003.6985    142675.27   -49160.023    3647.2934   -52807.317   0.27332323 
   66300    270.95222   -1004.1703    142668.25   -49095.346    3720.8763   -52816.222   0.29033364 
   66400    275.77786   -970.23394    142673.03   -49103.347    3787.1448   -52890.492   0.28283239 
   66500    271.56214   -1031.1831    142698.62   -49138.476    3729.2521   -52867.728   0.27185309 
   66600    261.38879   -972.67508       142683   -49132.178    3589.5456   -52721.724   0.28906997 
   66700    267.27869   -1003.1227    142656.62   -49121.138    3670.4292   -52791.567   0.28866611 
   66800     268.1323   -998.82914    142650.04   -49139.893    3682.1514   -52822.044   0.27565186 
   66900    269.12694   -992.15429    142672.83   -49154.174    3695.8105   -52849.984   0.28233361 
   67000    270.23098   -988.09951    142648.67   -49257.146    3710.9718   -52968.118   0.26996213 
   67100    273.07515   -1001.6898    142658.59    -49100.15    3750.0296    -52850.18   0.28500244 
   67200    264.06942   -1012.8643     142656.4    -49199.71    3626.3576   -52826.068   0.27827724 
   67300    267.85802   -1014.2602    142679.37   -49117.328    3678.3849   -52795.713   0.27752256 
   67400    273.90684   -959.45732     142699.7   -49097.495    3761.4509   -52858.946   0.28482532 
   67500    272.62712   -955.22675    142718.65   -49090.716     3743.877   -52834.593     0.275667 
   67600    272.31247   -1003.6177    142711.22   -48952.945     3739.556   -52692.501   0.27867376 
   67700    274.30357   -991.86235    142740.66   -49021.459    3766.8989   -52788.358   0.27730597 
   67800     271.1718   -962.89023    142732.98   -49062.564    3723.8916   -52786.456   0.28445694 
   67900    266.31225   -1004.9922    142731.55   -49090.882    3657.1575    -52748.04   0.26643745 
   68000    272.13155   -1008.2877    142725.36   -49123.631    3737.0715   -52860.703   0.27620927 
   68100    270.85448      -1004.4    142719.04   -49130.518    3719.5341   -52850.052   0.29121938 
   68200    274.74801   -955.52253    142736.47    -49100.62    3773.0023   -52873.623   0.25130584 
   68300     270.3618   -999.24365    142758.01   -49052.914    3712.7682   -52765.682   0.27956956 
   68400    267.07318   -1014.3482    142776.94   -49014.681     3667.607   -52682.288   0.29307667 
   68500    270.86041   -1026.5665    142776.44   -49011.579    3719.6155   -52731.194   0.27116093 
   68600    269.53178   -1019.7522    142756.83   -49097.752    3701.3699   -52799.122    0.2736841 
   68700      271.047   -981.91911    142719.38   -49069.063    3722.1779   -52791.241   0.28877352 
   68800    268.95556    -1011.469       142758   -49067.995     3693.457   -52761.452   0.27755067 
   68900    270.34073    -978.2687    142724.61   -49067.025    3712.4789   -52779.504   0.26509944 
   69000    269.75943   -1015.4426    142726.36   -49068.499    3704.4962   -52772.995   0.28666397 
   69100    271.74104   -1010.8438    142693.58   -49130.853    3731.7088   -52862.562   0.27585126 
   69200    269.67426   -1020.0703    142697.22    -49141.07    3703.3265   -52844.397   0.27861983 
   69300    268.70775   -1016.6104    142695.35   -49175.322    3690.0539   -52865.376   0.28379462 
   69400    267.66218   -1026.1473    142682.82   -49218.977    3675.6955   -52894.672    0.2882453 
   69500    274.67216   -958.90436    142663.92   -49088.019    3771.9607    -52859.98   0.27436027 
   69600    273.49499    -1017.702     142741.3   -48992.172    3755.7951   -52747.967   0.28353629 
   69700     271.9521   -1004.7605    142727.07   -49083.106    3734.6072   -52817.713   0.28229492 
   69800    275.31806    -979.2846    142696.17   -49076.641    3780.8306   -52857.472   0.27089903 
   69900    270.35358   -1051.4313    142681.43   -49170.621    3712.6554   -52883.277   0.27797552 
   70000    266.78608   -1004.3742    142692.12   -49103.094    3663.6643   -52766.758   0.27995856 
   70100    267.18969   -988.65576    142684.29   -49220.203    3669.2069    -52889.41   0.27867205 
   70200    273.10912   -992.52592    142720.17   -49062.123    3750.4961    -52812.62   0.27887429 
   70300    271.38635   -970.53802     142710.5   -49073.318     3726.838   -52800.156   0.27036338 
   70400    273.86454   -1013.4864     142774.9   -48974.325    3760.8699   -52735.195   0.28474208 
   70500    274.67553    -1037.096    142761.87   -49043.036     3772.007   -52815.043   0.27797416 
   70600     272.7841   -1007.7793    142735.62   -49099.107    3746.0327    -52845.14   0.26930063 
   70700    270.11117   -1025.2409     142701.8   -49065.829    3709.3264   -52775.156    0.2887459 
   70800     266.1427   -1043.9976    142712.24   -49102.153    3654.8291   -52756.982   0.28722791 
   70900    267.49409   -977.81389    142707.63   -49095.556    3673.3872   -52768.943   0.27238457 
   71000    269.53938   -1009.5493    142712.48   -49115.658    3701.4743   -52817.132   0.27464007 
   71100    271.21461   -1012.0788    142696.05   -49107.462    3724.4795   -52831.942   0.29308237 
   71200    267.10175   -975.54198    142715.02   -49129.734    3667.9993   -52797.734   0.26763656 
   71300    268.36576   -995.01659    142708.99   -49183.442    3685.3575     -52868.8   0.26739538 
   71400    271.03463   -987.13711    142719.04   -49128.034     3722.008   -52850.042   0.28603365 
   71500    273.22592   -969.18494     142759.6   -49079.725       3752.1   -52831.825   0.26640127 
   71600    272.55723   -1031.0107     142736.3   -49103.463    3742.9172    -52846.38   0.26660406 
   71700    270.90473   -1011.4017    142735.23   -49092.059     3720.224   -52812.283   0.29037076 
   71800    267.87767   -1002.3482    142707.22   -49257.234    3678.6547   -52935.889    0.2690452 
   71900    269.87353   -974.87634    142681.85   -49199.329    3706.0631   -52905.392   0.26839618 
   72000    268.38233   -1004.5461    142700.87   -49172.428     3685.585   -52858.013   0.27780484 
   72100    269.65776   -979.87466    142750.01   -49045.147       3703.1   -52748.247   0.28240892 
   72200    273.65195   -1006.8089     142786.3   -48941.627    3757.9505   -52699.577   0.27405922 
   72300    279.43443   -986.86674    142823.42   -48916.306     3837.359   -52753.665   0.27497294 
   72400    272.14828   -997.48059    142794.58   -49025.844    3737.3012   -52763.145   0.28277571 
   72500    274.45989   -984.78029    142780.03   -49024.476    3769.0456   -52793.521   0.27171967 
   72600    272.75621   -973.31441    142795.96    -48974.21    3745.6497    -52719.86   0.27850075 
   72700    268.68441    -1007.413    142786.68   -49129.969    3689.7334   -52819.702   0.26993581 
   72800    272.30327   -1033.8176    142791.67   -49057.724    3739.4297   -52797.154   0.27896717 
   72900    274.02741   -988.17491    142818.01   -49065.599    3763.1066   -52828.706   0.27504757 
   73000    270.32859   -966.23315     142780.8    -49075.94    3712.3122   -52788.252   0.26956922 
   73100    276.61035   -999.65472    142760.55   -49028.312     3798.577   -52826.889   0.28587024 
   73200    275.77764   -1007.3474    142798.99   -49014.748    3787.1418    -52801.89   0.28239517 
   73300    271.53881   -1008.0428    142812.47   -48996.902    3728.9316   -52725.833   0.26406458 
   73400    270.39292   -1015.8805    142812.23    -48976.98    3713.1956   -52690.175   0.28042336 
   73500    273.54343   -1018.6589    142824.89   -48989.695    3756.4603   -52746.155   0.28575328 
   73600    270.69862   -1001.7227    142786.06   -49023.731    3717.3937   -52741.125   0.26219604 
   73700    275.45346   -1026.2851    142757.37   -49076.607      3782.69   -52859.297    0.2773018 
   73800    267.98512   -1009.7248    142762.36   -49169.018    3680.1303   -52849.148   0.28938304 
   73900    271.31726   -996.90066    142767.38    -49152.98    3725.8893    -52878.87   0.26140096 
   74000     274.5252   -945.93167    142744.81   -49078.707    3769.9425    -52848.65   0.27139791 
   74100    277.45219   -961.96347     142797.9   -48921.764    3810.1377   -52731.902   0.28872399 
   74200       271.23   -1023.9836    142782.97   -49077.751    3724.6909   -52802.442   0.27203178 
   74300    269.88497   -995.03132    142752.52   -49075.458    3706.2201   -52781.678    0.2710343 
   74400     269.6095    -1001.215    142752.35   -49113.019    3702.4372   -52815.457   0.28586035 
   74500    270.11372   -1000.3997     142740.7   -49128.868    3709.3615    -52838.23   0.26752999 
   74600    273.17916   -1014.4599    142745.26   -49127.135    3751.4579   -52878.593   0.26282786 
   74700    269.73431   -1010.8989    142734.84   -49044.269    3704.1512    -52748.42    0.2926602 
   74800    271.23461   -970.76676    142709.07    -49096.38    3724.7543   -52821.135    0.2754329 
   74900    270.74321   -1051.9643     142714.1   -49103.616     3718.006   -52821.622   0.28369585 
   75000    270.72903   -1020.4993    142737.39   -49088.055    3717.8113   -52805.866   0.27568343 
   75100    272.33633   -974.94312    142730.64   -49013.305    3739.8837   -52753.188   0.27661992 
   75200    271.87984   -989.93777    142744.76   -49063.095     3733.615    -52796.71   0.28310442 
   75300    275.70601   -970.71253    142743.82   -49108.961    3786.1581   -52895.119   0.26577709 
   75400    267.57294   -1022.8079    142724.05    -49120.65      3674.47    -52795.12   0.27458544 
   75500    268.68369    -941.2094    142742.05   -49114.216    3689.7234   -52803.939   0.27665963 
   75600    271.44539    -1017.038    142781.63   -49050.581    3727.6488    -52778.23   0.27770898 
   75700    271.09748   -996.62315    142796.36   -49011.704    3722.8711   -52734.575   0.26116897 
   75800    269.80761    -1028.888    142794.23   -49028.214    3705.1578   -52733.372   0.28846727 
   75900    270.11603   -1021.0881    142796.18   -49049.351    3709.3932   -52758.744   0.27920093 
   76000    270.79669   -1002.8498    142806.07   -49054.219    3718.7404    -52772.96   0.25861448 
   76100    268.64688   -1017.0954    142773.79   -49140.176    3689.2179   -52829.394   0.27825828 
   76200    268.86173   -1000.1536    142755.94   -49177.916    3692.1684   -52870.084   0.27691584 
   76300    270.86303   -1006.5879    142745.95   -49127.565    3719.6515   -52847.216   0.26102852 
   76400    269.90388   -968.62992    142745.52    -49120.41    3706.4798    -52826.89   0.27292617 
   76500    269.39429   -1005.5968    142747.92   -49111.695    3699.4818   -52811.177   0.29475311 
   76600    267.67834   -994.84903    142757.03   -49149.496    3675.9174   -52825.413    0.2558311 
[...]
   81900    268.95984   -1000.9995    142681.13   -49142.522    3693.5157   -52836.038   0.29472009 
   82000    269.34486   -993.35749    142707.67   -49060.651     3698.803   -52759.454   0.27226984 
   82100    273.37265   -1016.2089    142744.76    -49012.87     3754.115   -52766.985   0.27522073 
   82200    276.97035   -995.07466    142742.35   -49017.008    3803.5208   -52820.529   0.29330744 
   82300    271.26531   -996.27771    142721.45   -49093.343    3725.1758   -52818.518   0.26977339 
   82400    278.75981   -965.57537    142756.25   -48972.425    3828.0947   -52800.519   0.26976491 
   82500    279.52428    -1024.512    142781.63   -48885.089    3838.5929   -52723.682   0.29622663 
   82600    273.37567    -1020.418    142798.77   -48978.182    3754.1565   -52732.339   0.27404379 
   82700    272.20404   -999.65283    142752.72   -49058.546     3738.067   -52796.613   0.27425607 
   82800    270.47907    -979.1441    142709.67    -49062.89    3714.3787   -52777.269   0.28147758 
   82900    275.86673   -978.63534    142745.49   -49023.562    3788.3653   -52811.927   0.26929079 
   83000    275.63118   -958.97334    142763.32    -48963.22    3785.1306   -52748.351   0.27594819 
   83100    275.41502   -1006.8804     142775.4   -49005.939    3782.1621   -52788.101   0.27961789 
   83200    271.74874   -1010.7696    142764.53    -49043.34    3731.8146   -52775.154   0.27095224 
   83300    276.58474   -965.69957    142738.63   -49023.531    3798.2253   -52821.756   0.28042539 
   83400    268.75558    -1024.042    142733.11   -49103.722    3690.7107   -52794.433   0.28173506 
   83500    266.61313    -1028.418    142685.41   -49201.367    3661.2893   -52862.656   0.27162907 
   83600    267.99699   -1016.9966    142710.58   -49148.482    3680.2933   -52828.775   0.28149057 
   83700    267.15117   -979.69367    142713.78   -49175.757    3668.6781   -52844.435   0.28183667 
   83800    271.91536   -988.21305    142737.23   -49142.254    3734.1027   -52876.356    0.2667862 
   83900    270.41547   -1005.6017    142700.67   -49133.601    3713.5053   -52847.107   0.27969637 
   84000    265.14277   -1017.9447    142678.72   -49146.816    3641.0975   -52787.914   0.29189522 
   84100    268.19428   -972.84085    142716.29   -49089.089    3683.0027   -52772.092   0.26502769 
   84200     278.2991   -951.73095    142742.53   -49040.603     3821.768   -52862.371   0.28114187 
   84300    270.62707   -963.16064    142743.53   -49090.088    3716.4111   -52806.499   0.28916657 
   84400    270.55754   -1021.6969    142735.07   -49091.471    3715.4563   -52806.927   0.26873379 
   84500    267.79599   -1024.2181    142708.52   -49143.912     3677.533   -52821.445     0.280436 
   84600    268.99059   -1008.8087    142741.32   -49063.087    3693.9379   -52757.025   0.29476512 
   84700    276.09835   -1003.5159    142750.89   -49068.098    3791.5459   -52859.644   0.27129292 
   84800    274.40911   -1010.6349     142756.7   -49068.774    3768.3484   -52837.123    0.2643365 
   84900    274.85467   -965.44129    142778.54   -48992.694     3774.467   -52767.161   0.28724261 
   85000    268.43421   -1031.3668    142768.83   -49058.986    3686.2975   -52745.283   0.27655622 
   85100    272.04757   -995.31488    142763.94     -49083.5    3735.9183   -52819.418   0.26960521 
   85200    275.29751   -990.84031    142731.29   -49121.178    3780.5484   -52901.726   0.28298484 
   85300    270.32217   -1038.8206    142718.19   -49130.541     3712.224   -52842.765   0.26994479 
   85400    270.27857    -989.2932    142709.01   -49158.655    3711.6254   -52870.281   0.27161887 
   85500    269.90281   -968.98647    142725.13   -49102.331    3706.4651   -52808.796   0.28222548 
   85600    269.34177   -963.29209    142710.27   -49130.839    3698.7606     -52829.6     0.263345 
   85700     269.7239   -974.57451    142745.93   -49078.461    3704.0083   -52782.469   0.27384675 
   85800    269.47617   -986.60342    142749.47   -49071.559    3700.6063   -52772.166   0.27519523 
   85900    270.42794   -1022.3338    142766.83   -49039.958    3713.6765   -52753.635    0.2711426 
   86000    269.31821   -1006.2931    142737.36   -49088.724    3698.4371   -52787.161   0.28086113 
   86100    274.11768   -1017.0436    142759.65   -49056.901    3764.3462   -52821.247   0.27983362 
   86200     273.7744   -993.34669    142770.61   -49025.771    3759.6321   -52785.403   0.26938798 
   86300    267.27415   -981.52515    142764.41   -49070.154    3670.3668   -52740.521    0.2821885 
   86400    270.71255   -1015.0528     142756.3   -49129.682     3717.585   -52847.267   0.27774591 
   86500    269.87751   -1006.7446    142735.25   -49162.283    3706.1177     -52868.4   0.25863489 
   86600    271.18342   -966.98396    142764.22   -49007.369    3724.0512   -52731.421   0.28500167 
   86700    274.67349   -1027.6428    142771.72   -49009.481     3771.979    -52781.46   0.28456012 
   86800    273.08037   -1026.8151    142748.21   -49125.395    3750.1013   -52875.497   0.26344479 
   86900    271.04769   -1009.0964    142718.98   -49108.212    3722.1873     -52830.4   0.28903719 
   87000    268.63807   -987.12661    142745.81   -49087.149    3689.0969   -52776.246   0.28846274 
   87100    273.54343   -984.79568    142700.65   -49057.297    3756.4603   -52813.757   0.26799941 
   87200    275.56007   -1006.0468    142733.07   -48995.513     3784.154   -52779.667   0.28354384 
   87300     276.5698     -986.774    142735.86   -49005.978    3798.0202   -52803.998   0.28753279 
   87400    278.05695   -986.66144    142734.82   -49055.701    3818.4426   -52874.144   0.26188884 
   87500    276.76254   -992.70535     142715.7   -49026.388     3800.667   -52827.055   0.27747902 
   87600    270.63301   -980.91452    142728.29    -49050.86    3716.4926   -52767.353    0.2953771 
   87700    275.03952   -1000.5426     142760.5   -49032.475    3777.0055   -52809.481   0.27013501 
   87800     270.3474   -1039.5346    142725.97   -49108.579    3712.5705   -52821.149   0.27587093 
   87900    272.05738   -986.75368    142715.65   -49130.393    3736.0529   -52866.446   0.28217699 
   88000    268.13445   -1004.8071    142727.52    -49098.38    3682.1809   -52780.561   0.27233094 
   88100    264.57903   -1002.2097    142741.24   -49072.419    3633.3559   -52705.775   0.28230644 
   88200    268.56967   -989.93452    142713.03   -49165.808    3688.1577   -52853.965   0.27978007 
   88300    267.59319   -987.01824    142705.89   -49113.635    3674.7481   -52788.383   0.27582019 
   88400    278.56653   -1002.6084    142742.17   -49053.169    3825.4404    -52878.61   0.27238328 
   88500    278.20636   -989.44323    142731.85   -49117.702    3820.4944   -52938.197   0.27519836 
   88600    269.80192   -1013.7291    142715.69     -49106.8    3705.0796    -52811.88   0.27683051 
   88700    271.02172     -989.694    142729.48   -49075.994    3721.8307   -52797.825   0.27728406 
   88800    270.10108   -986.43101    142743.84   -49143.834    3709.1879   -52853.022   0.28071722 
   88900    268.87579   -988.17395    142723.41   -49080.595    3692.3615   -52772.957   0.27339241 
   89000    271.41941    -1036.549     142739.6   -49050.877    3727.2919   -52778.169   0.28152503 
   89100     272.8574    -999.4061    142748.13   -49100.617    3747.0393   -52847.656   0.27979358 
   89200    272.67395   -982.62744     142765.9     -49053.3    3744.5201    -52797.82   0.27078663 
   89300    267.76785   -1009.0667    142739.91   -49168.375    3677.1466   -52845.521   0.27937957 
   89400    275.71084   -931.42584    142773.32   -49076.781    3786.2244   -52863.005   0.27962857 
   89500    273.82839   -1005.7464    142749.11   -49165.053    3760.3735   -52925.427   0.26115746 
   89600    268.64258   -952.80321    142718.39   -49187.433    3689.1589   -52876.592    0.2748985 
   89700    269.64418   -994.39482    142748.78   -49113.786    3702.9134   -52816.699   0.28157541 
   89800    274.23301    -956.0753    142740.18    -49049.86      3765.93    -52815.79   0.26493524 
   89900    271.95404   -1011.1329    142760.68   -49034.487    3734.6338   -52769.121   0.28182752 
   90000    277.50644   -995.32492     142754.1   -49057.332    3810.8827   -52868.215   0.28369806 
   90100      275.945   -977.00113    142743.35   -49040.398      3789.44   -52829.838   0.27042889 
   90200    270.41295   -1004.2853    142737.14   -49110.004    3713.4707   -52823.474   0.27838108 
   90300     270.2576   -977.99648    142728.33   -49087.071    3711.3374   -52798.408   0.28325301 
   90400    270.74155   -1012.9449    142731.07   -49075.232    3717.9833   -52793.215     0.268061 
   90500    272.33858   -1004.7567    142748.71   -49081.707    3739.9146   -52821.622   0.27029339 
   90600    268.34064    -996.7749     142738.4   -49107.906    3685.0126   -52792.918   0.28697766 
   90700    268.29651   -1016.6247    142721.46   -49139.817    3684.4065   -52824.223   0.26965908 
   90800    271.06583   -1020.8769    142696.55   -49149.798    3722.4364   -52872.234    0.2784828 
   90900    268.32236   -984.70026    142726.92   -49130.755    3684.7615   -52815.516   0.29054492 
   91000    269.91667   -993.88616    142723.14   -49146.389    3706.6554   -52853.045   0.27040128 
   91100    268.36826   -1007.1578       142671   -49244.972    3685.3918   -52930.364   0.28206941 
   91200    268.37855   -963.33793    142663.99   -49186.462    3685.5331   -52871.996   0.27842012 
   91300    269.22933   -989.70566    142702.87   -49127.204    3697.2166   -52824.421   0.26849878 
   91400    270.31919   -1011.8682     142704.6   -49097.993    3712.1831   -52810.176   0.28660733 
   91500    277.94223   -980.15191     142746.5   -48934.403    3816.8672    -52751.27   0.29267642 
   91600    276.99206   -997.15212    142746.93    -48997.61    3803.8189   -52801.429   0.27241252 
   91700    269.44696   -993.04245    142731.82   -49066.591    3700.2051   -52766.796   0.28693964 
   91800    272.92056   -995.54217    142738.96   -49040.206    3747.9067   -52788.113   0.29436455 
   91900    272.11633   -1028.6345    142766.29   -49033.681    3736.8625   -52770.543    0.2746163 
   92000    270.14938   -1015.2091    142750.61    -49081.01    3709.8512   -52790.861   0.27611084 
   92100    270.24439   -1005.2479    142716.89   -49066.005    3711.1559   -52777.161    0.2839652 
   92200    269.60825   -1005.3227    142709.37   -49093.981    3702.4201   -52796.401   0.27749665 
   92300    274.45437   -980.28777    142720.02   -48973.026    3768.9699   -52741.996    0.2795009 
   92400    269.15241   -1027.5131     142711.7    -49023.93    3696.1602    -52720.09   0.28814897 
   92500      272.441   -990.99927    142733.63   -49016.106    3741.3211   -52757.427   0.27485461 
   92600    271.97828    -974.0454    142779.98   -48934.645    3734.9668   -52669.612   0.27517711 
   92700    275.44403   -1024.1961    142752.02   -49053.047    3782.5604   -52835.608   0.27957445 
   92800    267.23762   -1026.0669     142732.2   -49064.515    3669.8651   -52734.381   0.27734222 
   92900    271.39858   -1050.7482    142726.18   -49101.118    3727.0059   -52828.124   0.28550593 
   93000    269.05581   -992.75337    142728.72   -49110.132    3694.8336   -52804.965   0.27629874 
   93100    270.49641   -964.72022     142735.5   -49036.544    3714.6169   -52751.161   0.27545169 
   93200    269.75037   -1042.2633    142749.99   -49095.738    3704.3717   -52800.109   0.28099356 
   93300    272.38079   -963.56113    142734.91   -49135.608    3740.4942   -52876.102   0.26477463 
   93400    272.24148   -1027.2011    142707.74   -49194.697    3738.5811   -52933.278   0.27241035 
   93500      267.523   -1010.5618    142704.16   -49193.538    3673.7842   -52867.323   0.27719076 
   93600    270.39445   -1023.0509    142682.86   -49146.629    3713.2166   -52859.845   0.28210028 
   93700    269.66032   -1006.9195    142710.33   -49125.386    3703.1351   -52828.521   0.28345228 
   93800    266.77288   -1027.1717    142713.42   -49121.877    3663.4831    -52785.36   0.27772078 
   93900    269.89832   -993.56483    142678.41   -49186.705    3706.4035   -52893.108   0.27845477 
   94000    268.16229   -1008.6639     142682.3   -49158.227    3682.5632    -52840.79   0.28041784 
   94100    272.30412   -968.28382    142723.56   -49049.613    3739.4414   -52789.054   0.27844272 
   94200    271.85468    -1004.772    142732.14   -49037.766    3733.2694   -52771.035   0.28989403 
   94300    274.07665   -988.00156    142753.93   -49055.601    3763.7827   -52819.384   0.27735659 
   94400    273.63091   -985.71536    142728.64   -49041.643    3757.6616   -52799.305   0.27805305 
   94500    273.94035   -1018.9884    142747.88   -49051.089     3761.911       -52813   0.28142061 
   94600    272.82234   -963.52854    142717.88   -49051.826    3746.5579   -52798.384   0.27719087 
   94700    269.68456   -990.11091    142734.72   -49098.524     3703.468   -52801.992   0.27510149 
   94800     271.4408   -1003.7164    142732.19   -49138.797    3727.5858   -52866.383   0.27519143 
   94900    269.10999   -1015.4059    142706.66   -49161.453    3695.5776   -52857.031   0.28741617 
   95000    273.82047   -988.52949    142695.87   -49122.062    3760.2647   -52882.327   0.27306548 
   95100    270.96189   -984.78366     142699.4   -49087.319    3721.0091   -52808.328   0.28288908 
   95200    270.18177   -1022.9094    142686.48   -49115.135     3710.296   -52825.431   0.29074567 
   95300    272.18541   -1011.9574    142685.24   -49068.928    3737.8111   -52806.739   0.27704552 
   95400    274.11045   -973.80986     142712.6    -49041.15    3764.2469   -52805.397   0.28598946 
   95500    267.47308   -1013.5173    142706.11   -49052.836    3673.0986   -52725.935   0.28663748 
   95600    265.78704   -1007.5052    142697.25   -49036.481     3649.945   -52686.426    0.2834234 
   95700    270.66276   -994.33302    142703.19   -49070.807    3716.9012   -52787.708   0.28123411 
   95800     276.6054   -971.39913    142715.59   -49021.119    3798.5091   -52819.629   0.28042322 
   95900    278.55099   -990.82486    142756.81   -49040.433     3825.227    -52865.66   0.27644834 
   96000    276.70683   -1016.4904    142781.87   -49013.438     3799.902    -52813.34   0.28517987 
   96100    276.95077   -976.37825    142787.63   -48964.419    3803.2519   -52767.671   0.27792691 
   96200    271.19933   -1033.9505    142770.24   -48985.456    3724.2697   -52709.726   0.28148306 
   96300    276.59232   -983.27995    142730.75    -49002.72    3798.3294   -52801.049    0.2854598 
   96400    276.83164   -986.01276    142744.13   -49057.681     3801.616   -52859.297   0.26869274 
   96500    273.53195   -992.18756    142743.17   -49050.314    3756.3027   -52806.617    0.2813238 
   96600    271.20506   -992.31855     142749.3   -49099.966    3724.3484   -52824.314   0.27889136 
   96700    272.43377   -994.86091    142736.32   -49071.729    3741.2218   -52812.951   0.27793216 
   96800    272.59008   -988.91655    142729.22    -49088.59    3743.3683   -52831.959   0.27615871 
   96900    274.92292   -1010.1562    142752.19   -49101.428    3775.4043   -52876.832   0.28069188 
   97000    267.09774   -1020.9239    142741.32   -49170.731    3667.9442   -52838.675   0.27889971 
   97100    268.36311   -1016.5683    142731.29   -49142.686     3685.321   -52828.007   0.26770723 
   97200    276.64322   -972.07633    142736.85   -49085.427    3799.0285   -52884.456   0.28522268 
   97300    273.30996    -993.2787    142788.03   -48983.622    3753.2541   -52736.876   0.27356596 
   97400    269.89114   -1031.0168    142765.16   -49071.698    3706.3049   -52778.003    0.2719839 
   97500    270.51416   -1013.4093    142767.12   -49045.802    3714.8606   -52760.662   0.28508296 
   97600    276.33133   -972.33162    142787.35   -48985.052    3794.7453   -52779.797   0.26963663 
   97700    271.20901   -998.18145    142806.64   -48951.073    3724.4027   -52675.476   0.27722522 
   97800    269.39556   -1024.2216    142775.21   -49046.719    3699.4993   -52746.218   0.28182122 
   97900    268.36466   -1009.5255    142796.31   -49011.114    3685.3423   -52696.457   0.28069335 
   98000     268.1389   -972.40351    142749.99    -49098.38    3682.2421   -52780.622    0.2721649 
   98100    269.07107    -1006.954     142745.5   -49079.115    3695.0433   -52774.158   0.27955081 
   98200    270.16005   -1014.0085    142707.73   -49071.481    3709.9977   -52781.478   0.27764647 
   98300    274.42341    -961.7628    142760.59    -49015.17    3768.5447   -52783.715   0.27772155 
   98400    273.99225   -1046.5285    142737.24   -49057.218    3762.6237   -52819.842   0.27505708 
   98500    275.30129   -1006.2364    142704.43   -49027.239    3780.6003   -52807.839   0.27720299 
   98600    274.11345   -979.39228    142701.33   -49036.811    3764.2881     -52801.1   0.28025657 
   98700    275.23389   -988.57482    142722.78   -49004.903    3779.6748   -52784.577   0.28222235 
   98800    278.17736   -1005.2869    142749.66   -49012.091    3820.0962   -52832.187   0.27202906 
   98900    270.96489   -1021.5042    142741.88   -49070.221    3721.0502   -52791.271   0.27470697 
   99000    270.64644   -990.21888    142699.09   -49063.189    3716.6771   -52779.867   0.28245612 
   99100    273.29136   -1022.4291    142701.99   -49122.308    3752.9988   -52875.307   0.27075455 
   99200    269.52362   -1008.1339    142721.51   -49129.861    3701.2578   -52831.119   0.28006944 
   99300     272.4104   -1015.0556    142743.27   -49061.831    3740.9008   -52802.731   0.28261041 
   99400    271.33459   -1000.3879    142734.82   -49099.135    3726.1272   -52825.263   0.26726194 
   99500    271.69722     -946.891    142745.26   -49056.264     3731.107   -52787.371   0.27534997 
   99600    275.63138    -977.9953    142759.26    -49052.16    3785.1333   -52837.294   0.27609076 
   99700    271.56783   -1011.2004    142775.95   -49100.915    3729.3301   -52830.245   0.26328775 
   99800    268.98425   -1027.4287    142743.98   -49113.099    3693.8509    -52806.95    0.2791689 
   99900    267.49352   -994.93345    142733.72   -49160.415    3673.3793   -52833.794   0.27447721 
  100000    270.05642   -1000.0818    142749.36   -49084.755    3708.5747   -52793.329   0.27835311 
Loop time of 111.118 on 6 procs for 100000 steps with 4608 atoms

Performance: 388.776 ns/day, 0.062 hours/ns, 899.945 timesteps/s
98.9% CPU use with 6 MPI tasks x no OpenMP threads

MPI task timing breakdown:
Section |  min time  |  avg time  |  max time  |%varavg| %total
---------------------------------------------------------------
Pair    | 93.907     | 94.423     | 95.758     |   7.0 | 84.98
Neigh   | 6.3222     | 6.4797     | 6.7228     |   6.5 |  5.83
Comm    | 6.2516     | 7.5063     | 8.2112     |  25.8 |  6.76
Output  | 0.16873    | 0.16951    | 0.17272    |   0.4 |  0.15
Modify  | 1.8468     | 1.9052     | 1.9416     |   2.3 |  1.71
Other   |            | 0.6338     |            |       |  0.57

Nlocal:        768.000 ave         773 max         763 min
Histogram: 1 0 1 0 1 1 0 0 0 2
Nghost:        1655.83 ave        1677 max        1639 min
Histogram: 1 0 1 1 0 2 0 0 0 1
Neighs:        0.00000 ave           0 max           0 min
Histogram: 6 0 0 0 0 0 0 0 0 0
FullNghs:      24091.3 ave       24260 max       23932 min
Histogram: 1 1 0 0 0 2 1 0 0 1

Total # of neighbors = 144548
Ave neighs/atom = 31.368924
Neighbor list builds = 6565
Dangerous builds = 0

undump              1
unfix               2
unfix               3
unfix               4




################################################
#######         Run Simulation         #########
################################################

reset_timestep      0
log                 log.run_${NAME}
log                 log.run_ice_272K_-1000atm_mW
