
# Create simulation box of size 50 x 50 x 50 Angstrom
#
lattice	            sc 1
Lattice spacing in x,y,z = 1.0000000 1.0000000 1.0000000
region 	            all block 0 ${X} ${YZ_LO} ${YZ_HI} ${YZ_LO} ${YZ_HI} units box
region 	            all block 0 53.4 ${YZ_LO} ${YZ_HI} ${YZ_LO} ${YZ_HI} units box
region 	            all block 0 53.4 0.3132513601942222.0 ${YZ_HI} ${YZ_LO} ${YZ_HI} units box
region 	            all block 0 53.4 0.3132513601942222.0 50.59386863980498.0 ${YZ_LO} ${YZ_HI} units box
region 	            all block 0 53.4 0.3132513601942222.0 50.59386863980498.0 0.3132513601942222.0 ${YZ_HI} units box
region 	            all block 0 53.4 0.3132513601942222.0 50.59386863980498.0 0.3132513601942222.0 50.59386863980498.0 units box
create_box          1 all
Created orthogonal box = (0.0000000 0.31325136 0.31325136) to (53.400000 50.593869 50.593869)
  3 by 1 by 2 MPI processor grid

# fill box with 4175 randomly distributed atoms
#
create_atoms        1 random 4608 63782 all
Created 4608 atoms
  create_atoms CPU = 0.001 seconds
mass                1 18.015

# Define potential
#
pair_style          sw
pair_coeff          * * /data/emrosky-sim/Freezing_Simulations/Melting/mW_fancy/mW.sw mW
Reading sw potential file /data/emrosky-sim/Freezing_Simulations/Melting/mW_fancy/mW.sw with DATE: 2019-02-27

# Run minimization
#
minimize            1.0e-8 1.0e-8 10000 1000
WARNING: Using 'neigh_modify every 1 delay 0 check yes' setting during minimization (../min.cpp:187)
Neighbor list info ...
  update every 1 steps, delay 0 steps, check yes
  max neighbors/atom: 2000, page size: 100000
  master list distance cutoff = 6.3065
  ghost atom cutoff = 6.3065
  binsize = 3.15325, bins = 17 16 16
  1 neighbor lists, perpetual/occasional/extra = 1 0 0
  (1) pair sw, perpetual
      attributes: full, newton on
      pair build: full/bin/atomonly
      stencil: full/bin/3d
      bin: standard
Per MPI rank memory allocation (min/avg/max) = 4.236 | 4.254 | 4.260 Mbytes
Step Temp E_pair E_mol TotEng Press 
       0            0      4723168            0      4723168    3342798.1 
     680            0   -52184.004            0   -52184.004    387.16722 
Loop time of 2.10237 on 6 procs for 680 steps with 4608 atoms

99.5% CPU use with 6 MPI tasks x no OpenMP threads

Minimization stats:
  Stopping criterion = max force evaluations
  Energy initial, next-to-last, final = 
      4723167.98353188  -52183.9825076455  -52184.0039273897
  Force two-norm initial, final = 1.0804389e+08 0.97981711
  Force max component initial, final = 57128744.0 0.32822593
  Final line search alpha, max atom move = 0.17907617 0.058777443
  Iterations, force evaluations = 680 1001

MPI task timing breakdown:
Section |  min time  |  avg time  |  max time  |%varavg| %total
---------------------------------------------------------------
Pair    | 1.822      | 1.914      | 1.9894     |   3.8 | 91.04
Neigh   | 0.042079   | 0.043279   | 0.043977   |   0.3 |  2.06
Comm    | 0.047569   | 0.12335    | 0.21701    |  15.1 |  5.87
Output  | 0          | 0          | 0          |   0.0 |  0.00
Modify  | 0          | 0          | 0          |   0.0 |  0.00
Other   |            | 0.02176    |            |       |  1.04

Nlocal:        768.000 ave         783 max         751 min
Histogram: 1 0 1 0 1 0 0 1 1 1
Nghost:        1694.83 ave        1720 max        1667 min
Histogram: 1 0 1 1 0 1 0 0 0 2
Neighs:        0.00000 ave           0 max           0 min
Histogram: 6 0 0 0 0 0 0 0 0 0
FullNghs:      25811.7 ave       26351 max       24965 min
Histogram: 1 0 0 0 2 0 0 1 0 2

Total # of neighbors = 154870
Ave neighs/atom = 33.608941
Neighbor list builds = 37
Dangerous builds = 0

# Add velocity/set timestep
#
velocity            all create ${TEMP} 120598 rot yes dist gaussian
velocity            all create 272 120598 rot yes dist gaussian
timestep            5.0

# Define output
#
compute	            1 all msd
thermo	            100
thermo_style        custom step temp press vol etotal ke pe c_1[4] density

# Neighbor lists
#
neigh_modify        delay 0 every 1 check yes

# Set fixes
#
fix                 1 all momentum 10 linear 1 1 1 rescale
fix                 2 all nve
fix                 3 all temp/csvr ${TEMP} ${TEMP} 500.0 928347
fix                 3 all temp/csvr 272 ${TEMP} 500.0 928347
fix                 3 all temp/csvr 272 272 500.0 928347
fix                 4 all press/berendsen iso ${PRES} ${PRES} 1000.0 modulus 20000
fix                 4 all press/berendsen iso -1000 ${PRES} 1000.0 modulus 20000
fix                 4 all press/berendsen iso -1000 -1000 1000.0 modulus 20000

# Run 0.5 ns equilibration
#
dump                1 all custom 1000 eq.${NAME}.dump id type x y z vx vy vz
dump                1 all custom 1000 eq.liq_272K_-1000atm_mW.dump id type x y z vx vy vz
run                 100000
Per MPI rank memory allocation (min/avg/max) = 3.504 | 3.507 | 3.510 Mbytes
Step Temp Press Volume TotEng KinEng PotEng c_1[4] Density 
     680          272     1651.938     135002.7   -48448.739     3735.265   -52184.004            0    1.0210649 
     700     147.1537    767.15861    136820.36   -48141.619    2020.8018    -50162.42   0.13109541       1.0075 
     800    187.25807   -651.79074     139244.5   -46675.143    2571.5387   -49246.682     0.555669   0.98996022 
     900     215.6493   -725.06983       140115   -45740.257    2961.4239   -48701.681   0.93408306   0.98380987 
    1000    233.90953   -881.89708    140828.63   -45103.856    3212.1841    -48316.04    1.4561386    0.9788245 
    1100    244.15865   -989.43783    141251.95    -44652.33    3352.9312   -48005.261    2.0103895   0.97589105 
    1200    250.92027   -928.07183    141431.44   -44296.678    3445.7856   -47742.464    2.6835022   0.97465256 
    1300    260.16381   -1094.1777    141441.44   -44003.488    3572.7235   -47576.211     3.484906   0.97458369 
    1400    260.06261   -891.09312    141454.33   -43852.482    3571.3337   -47423.815    4.4537786   0.97449488 
    1500    266.50293    -1011.361    141656.03   -43642.935    3659.7759   -47302.711    5.4642813   0.97310733 
    1600    263.28538   -939.14494    141727.65   -43572.684    3615.5906   -47188.275    6.4257412   0.97261553 
    1700     269.6105   -958.16854    141763.13   -43547.489     3702.451    -47249.94    7.3470331    0.9723721 
    1800    270.46599   -997.39165    141844.81   -43431.749     3714.199   -47145.948    8.2459127   0.97181222 
    1900    272.79142   -1093.7807     141513.8   -43404.541    3746.1332   -47150.674    9.4911749   0.97408534 
    2000    268.29321   -907.47493    141473.12   -43304.335    3684.3612   -46988.696    10.790419   0.97436541 
    2100    267.15673   -1063.1032    141117.02   -43359.878    3668.7543   -47028.632    11.904403   0.97682417 
    2200    272.24166    -982.2191    141182.21   -43337.333    3738.5836   -47075.917    12.949933   0.97637312 
    2300    270.76533   -976.73705    141122.49   -43303.731    3718.3098   -47022.041    14.250819   0.97678633 
    2400     270.6253   -1088.9887    140761.73   -43298.468    3716.3868   -47014.855     15.37174   0.97928973 
    2500     271.6274   -1015.6526    140687.27   -43312.048    3730.1482   -47042.196    16.472384     0.979808 
    2600    279.88505   -910.77209    140883.65   -43196.997    3843.5472   -47040.545    17.704763   0.97844224 
    2700    276.41422   -964.14658    140987.45   -43191.898    3795.8837   -46987.782     19.15443   0.97772192 
    2800       271.21    -1212.878    140540.72   -43319.983    3724.4162     -47044.4    20.421871   0.98082971 
    2900    275.32331   -1112.3808    140636.18   -43279.679    3780.9026   -47060.582    21.687597   0.98016397 
    3000    273.89404   -875.07524    140989.34   -43218.318     3761.275   -46979.593    22.853534   0.97770882 
    3100      270.159   -1071.5555    140874.85    -43201.13    3709.9832   -46911.114     23.89181   0.97850341 
    3200    272.29212   -1110.0113    140780.51   -43217.833    3739.2766   -46957.109    25.091962   0.97915908 
    3300    275.92258   -1047.8058    140920.31   -43215.614    3789.1321   -47004.746    26.333409   0.97818775 
    3400    274.17819    -983.9364    140738.45    -43213.31    3765.1772   -46978.487    27.857275    0.9794517 
    3500    279.09849   -1067.9003    140725.81   -43124.949    3832.7457   -46957.695    29.365963   0.97953972 
    3600    274.04067    -920.8552    140807.99   -43108.948    3763.2886   -46872.236     30.54062   0.97896797 
    3700    275.74166   -726.68809    140779.44   -43134.003    3786.6477   -46920.651    31.764036   0.97916653 
    3800    274.40916   -1073.1876    140855.46   -43132.558    3768.3491   -46900.907     32.85549   0.97863811 
    3900    271.77737   -1097.9319    140414.37   -43253.658    3732.2077   -46985.865      34.2792   0.98171231 
    4000    270.23992   -956.98032    140646.61    -43247.52    3711.0945   -46958.614    35.474377   0.98009127 
    4100    270.08772   -1073.3394    140633.93   -43197.478    3709.0045   -46906.483    36.895368   0.98017968 
    4200    272.68651   -1304.8229    140315.13     -43203.8    3744.6926   -46948.493    37.950093   0.98240664 
    4300    273.55284   -963.92881    140234.77   -43149.393    3756.5896   -46905.982    39.206133    0.9829696 
    4400     274.0785   -839.21065    140437.21    -43151.35    3763.8082   -46915.158    40.571941   0.98155268 
    4500    273.83944   -998.25884    140650.98   -43138.866    3760.5252   -46899.392    41.954863   0.98006083 
    4600    272.94158   -1046.4873    140609.06   -43179.474    3748.1954   -46927.669    43.253025   0.98035305 
    4700    269.81561   -850.11506    140571.42    -43248.15    3705.2676   -46953.418    44.669948   0.98061554 
    4800    268.51277   -993.20283    140662.21   -43229.071    3687.3764   -46916.447    46.093024   0.97998257 
    4900    273.90118   -1015.1813    140860.39   -43188.687    3761.3732    -46950.06    47.553866   0.97860385 
    5000    269.88457    -1103.099     140945.8   -43283.363    3706.2146   -46989.578    48.615244   0.97801084 
    5100    269.20357   -794.18467    141028.72   -43242.463    3696.8627   -46939.326     49.97725   0.97743575 
    5200    270.60424    -829.4854    140744.61   -43279.978    3716.0976   -46996.076    51.450557   0.97940888 
    5300    274.76423   -982.36877    140787.79   -43271.232     3773.225   -47044.457    52.854052   0.97910843 
    5400    272.31089   -943.49182    140509.66   -43196.226    3739.5343    -46935.76    54.266291   0.98104658 
    5500    269.52188   -811.82119    140506.38   -43149.588     3701.234   -46850.822    55.888009   0.98106942 
    5600    277.42493   -794.68868    140962.89   -43095.628    3809.7634   -46905.392     57.59283   0.97789226 
    5700    268.46206    -946.8317       140724   -43200.811    3686.6799   -46887.491    58.933498    0.9795523 
    5800    274.00207   -1134.3263    140818.07   -43131.715    3762.7585   -46894.474    60.302469   0.97889794 
    5900    271.65635   -876.06092    140778.68   -43216.302    3730.5458   -46946.848    61.479491   0.97917181 
    6000    265.03643   -946.52896    140548.34   -43284.197    3639.6372   -46923.834    62.716302   0.98077656 
    6100    270.52797   -1005.9055    140674.32   -43295.299    3715.0502   -47010.349    63.844322   0.97989824 
    6200    272.03621   -1026.1265    140773.07   -43293.188    3735.7623   -47028.951     65.10118   0.97921084 
    6300    272.63584   -929.19194     140705.2   -43316.308    3743.9967   -47060.304    66.652237    0.9796832 
    6400    268.60676   -887.17802    140789.48   -43267.637     3688.667   -46956.304    67.919046   0.97909672 
    6500    272.21595   -1026.9466    140867.32   -43223.514    3738.2305   -46961.745    69.416083   0.97855567 
    6600    271.38819   -868.96932    140988.06   -43279.064    3726.8632   -47005.927     70.39509   0.97771767 
    6700    270.26006   -947.64324    141246.94   -43295.543    3711.3711   -47006.914    71.455198   0.97592571 
    6800    268.67803   -805.19756    141115.82   -43380.562    3689.6457   -47070.208    72.759265   0.97683248 
    6900    272.42019   -1146.8447    140931.04   -43352.609    3741.0353   -47093.644    73.668021   0.97811322 
    7000    272.51742   -997.51831    140627.84   -43232.698    3742.3705   -46975.068    74.865132   0.98022209 
    7100    263.34495   -1079.7823    140587.53   -43315.214    3616.4087   -46931.623    76.144889   0.98050314 
    7200    272.63181   -933.54526    140464.19   -43312.597    3743.9414   -47056.538    77.309335   0.98136415 
    7300    264.69629    -1007.692    140528.17   -43311.821    3634.9661   -46946.787    78.564478   0.98091732 
    7400     270.8736   -994.91817    140309.65   -43364.235    3719.7966   -47084.031    79.696551   0.98244502 
    7500    270.92202   -1066.3707    140264.28   -43321.786    3720.4615   -47042.247    81.049545    0.9827628 
    7600    271.48533    -984.0325    140581.96   -43282.106    3728.1973   -47010.303    82.678332   0.98054197 
    7700    272.75873   -1061.8133    140550.85   -43240.627    3745.6843   -46986.311    83.523473   0.98075905 
    7800    272.29903   -1054.9402    140388.87   -43275.452    3739.3714   -47014.823    84.701906   0.98189062 
    7900    267.80902   -978.90972    140385.61   -43390.943    3677.7119   -47068.655    86.131696   0.98191342 
    8000    268.65556   -1014.6777    140261.03   -43416.968    3689.3371   -47106.305       87.356   0.98278556 
    8100    274.49569   -921.82957    140656.25   -43300.901    3769.5373   -47070.438    88.543259   0.98002409 
    8200     266.0641   -1037.7027    140614.79   -43313.685    3653.7497   -46967.435    90.091592   0.98031306 
    8300    267.73622    -1064.265    140916.58   -43274.004    3676.7122   -46950.716    91.128034   0.97821364 
    8400    274.65094   -984.51744    140719.51   -43327.793    3771.6693   -47099.462    91.934753   0.97958357 
    8500    271.42136   -1004.2531    140667.44   -43356.262    3727.3188   -47083.581    93.162884   0.97994613 
    8600    272.27567   -963.49814     140864.5   -43262.346    3739.0507   -47001.397    94.457108    0.9785753 
    8700    270.43876   -1125.4998     140845.6    -43176.39    3713.8251   -46890.215      95.6536    0.9787066 
    8800    275.01615   -1107.3636    140540.19    -43150.08    3776.6845   -46926.765    96.813631   0.98083345 
    8900    277.18373   -952.72571    140696.81    -43202.99    3806.4511   -47009.441    98.161736    0.9797416 
    9000    273.64674   -1136.2298    140562.19   -43142.633    3757.8789   -46900.512    99.620734   0.98067993 
    9100    273.53601   -976.47945    140682.85   -43163.844    3756.3585   -46920.202    101.12797   0.97983882 
    9200    269.37477   -1061.0122    140795.16    -43188.16    3699.2138   -46887.374    102.73125   0.97905721 
    9300    276.03918   -814.93971    140853.09   -43174.034    3790.7334   -46964.768    104.64261   0.97865455 
    9400    269.99178   -841.35678    140909.73   -43183.723    3707.6869    -46891.41    106.46582    0.9782612 
    9500    275.33711   -1025.8223    140760.08   -43226.774    3781.0921   -47007.866    107.71929   0.97930124 
    9600    269.83268   -851.81985    140893.81   -43254.991    3705.5021   -46960.493    109.40809   0.97837171 
    9700    278.58238   -979.68168    140921.26    -43206.83    3825.6581   -47032.488    110.74334   0.97818111 
    9800    272.94661   -1016.3721    141146.04    -43247.39    3748.2644   -46995.655    112.61015   0.97662337 
    9900    270.90622   -918.52576    141062.21   -43166.733    3720.2445   -46886.978    113.52017    0.9772037 
   10000    267.14649   -874.03627    141038.15   -43308.822    3668.6137   -46977.436    115.05059   0.97737039 
   10100    270.71852   -1123.1393    140724.11   -43209.318     3717.667   -46926.985    116.11891   0.97955149 
   10200     268.1735   -961.33964    140586.42   -43311.375    3682.7172   -46994.093    117.27219   0.98051093 
   10300    274.32573   -994.62764    140788.98   -43242.018    3767.2033   -47009.221    118.46744   0.97910022 
   10400    275.92367    -1013.045     140992.9   -43189.532    3789.1472   -46978.679    119.74991   0.97768413 
   10500    273.75679   -1075.3314    141258.61   -43191.927    3759.3902   -46951.317    121.49876   0.97584507 
   10600    271.09657   -909.75582    141198.34   -43178.791    3722.8585   -46901.649      122.485   0.97626162 
   10700    269.79863   -1064.3449       141022   -43239.814    3705.0345   -46944.848    123.67164   0.97748236 
   10800    272.29062    -944.0126    140907.49   -43197.207     3739.256   -46936.463    125.40209   0.97827669 
   10900    284.16768   -848.57284    141132.94   -43087.041    3902.3587     -46989.4    126.95624     0.976714 
   11000    272.28695   -1017.8002    141207.89   -43148.993    3739.2056   -46888.198    128.37141   0.97619555 
   11100    269.37118   -1217.0216    140923.07   -43184.198    3699.1645   -46883.363     129.8613   0.97816859 
   11200    273.66521   -1104.6462    140836.22     -43148.4    3758.1327   -46906.533    131.27338    0.9787718 
   11300    270.93348   -1012.5423    140876.19    -43201.87    3720.6189   -46922.489    132.87177   0.97849407 
   11400    273.78354   -1140.4164    140975.63    -43182.49    3759.7576   -46942.248    134.71042   0.97780384 
   11500    267.27356   -1027.2867    141086.14   -43311.119    3670.3587   -46981.478    136.40529   0.97703796 
   11600    264.70194   -1051.1168    140897.84   -43388.954    3635.0438   -47023.997    137.26981   0.97834372 
   11700    268.93433   -1101.9656    140853.04   -43268.543    3693.1654   -46961.708    138.04774   0.97865488 
   11800    273.44502    -867.5866    140695.91   -43250.861    3755.1088    -47005.97    139.07616   0.97974783 
   11900    272.05785   -1123.5046    140842.53   -43357.854    3736.0595   -47093.914    140.25054   0.97872789 
   12000    271.81014   -1108.6245    140915.38    -43297.14    3732.6578   -47029.798    141.42476   0.97822196 
   12100    273.90042   -892.76963    140717.21   -43345.561    3761.3627   -47106.924    142.62335   0.97959957 
   12200     277.3631   -991.05871    140717.02   -43225.567    3808.9142   -47034.481    144.48429   0.97960085 
   12300    279.09121   -999.85715    140886.29   -43173.729    3832.6456   -47006.375     146.1638   0.97842391 
   12400    273.81453   -1015.7157    141023.44   -43169.732    3760.1832   -46929.915    147.42298   0.97747239 
   12500    271.73407   -1007.9442    140974.72   -43165.528     3731.613   -46897.141    148.44366   0.97781017 
   12600    273.38005   -907.95368    141214.85   -43184.422    3754.2166   -46938.639    150.18571   0.97614749 
   12700    278.16974   -1048.7138    141237.33   -43133.832    3819.9915   -46953.823    151.05322    0.9759921 
   12800    272.59905   -1017.4225    140973.15   -43234.009    3743.4915   -46977.501    152.21113    0.9778211 
   12900    270.48191   -1062.3332    140724.99   -43214.691    3714.4177   -46929.109    153.13536   0.97954543 
   13000    268.22179   -1086.3887    140652.24   -43219.323    3683.3804   -46902.703     154.2557   0.98005203 
   13100     269.1482    -799.7966    140812.45   -43178.377    3696.1025    -46874.48    155.55962   0.97893699 
   13200     275.1608   -1194.3843    140876.51   -43144.687     3778.671   -46923.358    156.83739   0.97849183 
   13300    276.10153   -1033.3071    140767.74    -43150.86    3791.5896   -46942.449    158.84206    0.9792479 
   13400    271.07816   -1001.2328    140672.64   -43211.837    3722.6057   -46934.442    160.92188   0.97990992 
   13500    269.40005   -894.44908    140651.71    -43213.18    3699.5609   -46912.741    162.76245   0.98005572 
   13600    271.21161   -1057.1549    140639.78   -43215.903    3724.4383   -46940.342    165.08448   0.98013892 
   13700    273.74119   -1011.3736    140610.29   -43207.027     3759.176   -46966.202    166.81921   0.98034442 
   13800    273.12387   -972.71234    140685.95   -43260.531    3750.6986   -47011.229    168.01445   0.97981725 
   13900    272.62536   -892.30274     140671.5    -43310.21    3743.8528   -47054.063    169.22338   0.97991788 
   14000    267.82767   -852.49482     140760.8     -43406.9    3677.9681   -47084.868     170.6561   0.97929623 
   14100    269.68996   -1018.2436     140859.2   -43368.063    3703.5421   -47071.605    171.81819   0.97861212 
   14200    267.07256   -863.55808    141106.55   -43277.303    3667.5985   -46944.901    172.64904   0.97689662 
   14300    271.21551   -1098.5972    141010.14   -43279.562     3724.492   -47004.054    174.29555   0.97756458 
   14400    273.33035   -1127.0012    141085.25    -43279.27    3753.5342   -47032.804    175.46313   0.97704413 
   14500    271.61135   -996.87122    140949.02   -43287.316    3729.9279   -47017.244    176.87403   0.97798846 
   14600    275.77057   -939.71289    141054.35   -43184.055    3787.0446     -46971.1    177.80681   0.97725819 
   14700     274.2038   -1009.1635    141152.65   -43163.998    3765.5289   -46929.527    179.51425   0.97657761 
   14800    272.21637   -1144.8205    141057.46   -43204.382    3738.2364   -46942.619     180.7201   0.97723664 
   14900    267.57354   -1016.6136    140823.55   -43197.834    3674.4782   -46872.312     181.6231   0.97885982 
   15000    266.27633   -1119.4837    141041.36   -43243.234    3656.6642   -46899.898    182.66399    0.9773482 
   15100    271.63145   -1022.8182    140886.08   -43236.609    3730.2038   -46966.813    183.70599   0.97842542 
   15200    269.23369   -972.46458    140898.02   -43299.337    3697.2764   -46996.613    185.05249    0.9783425 
   15300    273.15346   -933.00846    140600.11   -43246.176    3751.1049   -46997.281    185.70675   0.98041544 
   15400    277.61512   -964.54315    140718.54   -43210.033    3812.3752   -47022.408    187.22427   0.97959029 
   15500    271.31992   -886.48122    140810.54   -43232.585    3725.9258   -46958.511    187.84223   0.97895029 
   15600    272.24433   -880.55105    140864.16   -43276.064    3738.6202   -47014.684    189.44523   0.97857764 
   15700    274.02212   -912.07478    140968.99   -43354.255     3763.034   -47117.289    190.73347    0.9778499 
   15800    271.71896   -930.80715     141056.8   -43341.329    3731.4055   -47072.734    192.05831   0.97724122 
   15900    274.17953   -987.70819    141027.52   -43313.281    3765.1956   -47078.477     193.2021   0.97744409 
   16000    266.39306     -1109.77    140794.99   -43344.545    3658.2672   -47002.812    194.11381   0.97905841 
   16100    268.79364   -1062.8255    140712.62   -43321.127    3691.2333    -47012.36    195.16875   0.97963153 
   16200    278.06477   -1104.5096    140913.51   -43187.555    3818.5501   -47006.105    197.31155    0.9782349 
   16300    276.55702   -1052.2665    140933.61   -43203.017    3797.8447   -47000.862    198.56782   0.97809542 
   16400    273.71659    -1189.242    140842.02   -43185.182    3758.8382   -46944.021    200.12978   0.97873149 
   16500    278.42358   -1001.3904    140820.14   -43137.532    3823.4774   -46961.009     201.1017   0.97888351 
   16600    272.80167   -881.94927    140838.93   -43233.664     3746.274   -46979.938    202.70901   0.97875296 
   16700    274.36391   -1257.3132    141086.98   -43249.327    3767.7276   -47017.055    204.52122   0.97703213 
   16800    274.07005    -1141.376    140625.03   -43264.171    3763.6921   -47027.863    206.03288   0.98024166 
   16900    271.05722   -1209.1901    140324.52   -43236.743    3722.3181   -46959.061    207.37499   0.98234094 
   17000    275.46273   -969.75752    140358.38   -43254.667    3782.8173   -47037.484    209.07311   0.98210395 
   17100    273.47353   -1005.4748    140159.54   -43284.157    3755.5004   -47039.657    210.42033   0.98349721 
   17200    274.14959   -964.68728    140135.66   -43208.095    3764.7844    -46972.88    211.23417   0.98366482 
   17300    275.93848   -1322.1948    140180.68   -43137.252    3789.3505   -46926.603    212.51635   0.98334892 
   17400    270.13344   -1096.8537    140234.59   -43184.319    3709.6323   -46893.951    214.17621   0.98297088 
   17500    269.00202   -1142.0422    140334.87   -43156.238    3694.0949   -46850.333    215.49128   0.98226843 
   17600    269.44282   -1009.2673    140580.41   -43190.696    3700.1483   -46890.844    217.21759   0.98055282 
   17700    272.49347   -818.75004     140559.3   -43203.457    3742.0416   -46945.499    218.51384   0.98070009 
   17800    270.74059   -876.00477    140875.78   -43180.289      3717.97   -46898.259    219.77948   0.97849693 
   17900    273.32768    -1078.192    140965.72   -43240.846    3753.4975   -46994.344    220.79702    0.9778726 
   18000    267.44264   -1117.6441     141249.6   -43317.725    3672.6806   -46990.405    222.06338    0.9759073 
   18100    268.85526   -941.57874    141073.45   -43348.384    3692.0795   -47040.464    222.82878   0.97712585 
   18200    274.73411    -1132.364     141192.2   -43241.617    3772.8113   -47014.428    223.92416   0.97630408 
   18300    271.02695   -1023.3932    140990.45   -43279.745    3721.9026   -47001.647    224.53207   0.97770111 
   18400    266.46188   -956.96527    140771.82   -43345.988    3659.2123   -47005.201    226.04717   0.97921953 
   18500    269.04967   -1113.3512    140818.44   -43277.064    3694.7493   -46971.813     227.3742   0.97889534 
   18600    271.07071   -1179.4107    140739.97   -43266.871    3722.5034   -46989.375    228.21386   0.97944113 
   18700    273.08164   -843.96808    140965.93   -43196.882    3750.1188   -46947.001    230.27716   0.97787113 
   18800    277.25989   -1132.6652    141055.42   -43170.503    3807.4969       -46978    231.23042   0.97725076 
   18900    272.54175   -1021.5596    140818.07    -43242.32    3742.7047   -46985.025    232.21605   0.97889794 
   19000    274.82817   -1052.7133    140729.16   -43268.008    3774.1031   -47042.111    232.89629   0.97951635 
   19100    272.81868   -1192.8713    140650.42   -43302.534    3746.5076   -47049.041    234.11078   0.98006474 
   19200    266.01852   -807.29674    140709.61   -43260.271    3653.1238   -46913.394    235.43028    0.9796525 
   19300    275.69225   -1221.6205    140889.84   -43240.583    3785.9691   -47026.552    236.89105   0.97839924 
   19400    268.38785   -941.77773    141065.26    -43264.27    3685.6609   -46949.931    239.28825    0.9771826 
   19500    277.43293   -1206.5053    141209.99   -43192.315    3809.8732   -47002.188    241.24322   0.97618104 
   19600    272.14024   -883.51835    141137.58   -43206.372    3737.1909   -46943.563    242.73427   0.97668188 
   19700     276.1044   -1120.3156    141322.67   -43220.381     3791.629    -47012.01    244.43087   0.97540269 
   19800     272.0664   -942.44377    140952.03   -43184.429    3736.1769   -46920.606    244.69079    0.9779676 
   19900    270.31206   -1076.8094    141287.65   -43187.093    3712.0851   -46899.179    246.28059    0.9756445 
   20000    273.06237   -1065.9865    141315.85   -43153.473    3749.8542   -46903.328     246.9905    0.9754498 
   20100    272.60716   -977.88056    140971.97   -43218.876    3743.6028   -46962.479    247.88629   0.97782928 
   20200    274.28752   -879.38634    140801.67   -43157.513    3766.6786   -46924.192    248.98285   0.97901192 
   20300    276.66858   -1181.5807    141154.61   -43116.645    3799.3767   -46916.022    250.92189   0.97656403 
   20400    274.55199   -1098.6015    140892.49   -43184.272    3770.3104   -46954.583    252.16086   0.97838089 
   20500    277.18752    -951.3976    140918.52   -43119.632     3806.503   -46926.136    253.48075   0.97820017 
   20600     274.7702   -1067.1743    140948.48   -43164.212     3773.307   -46937.519    254.86849   0.97799221 
   20700    272.99782   -862.43779    140970.29   -43202.711    3748.9676   -46951.679    256.42897   0.97784092 
   20800    274.52933   -1111.0387     140866.9   -43210.954    3769.9992   -46980.953    258.19137   0.97855859 
   20900    274.01644   -1204.1833     140789.7   -43233.648     3762.956   -46996.604    259.45544   0.97909516 
   21000    271.29835   -890.85678    140867.41   -43163.924    3725.6296   -46889.554    261.25834   0.97855505 
   21100     272.8441   -886.97209    140884.47   -43220.524    3746.8567   -46967.381    262.84645   0.97843657 
   21200    270.12843   -873.82394    140855.26   -43314.601    3709.5635   -47024.164    263.41919   0.97863944 
   21300    268.39468   -1032.1642    140753.22   -43344.066    3685.7546    -47029.82    264.99443   0.97934896 
   21400    273.74023   -976.33909    140647.48   -43291.231    3759.1629   -47050.394    265.97303   0.98008523 
   21500    273.90931     -955.342    140871.36    -43152.57    3761.4847   -46914.055    267.42389   0.97852759 
   21600    276.31359   -837.27368    140783.82    -43239.48    3794.5017   -47033.981     268.9412   0.97913611 
   21700    271.98802   -915.16165    140842.99   -43230.443    3735.1004   -46965.543    270.14783   0.97872474 
   21800    276.02028   -944.69371    140748.82   -43196.308    3790.4739   -46986.782    271.82515   0.97937952 
   21900    270.81678   -1122.0652    140655.83   -43194.178    3719.0163   -46913.194     273.2643   0.98002702 
   22000    276.21296   -1113.7704    140721.77   -43216.446    3793.1199   -47009.566    274.57309   0.97956783 
   22100    276.19468   -1043.0916    140609.54   -43203.554    3792.8689   -46996.423    276.38959   0.98034966 
   22200    274.84171    -1176.468    140864.44   -43172.332    3774.2891   -46946.621    278.20557   0.97857568 
   22300    273.06172   -969.22178    140520.56   -43193.109    3749.8452   -46942.954    279.31136   0.98097043 
   22400    271.35275   -1072.8548    140602.68   -43317.397    3726.3766   -47043.773    280.82887   0.98039747 
   22500    272.52218   -978.19607    140512.02   -43270.114    3742.4359    -47012.55    282.35162   0.98103006 
   22600    272.67813   -1005.6173    140464.86   -43269.237    3744.5774   -47013.814    283.25181   0.98135948 
   22700    270.87421   -981.75818    140441.04     -43282.8     3719.805   -47002.605    284.26676    0.9815259 
   22800    269.95216   -904.75994    140398.89   -43334.377    3707.1429    -47041.52    285.03874   0.98182054 
   22900    268.90381   -1108.9807    140331.97   -43386.524    3692.7463    -47079.27    286.13908   0.98228876 
   23000    272.37889   -976.47977    140527.88   -43263.284    3740.4681   -47003.753    287.44476   0.98091936 
   23100    272.50535    -1039.092     140513.5   -43244.655    3742.2047    -46986.86    288.59641   0.98101971 
   23200     276.4108   -1127.6492    140554.27   -43253.979    3795.8367   -47049.815     290.8268   0.98073518 
   23300    269.86842   -1062.9252    140667.25   -43279.898    3705.9929   -46985.891     292.4922   0.97994747 
   23400    267.66967   -869.51916    140693.67   -43307.775    3675.7983   -46983.574    294.43173   0.97976349 
   23500    268.57603   -1117.1944    140928.78   -43237.693     3688.245   -46925.938    296.20513   0.97812892 
   23600    263.61124   -1108.5451    140773.75   -43280.632    3620.0656   -46900.697    296.96124   0.97920613 
   23700    270.97152   -1061.8622     140819.4   -43299.163    3721.1412   -47020.304    298.46642    0.9788887 
   23800    268.88317   -1055.8854    140678.84   -43272.767    3692.4628    -46965.23    298.57649   0.97986674 
   23900    271.31884   -913.31624    140689.03   -43197.737     3725.911   -46923.648    300.01703   0.97979577 
   24000     275.6083   -1175.9759    140598.18   -43128.545    3784.8164   -46913.361    300.39857   0.98042886 
   24100    270.98392   -1128.9854    140281.88   -43140.936    3721.3116   -46862.247    301.42187   0.98263953 
   24200    272.87843   -1195.0113    140439.39   -43058.403    3747.3281   -46805.731    302.31661   0.98153745 
   24300    276.47998   -951.33231    140447.18   -43118.906    3796.7868   -46915.693    303.84399   0.98148299 
   24400    272.73688    -914.2096    140715.28   -43071.589    3745.3843   -46816.974    306.42796   0.97961303 
   24500    272.56402   -828.91546    140797.33    -43141.19    3743.0104     -46884.2    307.74364   0.97904213 
   24600    269.63368   -1038.9401    140705.04   -43214.189    3702.7693   -46916.958    309.05942   0.97968426 
   24700    271.16058   -1138.5584    140815.45   -43143.654    3723.7375   -46867.392    311.01918   0.97891612 
   24800    278.92245   -981.36465    140710.79   -43125.763    3830.3282   -46956.091    311.94367   0.97964423 
   24900    271.94482   -1027.3299    140837.93   -43249.214    3734.5073   -46983.721     313.1873    0.9787599 
   25000    272.74153   -959.09957    140932.34   -43287.598    3745.4481   -47033.046    314.46158    0.9781042 
   25100    269.12617   -984.16746    140881.44   -43256.719    3695.7999   -46952.519    315.25507   0.97845761 
   25200    271.78753    -1176.799    140704.24   -43327.651    3732.3473   -47059.998    316.37678   0.97968986 
   25300      268.286   -967.31477    140518.93   -43322.444    3684.2622   -47006.706    316.97485   0.98098183 
   25400    275.63842   -845.54666    140538.23   -43319.297    3785.2299   -47104.527    318.00632   0.98084711 
   25500    266.34931   -807.18028    140720.86   -43300.661    3657.6663   -46958.327    319.32569   0.97957418 
   25600    269.41855   -837.84637    141034.84   -43321.788     3699.815   -47021.603    321.02274   0.97739337 
   25700     267.9703   -1002.8124    140823.28   -43331.717    3679.9268   -47011.643    321.85427   0.97886173 
   25800    266.32463   -954.85875    140797.36   -43344.995    3657.3274   -47002.322    322.76191   0.97904191 
   25900    262.12022   -1013.3214    140557.01   -43440.747    3599.5901   -47040.337    323.49808   0.98071607 
   26000    268.73593   -828.95141    140805.61   -43273.157    3690.4408   -46963.597    324.73255   0.97898454 
   26100    268.55756   -969.17133    140645.84   -43322.495    3687.9914   -47010.486    325.96981   0.98009662 
   26200     270.8627   -911.32062    140634.02   -43238.997    3719.6469   -46958.644    327.40673     0.980179 
   26300    276.75527   -1129.5242    140797.66   -43194.663    3800.5672   -46995.231    329.43165   0.97903982 
   26400    277.03282   -933.84505    140927.98   -43260.987    3804.3787   -47065.365    330.45674   0.97813448 
   26500    280.34751   -1251.3309    140840.71   -43161.989     3849.898   -47011.887    331.78505   0.97874057 
   26600    275.76314   -1152.8629    140668.98   -43194.938    3786.9427    -46981.88     333.1878   0.97993544 
   26700    272.60867   -931.54111    140324.82    -43222.54    3743.6236   -46966.164    334.39546   0.98233883 
   26800    276.23272   -1106.6177    140369.88   -43208.823    3793.3913   -47002.215    335.08966   0.98202348 
   26900    270.59118   -912.03454    140535.96   -43287.697    3715.9183   -47003.615    336.39288   0.98086298 
   27000    264.64796    -1005.585    140721.55   -43329.817    3634.3024   -46964.119    337.07561   0.97956935 
   27100    270.15467   -875.11719    140464.28   -43275.258    3709.9239   -46985.182    337.50077   0.98136348 
   27200    274.95404   -1188.6584    140672.81   -43219.035    3775.8316   -46994.867    338.41218   0.97990875 
   27300      271.548   -777.46152    140582.74   -43175.601    3729.0578   -46904.659    338.96439   0.98053659 
   27400    269.87783   -998.94337    140596.31   -43136.255    3706.1222   -46842.377     339.9077   0.98044191 
   27500    274.26461   -884.79901     140659.3   -43204.879    3766.3639   -46971.243    340.89532   0.98000289 
   27600    274.50134   -854.46182    140842.66   -43150.574    3769.6149   -46920.189    341.91191   0.97872705 
   27700    272.56039   -1052.2133     140821.4   -43196.116    3742.9607   -46939.077     342.3555   0.97887479 
   27800    277.26991   -1108.4817    140901.62   -43150.959    3807.6345   -46958.593     343.7138   0.97831747 
   27900    278.10006   -890.33298    140826.25   -43178.105    3819.0346   -46997.139    344.13894   0.97884104 
   28000     277.4008   -1006.6356    140784.81   -43094.754     3809.432   -46904.186    345.57754   0.97912919 
   28100    276.45295   -965.10927    140765.84   -43150.805    3796.4156    -46947.22     346.4009   0.97926117 
   28200    269.19841   -1115.7122    140697.14   -43257.632    3696.7919   -46954.424    347.58267   0.97973932 
   28300     268.6636   -857.84687    140658.29   -43313.615    3689.4475   -47003.063     348.4452   0.98000992 
   28400    274.29718   -941.33313    140943.04   -43189.712    3766.8112   -46956.524    350.35751   0.97802995 
   28500    274.84528   -985.28761    140906.18    -43175.97    3774.3381   -46950.309    351.30962   0.97828581 
   28600    271.83821    -1186.619    140698.21   -43272.156    3733.0432   -47005.199    352.10592   0.97973182 
   28700    273.14809   -882.43256    140545.47   -43343.862    3751.0312   -47094.894    352.82338   0.98079658 
   28800    272.38427   -757.14719    140564.94   -43301.189    3740.5421   -47041.732    354.58685   0.98066076 
   28900    270.22795   -1029.9246    140694.19   -43279.753    3710.9302   -46990.683    355.51261   0.97975986 
   29000    270.49038   -832.03603    140853.75   -43246.044    3714.5339   -46960.578    357.18443   0.97864993 
   29100    275.10076   -1145.7445    140877.16   -43228.143    3777.8465    -47005.99    358.11291   0.97848731 
   29200    269.47952   -921.24393    140730.32   -43313.014    3700.6523   -47013.667    358.74945   0.97950833 
   29300    265.61454   -751.91389    140919.03   -43285.726    3647.5761   -46933.302    360.07193   0.97819659 
   29400    272.41963   -1055.3239    140979.35   -43265.082    3741.0276   -47006.109    361.06282   0.97777808 
   29500    272.06998   -1114.4426    141012.41   -43266.301     3736.226   -47002.527    362.29873   0.97754881 
   29600    274.09527   -973.31286    140828.87   -43217.113    3764.0385   -46981.151    363.52631   0.97882286 
   29700    275.48764   -966.14175    140903.88   -43183.123    3783.1593   -46966.283    365.00634   0.97830181 
   29800    278.02748   -778.15778    140722.15    -43183.86    3818.0379   -47001.897    366.31369   0.97956514 
   29900    273.72055   -995.80503    140740.34   -43121.042    3758.8926   -46879.934    367.88781   0.97943857 
   30000    271.05237   -875.14909    140913.94   -43155.517    3722.2515   -46877.769    369.52003   0.97823195 
   30100    276.68148   -1083.0237    140586.38   -43145.934    3799.5538   -46945.487    369.77461   0.98051118 
   30200    269.09532   -795.22311    140639.74     -43201.9    3695.3762   -46897.276    371.30841   0.98013914 
   30300    275.89242   -1033.9624    140687.05   -43120.114     3788.718   -46908.832    372.46763   0.97980958 
   30400    269.40393   -1034.9073    140603.62   -43226.221    3699.6142   -46925.835    373.34713   0.98039092 
   30500    269.92349   -1102.7463    140532.86   -43239.531    3706.7492    -46946.28    374.55837   0.98088459 
   30600    272.19853   -834.94476    140225.62   -43234.516    3737.9913   -46972.508    375.94819   0.98303372 
   30700    267.52174   -946.26075    140204.43   -43259.338    3673.7669   -46933.105    377.27152   0.98318234 
   30800    275.26532   -1051.4657    140194.71   -43234.939    3780.1063   -47015.046    378.99966   0.98325049 
   30900    274.54106   -1054.9953    140370.32   -43233.705    3770.1604   -47003.865    380.60819   0.98202037 
   31000    275.37983   -1189.1037    140541.01   -43169.509    3781.6788   -46951.188    381.61529   0.98082772 
   31100    268.81853   -1050.3541    140563.88   -43323.279    3691.5751   -47014.855    383.12309    0.9806681 
   31200    271.97437   -909.41054    140461.65   -43371.414    3734.9131   -47106.327    384.29567   0.98138185 
   31300    271.44811   -1004.2487    140633.47   -43235.797    3727.6861   -46963.483    385.60351   0.98018288 
   31400    267.23846   -921.69284    140358.03   -43334.694    3669.8767    -47004.57    386.31732   0.98210636 
   31500    274.56522   -949.34781    140442.54   -43239.801    3770.4921   -47010.293    388.14375   0.98151541 
   31600    274.59017   -1093.3402    140716.35   -43216.868    3770.8348   -46987.703    390.09404   0.97960552 
   31700    273.58524   -863.06903    140773.04   -43238.557    3757.0344   -46995.592    392.08949   0.97921108 
   31800    276.20876   -888.58712    141042.61    -43193.84    3793.0621   -46986.902    394.06509   0.97733949 
   31900    272.21613   -836.64249    141019.83   -43189.221     3738.233   -46927.454    395.60215   0.97749742 
   32000    271.87199   -1028.9192    140867.88   -43133.581     3733.507   -46867.089    397.29938   0.97855178 
   32100    273.37339   -1003.4566    140637.29   -43212.808    3754.1252   -46966.933    398.93378   0.98015624 
   32200      272.473   -1256.7043    140949.78   -43175.427    3741.7605   -46917.187    401.04559    0.9779832 
   32300    274.20118   -1085.9017     140796.8   -43208.913    3765.4929   -46974.406    402.26851   0.97904578 
   32400    277.91882   -1060.0639    141168.95    -43122.15    3816.5458   -46938.696    403.79552   0.97646485 
   32500    275.28359   -813.21431    141183.78   -43236.375    3780.3572   -47016.732    405.97419    0.9763623 
   32600    270.98227   -958.85393    141252.61    -43279.51     3721.289   -47000.799     408.0333   0.97588653 
   32700     273.6418   -1213.6527    141122.75   -43245.877    3757.8112   -47003.688    409.29075   0.97678455 
   32800    270.80092   -940.42206    140823.88   -43287.337    3718.7985   -47006.136    409.44811   0.97885756 
   32900    263.99636   -986.78647     141020.7   -43365.745    3625.3543     -46991.1    411.28277   0.97749136 
   33000    267.87652   -963.77317    140805.44   -43340.562    3678.6389   -47019.201    411.36889   0.97898573 
   33100    271.18682   -828.32951    140920.19    -43383.05    3724.0979   -47107.148    412.71719   0.97818853 
   33200    275.22146   -1131.9983    140855.24    -43325.55     3779.504   -47105.054    414.06791   0.97863961 
   33300    274.02647   -1027.1386    140773.73   -43279.304    3763.0936   -47042.397     414.7135   0.97920623 
   33400    268.48697   -1079.7878    140616.63   -43279.796     3687.022   -46966.818    416.24759   0.98030023 
   33500    272.76916   -1046.8595    140738.09   -43181.383    3745.8276   -46927.211    418.07906   0.97945423 
   33600    273.68432   -1239.0752     140599.4   -43208.198    3758.3951   -46966.593    419.37575   0.98042034 
   33700    273.60444    -841.6905    140796.29   -43206.883    3757.2981   -46964.182    421.09981   0.97904933 
   33800    272.84034   -708.73529    140855.41   -43170.066    3746.8051   -46916.871    422.15524   0.97863842 
   33900     268.2532   -1125.0705    140965.23   -43188.385    3683.8117   -46872.196    423.20032     0.977876 
   34000    265.85552   -873.15694    140826.48   -43176.717    3650.8854   -46827.602    424.45955   0.97883945 
   34100     271.6862   -1038.8579    140923.15   -43262.672    3730.9557   -46993.627    426.83048   0.97816803 
   34200    270.28405    -882.3766    140936.02   -43243.395    3711.7005   -46955.095    427.63877   0.97807866 
   34300    276.53188   -921.88496    140733.17   -43213.021    3797.4994   -47010.521    428.04882   0.97948848 
   34400    271.98799   -1042.6347    140856.96   -43092.043       3735.1   -46827.143    428.88984   0.97862763 
   34500     277.4216   -1150.2547    141121.12   -43049.569    3809.7177   -46859.287    431.33759   0.97679581 
   34600    275.98805    -1118.272    140895.31   -43083.527    3790.0313   -46873.559    432.40557   0.97836131 
   34700    272.00751   -1061.3166    140736.17   -43201.322    3735.3681    -46936.69    432.77944   0.97946759 
   34800     267.3098   -988.22663    140957.37   -43233.015    3670.8564   -46903.871    434.74529   0.97793055 
   34900    271.25719   -905.20802     140881.3   -43227.955    3725.0643   -46953.019    435.31469    0.9784586 
   35000    269.19368     -1022.26    140845.94   -43240.594    3696.7269   -46937.321    436.23352    0.9787042 
   35100    273.63224   -967.03292    140807.47   -43220.166    3757.6798   -46977.846    437.60283   0.97897161 
   35200    276.93958   -1080.6841    140880.83   -43070.666    3803.0983   -46873.764    439.36211   0.97846187 
   35300    270.15853   -905.12703    140666.01   -43137.876    3709.9768   -46847.853    440.62488   0.97995614 
   35400    276.63854   -983.79579    140717.94   -43257.178    3798.9641   -47056.142    442.46817   0.97959449 
   35500    268.47751   -927.11364    140825.25   -43266.589    3686.8921   -46953.481    443.26327   0.97884799 
   35600    269.67785   -894.64619    140481.29   -43273.766    3703.3759   -46977.141    442.81827   0.98124469 
   35700    273.26329   -859.51549    140667.76   -43207.136    3752.6132   -46959.749    444.76381   0.97994392 
   35800    271.06468   -1167.1225    140527.86   -43231.921    3722.4206   -46954.341    445.44721   0.98091949 
   35900    275.55908   -875.89453    140869.38   -43180.985    3784.1404   -46965.126    447.73284   0.97854138 
   36000    271.93519   -1039.7297    140629.11   -43193.885     3734.375    -46928.26    448.80446   0.98021324 
   36100    272.92298   -951.18895    140590.21   -43234.115    3747.9399   -46982.055    449.55251    0.9804845 
   36200     272.2688   -823.23792    140689.41   -43186.947    3738.9563   -46925.904     450.7628    0.9797931 
   36300    273.28994   -1010.6124    140910.59   -43189.272    3752.9793   -46942.251    453.00939   0.97825521 
   36400    274.73532   -1033.5162    140847.69   -43149.813    3772.8281   -46922.641    454.38405   0.97869205 
   36500    280.78622   -1042.8814    140913.58   -43083.385    3855.9226   -46939.308    455.60656   0.97823445 
   36600    275.35128   -1085.2559    140666.49   -43215.508    3781.2867   -46996.795    456.36852   0.97995277 
   36700    273.11096   -828.91105    140707.93   -43250.702    3750.5213   -47001.224    457.87057   0.97966419 
   36800    270.11582   -1069.7232    140635.68   -43327.357    3709.3903   -47036.747    459.06426   0.98016746 
   36900    267.67481   -966.87815    140780.05   -43375.809     3675.869   -47051.678    460.28991   0.97916227 
   37000    274.18244   -969.29723    140865.56   -43309.569    3765.2355   -47074.805    461.32136   0.97856794 
   37100    266.59883   -1076.3508    140646.84    -43336.74    3661.0929   -46997.833    462.48889   0.98008967 
   37200    267.36863   -1073.2135    140448.75   -43316.778    3671.6643   -46988.442    464.26687   0.98147201 
   37300    272.73544   -977.79975    140488.23    -43266.36    3745.3645   -47011.724    464.51581   0.98119621 
   37400    265.85649   -1001.7313    140496.18   -43334.817    3650.8986   -46985.715    465.11404   0.98114065 
   37500    271.87656   -904.46003    140724.14    -43355.04    3733.5699    -47088.61    466.45716   0.97955129 
   37600    272.45445   -914.76232    140837.44   -43329.041    3741.5058   -47070.547    468.30245   0.97876327 
   37700    270.53505    -1155.281    140920.53   -43345.063    3715.1475   -47060.211    469.51546   0.97818621 
   37800    266.78842   -1003.7426    140909.03   -43357.002    3663.6964   -47020.699    470.65416   0.97826604 
   37900    268.39046    -892.2273    140867.09    -43358.34    3685.6967   -47044.037     471.8989   0.97855727 
   38000    269.57033   -1126.5413    140881.47   -43310.501    3701.8993     -47012.4    472.34765   0.97845738 
   38100    270.02118    -1029.717    140808.19    -43313.03    3708.0906   -47021.121    474.69883   0.97896662 
   38200    264.74671   -1042.3505     140821.3   -43350.474    3635.6585   -46986.133    475.48784   0.97887546 
   38300     268.8601   -930.32367    140819.69   -43390.153     3692.146   -47082.299    477.07878   0.97888668 
   38400    267.62868   -1073.1591    140630.22    -43416.95    3675.2354   -47092.186    477.79024    0.9802055 
   38500     267.9766   -983.61348    140786.26   -43455.755    3680.0133   -47135.769    480.01874   0.97911913 
   38600    269.23945   -802.27124    140897.39    -43293.49    3697.3555   -46990.845    481.44802   0.97834685 
   38700    272.27454    -1020.692    140974.38   -43256.747    3739.0351   -46995.783    483.19074   0.97781255 
   38800    275.23873   -1026.2773    140830.47   -43172.249    3779.7411    -46951.99    483.59363   0.97881173 
   38900    276.08667   -1072.5045    140909.08   -43160.314    3791.3856   -46951.699    484.98749    0.9782657 
   39000    270.66736   -1068.9303    140855.39   -43215.151    3716.9643   -46932.116     487.0095   0.97863854 
   39100    271.96124    -805.4668    141093.34   -43213.109    3734.7328   -46947.842    489.25152   0.97698815 
   39200    272.55066   -959.18919    141006.73   -43220.579     3742.827   -46963.406     490.2194   0.97758823 
   39300     270.2382    -819.5739    140993.27   -43177.378    3711.0709   -46888.449    492.04721   0.97768154 
   39400    267.53171    -1044.911    140908.62   -43219.265    3673.9038   -46893.169    494.11828   0.97826889 
   39500    267.28332   -1032.4419     140857.3   -43156.856    3670.4928   -46827.349    495.51571   0.97862528 
   39600    275.22405   -943.44052       140897    -43127.76    3779.5395   -46907.299    496.38466   0.97834955 
   39700    272.27787   -791.50234    140984.08   -43180.902    3739.0808   -46919.983    498.26684   0.97774525 
   39800    274.14798   -1060.8373     140893.4   -43202.942    3764.7623   -46967.704    499.26797   0.97837457 
   39900    268.94049   -1219.9165    140741.82   -43332.862      3693.25   -47026.112     500.2836   0.97942823 
   40000    273.03637   -1057.0788    140728.89   -43306.815    3749.4971   -47056.312    500.83084   0.97951827 
   40100    267.05771   -911.93987    140723.62   -43290.284    3667.3945   -46957.679    502.32215   0.97955492 
   40200    270.41588   -1085.4718    140599.71   -43255.946    3713.5109   -46969.456    503.39159   0.98041823 
   40300    273.72458   -981.25436    140331.83   -43215.939    3758.9479   -46974.886    504.13728   0.98228971 
   40400    272.83256    -752.4554    140662.35   -43226.245    3746.6982   -46972.943    506.16481   0.97998159 
   40500    273.67782   -1028.7243    140801.23   -43232.997    3758.3058   -46991.302    508.84845   0.97901498 
   40600    273.17275   -848.25473    140862.19   -43195.686    3751.3698   -46947.056    510.27104   0.97859131 
   40700    267.98029   -923.31779    140545.42   -43253.873    3680.0639   -46933.937    510.15441    0.9807969 
   40800    269.74563   -813.11601    140981.35   -43251.147    3704.3066   -46955.454    512.77197   0.97776422 
   40900    268.34567    -950.6029    140984.74   -43258.612    3685.0815   -46943.694     514.6647   0.97774071 
   41000    267.14707   -976.61762    141066.26   -43276.097    3668.6216   -46944.718    516.41276   0.97717563 
   41100    265.12061    -877.7047    140950.37   -43295.096    3640.7931   -46935.889    518.17899   0.97797912 
   41200    272.12507   -895.87221    140987.87   -43115.184    3736.9826   -46852.167    519.24593   0.97771898 
   41300    267.09187   -1141.2166     141059.3   -43201.231    3667.8636   -46869.094    520.86741   0.97722385 
   41400    271.66371   -1099.0158    140715.65   -43214.528    3730.6469   -46945.175     521.0758   0.97961043 
   41500    267.34785    -1054.724    140944.05   -43255.254    3671.3789   -46926.632    522.37328   0.97802296 
   41600      275.184    -861.5033     140983.8    -43172.17    3778.9896    -46951.16     523.5051   0.97774719 
   41700    271.72245   -1048.1596    141032.44   -43320.966    3731.4535    -47052.42    525.96182   0.97740998 
   41800     269.8364   -1015.6509    140760.07    -43246.64    3705.5531   -46952.194    525.81214   0.97930128 
   41900    274.34966   -900.22845    140823.88   -43187.154     3767.532   -46954.686     527.9113   0.97885757 
   42000    274.52177   -1099.3833    140723.12   -43241.113    3769.8954   -47011.008    528.25799   0.97955842 
   42100    270.73686   -950.68862     140851.4   -43227.872    3717.9188    -46945.79    530.04126   0.97866628 
   42200    271.66187   -1097.0661     140817.5   -43197.694    3730.6215   -46928.315    531.39038   0.97890189 
   42300    272.22881   -1120.3036    140627.56   -43271.224    3738.4071   -47009.631    532.01552   0.98022406 
   42400    270.35147   -1032.6414    140761.57   -43289.896    3712.6264   -47002.522    533.47689   0.97929087 
   42500    273.29051   -1131.0045    140800.58   -43274.824     3752.987   -47027.811    534.60023   0.97901955 
   42600    270.10219   -948.53213    140786.56   -43328.303    3709.2032   -47037.506     535.9959   0.97911702 
   42700    270.74179   -1141.9657    140895.48   -43353.702    3717.9866   -47071.689    537.29993   0.97836013 
   42800    267.08894   -1110.3915     141079.2   -43417.916    3667.8234    -47085.74    538.42893   0.97708603 
   42900    271.79999   -908.25053    141302.21   -43378.447    3732.5184   -47110.965    540.72021   0.97554393 
   43000    271.46921    -947.2267    141347.29    -43324.24    3727.9758   -47052.216    542.12479   0.97523282 
   43100    268.37609   -1032.3582    141144.03   -43337.598    3685.4993   -47023.098    543.48725   0.97663724 
   43200    271.27671   -1172.2423    141103.16   -43337.339    3725.3323   -47062.671    545.34932   0.97692012 
   43300    273.15717   -1187.7038    140985.13    -43330.04     3751.156   -47081.196    546.39896   0.97773798 
   43400    268.47925   -1194.0895    140989.43   -43392.587     3686.916   -47079.503    547.65906   0.97770815 
   43500    272.68509   -1032.2743    140675.87    -43334.88     3744.673   -47079.553    547.27691   0.97988744 
   43600    271.80512   -1226.0458    140612.59   -43328.851    3732.5888    -47061.44    548.19561   0.98032843 
   43700     269.0109   -900.82369    140735.99   -43295.048    3694.2169   -46989.265    549.55627   0.97946884 
   43800    277.82821   -949.53185     140688.2   -43253.435    3815.3014   -47068.737    551.61469   0.97980152 
   43900    267.91788    -1063.621    140651.24   -43275.465    3679.2069   -46954.672    552.19929   0.98005903 
   44000     270.7434   -998.22386    140560.56   -43232.231    3718.0087    -46950.24    552.86975    0.9806913 
   44100    279.84392   -889.58822    140739.91   -43174.953    3842.9823   -47017.935    554.22334   0.97944153 
   44200    273.44708   -947.20861    141165.66   -43236.564    3755.1372   -46991.702     556.1409   0.97648757 
   44300     266.1591   -1141.1593    140944.45   -43331.985    3655.0543   -46987.039    555.87346   0.97802018 
   44400    269.82854    -1090.671    140956.98   -43298.631    3705.4452   -47004.077    557.12092   0.97793321 
   44500    265.53383   -1119.9092    140811.27   -43362.772    3646.4678    -47009.24    557.94705   0.97894519 
   44600    266.35366   -1100.2267    140392.85   -43377.286    3657.7261   -47035.012    557.77442   0.98186279 
   44700    268.45228   -975.07799    140289.32   -43431.685    3686.5456    -47118.23    559.34791    0.9825874 
   44800    268.40884    -1030.821    140466.58   -43350.457     3685.949   -47036.406    560.29228   0.98134742 
   44900    269.43755   -944.23522    140364.49     -43316.6    3700.0759   -47016.676     561.6542   0.98206118 
   45000     271.4456   -935.83401     140738.8   -43316.859    3727.6516   -47044.511    563.25837   0.97944931 
   45100    272.80897   -878.40579     140691.7   -43318.622    3746.3742   -47064.996    563.50002   0.97977716 
   45200    272.07622   -1204.4265    140900.21   -43348.743    3736.3117   -47085.055    564.25757   0.97832726 
   45300    271.02761    -916.6586    140586.68   -43377.351    3721.9115   -47099.262     565.2439   0.98050907 
   45400    268.64893   -1173.2923    140332.75   -43416.487    3689.2461   -47105.733    564.49946   0.98228329 
   45500    270.74187   -910.48661    140492.33   -43317.453    3717.9876    -47035.44    566.85267   0.98116755 
   45600    268.09639   -982.95687    140555.77   -43306.992    3681.6583   -46988.651    568.32276   0.98072474 
   45700    272.76702   -832.83445     140593.7   -43316.093    3745.7982   -47061.891    570.64221   0.98046015 
   45800    277.20882   -1103.6856    140696.38   -43211.814    3806.7956   -47018.609    572.25745   0.97974455 
   45900    272.99729   -987.15178    140394.74   -43241.868    3748.9603   -46990.829    571.50213   0.98184961 
   46000    273.74059   -1004.4129    140175.98   -43278.793    3759.1678   -47037.961    572.71029   0.98338186 
   46100    268.46783   -775.04236    140390.39   -43285.973    3686.7592   -46972.733    574.51954   0.98188003 
   46200    269.87356   -892.02781    140612.26   -43264.927    3706.0635    -46970.99    577.54002   0.98033074 
   46300     273.3145    -941.4392    140685.22   -43227.157    3753.3165   -46980.474    578.55788   0.97982232 
   46400     275.4091   -927.38455    140797.65   -43203.591    3782.0807   -46985.672    579.77709    0.9790399 
   46500    269.36332   -865.78555     140921.6   -43216.249    3699.0566   -46915.306    581.79951   0.97817875 
   46600    274.27657   -854.52264    140969.67   -43134.002    3766.5282    -46900.53     583.7682   0.97784518 
   46700    275.80793   -1057.8929    140978.31   -43120.169    3787.5577   -46907.726    585.35482    0.9777853 
   46800     269.8386   -1000.5462     141104.5   -43069.183    3705.5834   -46774.766    587.41367   0.97691083 
   46900      274.671   -961.31412    140711.02   -43084.728    3771.9447   -46856.673    587.07743   0.97964266 
   47000    274.41615   -1050.9534     141061.9   -43167.467    3768.4449   -46935.912     588.7026   0.97720584 
   47100    277.07468   -1199.0812    140954.98   -43165.518    3804.9535   -46970.472    589.04992   0.97794713 
   47200    274.61972   -1125.6154    140735.25   -43201.965    3771.2405   -46973.205    589.49918   0.97947398 
   47300    272.30608   -1074.4828    140685.89   -43204.026    3739.4683   -46943.495    590.86542   0.97981762 
   47400    276.01303   -936.11388    140755.66   -43130.392    3790.3742   -46920.766    591.18298   0.97933197 
   47500    268.61533   -947.84959    141082.39   -43211.269    3688.7847   -46900.053    594.50002   0.97706398 
   47600    277.54107    -965.1871    141218.94    -43165.89    3811.3582   -46977.249    596.18963   0.97611918 
   47700     269.2756   -1114.3314    140905.79   -43230.518     3697.852    -46928.37    596.83023   0.97828849 
   47800     271.7443   -1031.5062    140963.99   -43269.078    3731.7536   -47000.831     598.2382   0.97788462 
   47900    269.54866   -946.77923     141212.1   -43239.441    3701.6017   -46941.043    601.19846   0.97616647 
   48000    273.79982   -1183.7226    141166.04   -43332.239    3759.9812    -47092.22    602.67716   0.97648496 
   48100    265.50454   -1197.7369    141045.43   -43314.217    3646.0655   -46960.282    604.43681   0.97731995 
   48200    271.51451   -829.11404     141269.2   -43264.394     3728.598   -46992.992    606.18006    0.9757719 
   48300    274.88271   -1198.3156    141092.97    -43241.43    3774.8521   -47016.282    607.35366   0.97699066 
   48400    273.14722    -958.7656    141010.17   -43211.273    3751.0193   -46962.293    608.29503   0.97756436 
   48500    271.24563   -1176.9291    141191.97   -43263.028    3724.9055   -46987.933    609.28124   0.97630566 
   48600    270.90542   -1189.5761    140960.64   -43323.497    3720.2336   -47043.731    609.70682   0.97790787 
   48700    269.41528   -1097.7997    141100.16   -43377.348    3699.7701   -47077.118    611.88044   0.97694089 
   48800    268.88293   -787.84828    141237.69    -43381.97    3692.4595    -47074.43    613.18452   0.97598963 
   48900     268.1723   -1123.8745    141178.67   -43340.462    3682.7007   -47023.163    613.27083   0.97639759 
   49000    265.83383   -1027.3744    140908.81   -43347.584    3650.5875   -46998.172    613.73944   0.97826752 
   49100    269.29423   -984.21947    141145.72   -43326.116    3698.1078   -47024.224    615.09234   0.97662554 
   49200    266.72609   -1184.3379    140861.83   -43387.987    3662.8405   -47050.827     615.3128   0.97859381 
   49300    263.06193   -964.93524    140563.14   -43390.705    3612.5222   -47003.227    616.53301   0.98067325 
   49400    273.64026    -875.6532    140779.26    -43292.68    3757.7901    -47050.47    618.31878   0.97916778 
   49500    275.16949   -1080.5811    140686.72   -43269.257    3778.7903   -47048.047     619.1163   0.97981189 
   49600    269.53676   -1054.3642       140565   -43313.388    3701.4383   -47014.826    620.31318   0.98066029 
   49700    273.06571    -1167.977    140638.85   -43280.118    3749.8999   -47030.018    622.12103   0.98014539 
   49800    275.38044   -1017.6097    140702.51   -43223.514    3781.6872   -47005.201     622.5806   0.97970191 
   49900    270.83482    -891.6458    140739.04   -43278.055    3719.2641   -46997.319    622.96431   0.97944761 
   50000    271.28849   -1121.2618    140664.53   -43317.946    3725.4941    -47043.44    624.09668   0.97996641 
   50100    268.42239    -956.1111    140297.16   -43364.744    3686.1351   -47050.879    624.57191    0.9825325 
   50200    270.56128   -888.36126    140382.31   -43328.402    3715.5077    -47043.91    626.14619   0.98193653 
   50300    272.82902   -1075.2779    140604.35   -43303.609    3746.6496   -47050.258    627.89775   0.98038585 
   50400    272.48865   -833.43331    140717.88   -43267.484    3741.9754   -47009.459    629.54681   0.97959492 
   50500    271.59351   -1049.5756    140685.01   -43326.159    3729.6829   -47055.842    630.41473   0.97982378 
   50600    269.83549   -1124.2183    140686.26    -43307.95    3705.5407    -47013.49     632.7874   0.97981508 
   50700    272.76849   -975.17606    140992.78   -43244.762    3745.8184   -46990.581     634.0384   0.97768496 
   50800    268.08771   -975.85996     140934.8   -43196.678    3681.5391   -46878.218    635.15362   0.97808714 
   50900    273.10931   -1021.0031    140813.48   -43190.858    3750.4986   -46941.356    635.85173   0.97892984 
   51000    267.29712   -910.98478    140731.94    -43269.93    3670.6822   -46940.612    637.11253   0.97949702 
   51100    269.90629   -1108.6636    140605.76   -43246.979     3706.513   -46953.492     637.7695   0.98037602 
   51200    271.45445   -903.81771    140718.39   -43188.987    3727.7732    -46916.76    639.12618   0.97959132 
   51300    275.52615   -873.21031     141015.3   -43088.618    3783.6882   -46872.306    640.50899   0.97752877 
   51400    269.02691   -1041.5516    140897.73   -43311.934    3694.4368   -47006.371    641.89184   0.97834445 
   51500    268.59682   -1303.1607    140855.46   -43325.351    3688.5306   -47013.882    643.37422   0.97863809 
   51600     269.2242   -1144.6915    140563.81   -43325.508    3697.1461   -47022.654    643.32752   0.98066862 
   51700    271.12085   -951.09867    140518.82   -43281.826     3723.192   -47005.018    644.04404   0.98098258 
   51800     266.5973   -1147.1351     140829.9   -43343.263    3661.0719   -47004.335    646.20912   0.97881568 
   51900     266.8384   -960.15194    140856.61   -43372.678    3664.3829   -47037.061    647.34231   0.97863012 
   52000    271.75285   -1069.8313    141143.54   -43339.374     3731.871   -47071.245    648.93579   0.97664066 
   52100    267.12026   -1194.3353    140966.81   -43346.234    3668.2535   -47014.488    650.37523   0.97786507 
   52200    269.70712   -961.30554     140916.7   -43384.733    3703.7778   -47088.511    651.27532   0.97821277 
   52300    272.01209   -1049.6496    140608.38   -43303.032    3735.4311   -47038.463    651.89677   0.98035773 
   52400    279.86129   -1037.3137    140726.36   -43209.189    3843.2209    -47052.41    653.48605    0.9795359 
   52500    268.73062   -1059.6862    140712.67   -43257.156    3690.3679   -46947.523    653.80067   0.97963118 
   52600    268.60543   -1101.4723     140648.9   -43308.874    3688.6488   -46997.523    655.48897   0.98007531 
   52700    270.41005   -1177.5309     140679.2   -43300.114    3713.4309   -47013.545    656.87762   0.97986427 
   52800    269.40832   -970.83405    140273.76   -43375.344    3699.6746   -47075.019    657.61186   0.98269637 
   52900    263.00169   -757.64914    140532.88   -43410.419    3611.6948   -47022.113    659.66926   0.98088446 
   53000    262.39432   -947.43072    140646.51   -43449.916    3603.3541    -47053.27    661.64632     0.980092 
   53100    260.01365   -919.62091    140717.99   -43420.014    3570.6613   -46990.675    663.02901    0.9795941 
   53200    271.41662   -1047.5944    140656.83   -43287.187    3727.2536    -47014.44    663.85604   0.98002008 
   53300    271.26462   -1113.9806    140652.93   -43302.741    3725.1664   -47027.908    665.21289   0.98004723 
   53400    268.45979    -900.3418    140513.27   -43226.307    3686.6488   -46912.956    665.79831   0.98102136 
   53500    273.04331   -939.09218    140821.28   -43155.758    3749.5923   -46905.351    667.70175   0.97887562 
   53600    276.06375   -877.41805    140938.53   -43180.313    3791.0708   -46971.384    669.62664    0.9780613 
   53700    268.80093   -894.62642    140896.21   -43142.481    3691.3335   -46833.815    671.37945   0.97835503 
   53800      267.906   -861.67759    140828.51   -43284.942    3679.0438   -46963.986    673.06314   0.97882533 
   53900    271.42698   -1137.5938    141071.37   -43327.847    3727.3959   -47055.243    674.70656   0.97714028 
   54000    269.33634    -912.7689    140961.29   -43265.243     3698.686   -46963.929    675.68118   0.97790336 
   54100    268.94592   -850.13048    141017.04   -43307.926    3693.3246   -47001.251    676.39949   0.97751671 
   54200    271.42743   -1205.9172    141225.86   -43236.468    3727.4022    -46963.87     677.8708   0.97607138 
   54300    275.69688   -1088.3055    141038.48   -43267.849    3786.0328   -47053.882    678.26444   0.97736814 
   54400    270.62049   -1166.6719    141112.99   -43292.579    3716.3208   -47008.899    678.53393   0.97685204 
   54500     273.1706   -884.11378    141081.01   -43327.958    3751.3403   -47079.298    679.02717    0.9770735 
   54600    273.93669   -1028.4995    140881.81   -43307.408    3761.8608   -47069.269    679.90048   0.97845504 
   54700    270.66804   -1033.4965     141008.3   -43314.534    3716.9738   -47031.507    681.17523   0.97757735 
   54800     271.5979   -823.59578    141170.98   -43312.495    3729.7431   -47042.238    683.04289   0.97645082 
   54900    272.72322   -982.86256    141386.71   -43230.879    3745.1967   -46976.076    684.40772   0.97496091 
   55000    272.33343   -1094.4167    141075.02   -43208.438    3739.8439   -46948.282     684.9065   0.97711502 
   55100    274.95355   -1173.8583     140739.9   -43189.131    3775.8249   -46964.956      684.018   0.97944164 
   55200    274.47731   -1035.8125    140402.28   -43248.999    3769.2849   -47018.284     684.5996   0.98179682 
   55300    275.01254   -954.97361    140439.34   -43217.424     3776.635   -46994.059    686.27555   0.98153776 
   55400    265.03553    -931.9255    140418.83   -43217.689    3639.6247   -46857.314    687.00538   0.98168112 
   55500    273.66786   -966.20961     140809.3   -43186.613     3758.169   -46944.782    688.86373   0.97895889 
   55600    275.08242   -847.27989    140745.42   -43182.889    3777.5946   -46960.483    689.39237   0.97940318 
   55700    275.39956   -983.35388    140519.83   -43242.727    3781.9497   -47024.677    689.69764   0.98097555 
   55800     270.4022   -1006.0842    140587.79    -43291.05     3713.323   -47004.373    692.06453   0.98050132 
   55900    270.93472   -905.43243    140756.76   -43344.044    3720.6359    -47064.68    692.89056   0.97932434 
   56000    267.18669   -1052.8261    140738.98   -43418.026    3669.1658   -47087.192    693.85487   0.97944805 
   56100    274.28907   -912.91616    140739.91   -43358.301    3766.6998   -47125.001    694.80661   0.97944158 
   56200    271.96572   -841.11416    140682.44   -43408.756    3734.7942    -47143.55    694.69119   0.97984165 
   56300    271.68725   -1114.1674    140953.18   -43317.174    3730.9701   -47048.144    697.17784   0.97795964 
   56400    268.58927   -1088.1903    140752.02   -43293.863    3688.4268    -46982.29    697.12324   0.97935728 
   56500    275.00361   -1035.1059    140654.36   -43255.792    3776.5124   -47032.305    698.46969   0.98003728 
   56600    270.15701   -1092.3795    140627.28   -43225.697    3709.9559   -46935.652    699.00317   0.98022599 
   56700    272.43225   -938.04177    140493.49   -43221.187    3741.2009   -46962.388    699.50654   0.98115944 
   56800    276.56923   -972.02116    140539.67   -43191.884    3798.0124   -46989.896    700.66513   0.98083706 
   56900    271.71058    -1079.514    140555.83   -43267.913    3731.2905   -46999.204    701.36164    0.9807243 
   57000    269.98905   -967.02865    140523.17   -43345.883    3707.6494   -47053.533    703.24066   0.98095222 
   57100    266.59182   -1034.2442    140721.14   -43375.225    3660.9967   -47036.222    705.38938    0.9795722 
   57200    266.24396    -1025.409    140469.95    -43457.69    3656.2196   -47113.909    705.31598   0.98132386 
   57300    268.25489   -885.47444    140253.53   -43454.988    3683.8349   -47138.823    705.96937   0.98283814 
   57400    269.67216   -1234.3391    140521.25   -43436.513    3703.2977    -47139.81    707.49561    0.9809656 
   57500     272.8546   -796.62129    140772.34    -43381.84    3747.0009    -47128.84    709.99431   0.97921595 
   57600     270.9388   -995.49781    140844.67   -43421.186     3720.692   -47141.878     711.9908   0.97871306 
   57700     266.2429   -893.92719     141093.6   -43418.478    3656.2051   -47074.683    713.73736   0.97698633 
   57800    271.34228   -929.05255    141071.41   -43295.658    3726.2329   -47021.891    715.14214   0.97714002 
   57900    265.73206   -1022.7965    141214.76   -43313.356      3649.19   -46962.546    717.60146   0.97614809 
   58000    272.99771   -1209.3896    140954.38   -43395.597    3748.9661   -47144.563    718.02363   0.97795127 
   58100    266.10562   -997.97194    141125.25    -43313.76    3654.3198    -46968.08     720.6905   0.97676724 
   58200    265.43833   -1031.5777    141148.15   -43362.529    3645.1562   -47007.685    722.44911   0.97660877 
   58300    269.30185   -1087.9872    141103.86   -43401.538    3698.2125    -47099.75    724.36156   0.97691527 
   58400    269.97678   -838.46127    140966.43   -43267.431    3707.4809   -46974.912    725.86349   0.97786771 
   58500    275.78686   -945.09969    141049.13   -43223.743    3787.2684   -47011.011    727.98721   0.97729434 
   58600    272.43693   -1082.4362     141016.4   -43276.059    3741.2651   -47017.324    728.42094   0.97752116 
   58700    276.25786   -865.20664    141044.03   -43221.348    3793.7364   -47015.084      729.249   0.97732971 
   58800    273.34645   -1123.4182    140763.12   -43253.156    3753.7552   -47006.912    729.84731   0.97928003 
   58900    269.97867    -887.9257     140925.8   -43164.157    3707.5069   -46871.664    730.75826   0.97814964 
   59000    273.20713   -903.95511       140940   -43252.881     3751.842   -47004.723    732.20791   0.97805105 
   59100    268.26632   -1106.2186    141011.61   -43259.976    3683.9919   -46943.968    733.42703   0.97755435 
   59200    271.95203   -1126.9965    140851.71   -43242.896    3734.6063   -46977.503    735.00135   0.97866414 
   59300    269.93844   -861.02972    140664.47   -43296.208    3706.9545   -47003.162    736.13878   0.97996684 
   59400    275.20437   -930.22898    140781.54   -43252.329    3779.2693   -47031.599    738.45859    0.9791519 
   59500    272.10019   -891.24498    140996.21   -43249.371    3736.6409   -46986.012    741.64412   0.97766117 
   59600    274.31423   -1034.5649    141140.15   -43169.525    3767.0454   -46936.571    743.54227   0.97666407 
   59700    273.20738   -893.76299    140850.75   -43192.994    3751.8454    -46944.84    744.29782   0.97867079 
   59800    278.93118   -943.26906    140983.73   -43176.353     3830.448   -47006.801    746.92617   0.97774767 
   59900    268.02223   -945.54256    140951.84   -43287.531    3680.6399   -46968.171    748.96504    0.9779689 
   60000    272.85105   -1064.9625    140958.66    -43244.88    3746.9521   -46991.832    750.04459   0.97792158 
   60100    273.23113   -1011.0321     140906.8   -43241.147    3752.1717   -46993.319    751.29321   0.97828152 
   60200    267.30794   -952.13131    140645.62   -43341.091    3670.8308   -47011.922    751.62398   0.98009816 
   60300    270.93003   -894.25254    140615.91   -43302.083    3720.5716   -47022.654    753.10943   0.98030528 
   60400    270.46586   -1168.1197    140608.28   -43265.311    3714.1972   -46979.508    753.84373   0.98035846 
   60500    268.02316   -1043.6415    140318.84   -43369.636    3680.6526   -47050.289    753.46141   0.98238069 
   60600    270.03253   -893.24555    140492.23   -43307.796    3708.2466   -47016.043    755.47113   0.98116826 
   60700    274.06738   -1056.1621     140620.1   -43315.705    3763.6555   -47079.361    757.31187   0.98027608 
   60800     274.5117    -914.3472     141049.6   -43288.853    3769.7571    -47058.61    759.48399    0.9772911 
   60900    274.83267   -1163.2916     140984.2    -43266.13    3774.1649   -47040.295    760.83027   0.97774444 
   61000    276.61576   -979.44823    141265.03   -43210.461    3798.6513   -47009.112    762.83272   0.97580069 
   61100    278.27071   -1098.8493    141534.33    -43153.21    3821.3781   -46974.588    764.59968   0.97394405 
   61200    273.83058   -1176.8171    141206.33    -43198.07    3760.4037   -46958.473    764.07948   0.97620637 
   61300    277.00289   -1076.1782    141048.19   -43186.911    3803.9677   -46990.879    765.43208   0.97730089 
   61400    281.27956   -873.60195    141161.71   -43082.951    3862.6974   -46945.648    766.31722   0.97651492 
   61500    277.74136   -1135.1895    141275.95    -43116.79    3814.1087   -46930.899    767.65286   0.97572529 
   61600     273.5662   -1103.8373    140981.52   -43183.264    3756.7729   -46940.037    768.62089   0.97776301 
   61700    270.13731   -989.21616    141093.06   -43223.739    3709.6855   -46933.425    769.91015   0.97699005 
   61800    267.70598   -1096.3263    140825.63   -43273.521     3676.297   -46949.818    769.57673   0.97884539 
   61900    279.29565   -1052.6817     140674.9   -43176.883    3835.4532   -47012.336    770.57523   0.97989415 
   62000    273.29968   -983.56266    140568.43   -43303.458     3753.113   -47056.571    771.98452   0.98063635 
   62100    273.11776   -831.29536    140790.63   -43293.519    3750.6148   -47044.134    773.39609   0.97908874 
   62200    269.06951   -1027.6216    140815.92   -43314.955    3695.0218   -47009.976    774.82697   0.97891289 
   62300    274.79418   -971.84251    140864.43   -43306.386    3773.6363   -47080.023    776.54529   0.97857579 
   62400    275.09174   -1041.4582    140877.11   -43382.866    3777.7226   -47160.589    777.18357   0.97848766 
   62500    271.16006   -1140.1524    140867.94   -43375.003    3723.7305   -47098.733    778.13282   0.97855136 
   62600    270.79995   -972.90698    140966.22    -43318.63    3718.7852   -47037.415    779.99866   0.97786912 
   62700    269.86035   -1225.4878    140857.25   -43317.869    3705.8821   -47023.751    780.85823   0.97862563 
   62800    271.02842   -1139.7018    140844.57   -43302.884    3721.9227   -47024.807     782.6184   0.97871378 
   62900    271.37849   -992.68847    140866.28   -43265.425    3726.7301   -46992.155    784.30468   0.97856291 
   63000    274.55651   -954.20303    140906.45   -43301.612    3770.3726   -47071.985    785.37247   0.97828392 
   63100    274.22127   -1155.2187    140821.66   -43288.675    3765.7687   -47054.444    786.98528   0.97887299 
   63200    273.16992   -928.03338    140854.65   -43299.599     3751.331    -47050.93    788.95571   0.97864373 
   63300     270.8196   -1007.0701    140861.37   -43372.794    3719.0551   -47091.849    790.54275   0.97859705 
   63400    266.76828   -974.77603    140609.91   -43409.139      3663.42   -47072.559    790.79708   0.98034709 
   63500    268.90614   -979.14562    140784.51   -43280.936    3692.7782   -46973.715    794.09362   0.97913125 
   63600    269.31947   -1179.0329    140479.04   -43267.539    3698.4543   -46965.994    794.12742   0.98126035 
   63700    266.48485   -1156.6701    140326.57   -43308.122    3659.5277    -46967.65    793.50211   0.98232655 
   63800    265.87634   -811.40127    140401.21   -43271.893    3651.1712   -46923.064    794.48946   0.98180433 
   63900    267.53957   -980.01348    140236.91   -43238.358    3674.0117    -46912.37    795.13136   0.98295461 
   64000    266.79318   -769.36766    140391.97   -43338.057    3663.7618   -47001.819    796.81177   0.98186897 
   64100    272.40659   -922.88647     140355.1   -43327.323    3740.8486   -47068.171     797.8298   0.98212691 
   64200    270.93147   -967.07451    140462.08   -43315.045    3720.5913   -47035.637    799.50564   0.98137884 
   64300    269.74965   -1034.7544    140625.01   -43367.456    3704.3619   -47071.818    801.44713    0.9802418 
   64400    267.39688   -716.05791    140977.04   -43357.395    3672.0522   -47029.447    804.21724   0.97779411 
   64500    269.65748   -947.23574    140888.77   -43414.113    3703.0962    -47117.21    804.44153    0.9784067 
   64600    268.85942   -968.21004    141339.14   -43337.377    3692.1367   -47029.514    806.37238   0.97528905 
   64700     263.7493   -913.67757    141260.85   -43270.086    3621.9615   -46892.048    807.30579   0.97582961 
   64800    271.85435    -1060.132    140860.47   -43174.679    3733.2649   -46907.944    807.23436   0.97860326 
   64900    274.28986   -1048.6609    140898.25   -43207.005    3766.7107   -46973.715    808.54052    0.9783409 
   65000    271.29966   -804.52816    140930.23   -43229.541    3725.6475   -46955.188    810.06823   0.97811888 
   65100    267.22732   -1007.8028    140837.28    -43306.92    3669.7237   -46976.644    811.18749   0.97876438 
   65200    270.44077   -1203.7242    140535.46   -43292.795    3713.8527   -47006.648    810.48082   0.98086647 
   65300    268.93106   -944.70789    140403.11   -43334.339    3693.1204    -47027.46    812.28365   0.98179108 
   65400    267.52874    -1225.237    140643.62   -43338.443     3673.863   -47012.306    814.43906   0.98011215 
   65500    271.61907   -957.44694    140380.21   -43246.724    3730.0339   -46976.758     814.6327    0.9819512 
   65600    274.62867   -1199.1048    140332.93   -43199.724    3771.3635   -46971.087    815.49347   0.98228205 
   65700    277.52703     -1194.18    140328.34   -43171.153    3811.1654   -46982.318    816.31357   0.98231417 
   65800    268.29648   -1124.8084     140140.7   -43238.629     3684.406   -46923.035    817.42699   0.98362944 
   65900    273.87457   -791.94141    140370.67   -43214.812    3761.0077    -46975.82    819.43378   0.98201798 
   66000    272.85158   -1089.2663    140667.16   -43216.417    3746.9594   -46963.376    819.99272   0.97994808 
   66100    273.21647   -1180.7763    140687.16   -43221.595    3751.9703   -46973.566    821.29937   0.97980882 
   66200    275.56271   -1021.7619    140649.83   -43154.129    3784.1902    -46938.32    821.63719   0.98006887 
   66300    276.14937   -1075.6476    140663.11   -43153.904    3792.2466   -46946.151     823.0787   0.97997634 
[...]
   84600    268.93904   -1023.8559    140618.46   -43377.876    3693.2301   -47071.106     1048.872   0.98028745 
   84700    267.67747   -1016.2377    140522.89   -43410.173    3675.9054   -47086.079    1050.1072   0.98095421 
   84800    268.58502   -968.99205    140817.28   -43329.565    3688.3685   -47017.934    1052.3285   0.97890344 
   84900    270.10978   -1136.9621    140542.99   -43280.876    3709.3073   -46990.183    1052.2868   0.98081388 
   85000    269.59995   -898.41602    140557.89   -43244.114    3702.3061    -46946.42    1053.3799   0.98070993 
   85100    269.22121   -1066.7954    140580.65   -43242.849     3697.105   -46939.954     1054.363   0.98055116 
   85200    273.02244   -915.91205    140478.12   -43256.705    3749.3057   -47006.011    1055.3639   0.98126683 
   85300    274.70356   -1084.9045    140798.13   -43268.148    3772.3919    -47040.54    1058.1063   0.97903658 
   85400    272.94313   -1061.1935    140759.15   -43240.609    3748.2167   -46988.825    1059.4506   0.97930771 
   85500    269.69445   -885.71918    140922.96   -43272.011    3703.6039   -46975.615     1060.957   0.97816929 
   85600    272.22671   -1089.9631    141013.42   -43251.984    3738.3784   -46990.363    1062.3487   0.97754184 
   85700    270.81135   -1038.2736    140911.18   -43297.974    3718.9418   -47016.916    1062.3389    0.9782511 
   85800    269.36382   -1159.9133       140862   -43306.561    3699.0633   -47005.624    1061.7298   0.97859262 
   85900    269.81701   -998.18139    140653.38   -43344.471    3705.2869   -47049.757    1062.3752   0.98004409 
   86000    272.20367   -951.84655    140539.79   -43347.118     3738.062    -47085.18    1062.9541   0.98083621 
   86100    268.07881   -787.16323    140752.76   -43333.931    3681.4169   -47015.348    1065.5496   0.97935216 
   86200      264.301    -908.5912    140701.89   -43349.498    3629.5378   -46979.035    1066.3566    0.9797062 
   86300     266.7776   -772.74302    140619.06   -43329.604     3663.548   -46993.152    1067.4921   0.98028329 
   86400    271.52427    -693.8237    140625.32   -43259.264     3728.732   -46987.996    1068.9578   0.98023964 
   86500    269.19545   -884.47641    141025.52    -43234.68    3696.7512   -46931.431    1073.0913   0.97745799 
   86600    272.42103   -1147.6087    140986.54   -43249.707    3741.0468   -46990.754    1074.7794   0.97772821 
   86700    269.44579   -897.04109     140684.3   -43265.798    3700.1891   -46965.987    1073.6909   0.97982874 
   86800    278.94208   -946.70113    140922.12   -43223.771    3830.5977   -47054.369    1075.8656   0.97817513 
   86900    271.86146   -1109.4034    141016.45   -43253.578    3733.3625    -46986.94    1078.5007   0.97752079 
   87000    273.40268   -1007.0895    140738.85   -43285.962    3754.5274   -47040.489    1078.8654   0.97944893 
   87100    270.23365   -945.97063     140500.2   -43339.027    3711.0084   -47050.035    1078.9668   0.98111259 
   87200    273.28846   -1106.3043    140694.41    -43353.88    3752.9588   -47106.839    1080.4996   0.97975829 
   87300    270.14741   -827.44393    141032.07   -43191.219    3709.8242   -46901.044    1084.0855   0.97741259 
   87400    274.34622   -1157.3134     140805.5   -43198.118    3767.4847   -46965.603    1083.9319    0.9789853 
   87500     269.2394   -923.24014    141269.28   -43246.906    3697.3548   -46944.261    1088.8467   0.97577138 
   87600    274.02338   -1116.3249    141228.96   -43239.384    3763.0513   -47002.435    1088.8414   0.97604991 
   87700     267.6643   -1011.8245    141169.74   -43246.648    3675.7245   -46922.373    1089.3697   0.97645941 
   87800    271.89744   -967.00309    141115.66   -43132.222    3733.8566   -46866.079    1090.6156   0.97683358 
   87900     275.7639   -1142.4707    141182.12   -43144.367    3786.9531    -46931.32    1091.2687   0.97637376 
   88000    272.13703   -770.66635    141115.54   -43177.306    3737.1468   -46914.453    1091.7847    0.9768344 
   88100    273.65618   -871.66679    141153.81   -43220.797    3758.0087   -46978.806    1094.3523   0.97656958 
   88200    277.99453   -1095.1658    141308.98   -43150.703    3817.5855   -46968.289    1095.8091   0.97549723 
   88300    278.26695    -948.8218    141354.18   -43178.024    3821.3265   -46999.351    1098.0374   0.97518527 
   88400    271.20831   -1060.3741    141223.74   -43253.003    3724.3931   -46977.396    1098.0254   0.97608604 
   88500    270.43549   -949.13031    140950.72   -43323.432    3713.7803   -47037.213    1097.8084   0.97797664 
   88600    272.74474   -831.38658    141262.95   -43310.416    3745.4922   -47055.908    1099.3129    0.9758151 
   88700    267.67531   -1165.8865    141137.98   -43334.876    3675.8758   -47010.752    1100.1011   0.97667911 
   88800    269.71312   -808.66243    141040.63   -43308.514    3703.8601   -47012.374    1099.7981   0.97735327 
   88900    270.19622   -974.22263    141196.76   -43344.834    3710.4944   -47055.329     1101.204   0.97627255 
   89000    267.27987   -1305.1132    141148.77   -43279.847    3670.4454   -46950.293    1101.5179   0.97660446 
   89100    272.49164   -1141.0521    140817.15   -43245.353    3742.0164    -46987.37    1101.5985   0.97890431 
   89200    266.22852   -880.25815    140742.11   -43319.297    3656.0076   -46975.305    1102.7723   0.97942625 
   89300    270.47857   -1043.7752    140765.16   -43318.441    3714.3718   -47032.813    1103.2984   0.97926585 
   89400    274.01131   -858.47939    140879.25   -43222.039    3762.8856   -46984.924    1104.3886   0.97847281 
   89500    267.42236   -1120.9204    141020.98   -43344.039    3672.4021   -47016.441    1106.1432   0.97748941 
   89600    268.56668    -1007.299    140857.47   -43296.676    3688.1167   -46984.793     1106.772   0.97862413 
   89700    268.06505   -1178.4723    140920.79   -43278.693    3681.2279   -46959.921    1108.4446   0.97818441 
   89800    270.77217   -917.19502     140587.2   -43323.902    3718.4037   -47042.305    1108.4038   0.98050543 
   89900    267.22932   -791.09975     140773.4   -43317.785    3669.7512   -46987.536    1111.0957   0.97920853 
   90000    272.19733   -1051.1321    140591.78   -43307.485    3737.9749    -47045.46    1112.1111   0.98047355 
   90100    270.65139   -889.41643     140733.4   -43244.196    3716.7451   -46960.941    1113.8639   0.97948688 
   90200    271.34898   -1036.7216    140800.03   -43370.948    3726.3248   -47097.273    1116.1441   0.97902338 
   90300    264.32584    -879.1439    141127.03   -43383.585    3629.8789   -47013.464    1118.5319   0.97675491 
   90400    271.32169    -1002.713    141154.07   -43269.852    3725.9501   -46995.802    1120.2996   0.97656776 
   90500     272.3652   -1006.8576    141155.56    -43199.91    3740.2801    -46940.19    1122.0149   0.97655747 
   90600    269.96092   -1153.9538    141001.66   -43219.788    3707.2632   -46927.051    1121.4721   0.97762333 
   90700    270.07746   -964.22713     140920.2   -43244.679    3708.8635   -46953.543    1122.4318   0.97818847 
   90800    270.63097   -806.35272    141035.45   -43186.705    3716.4647   -46903.169    1125.1058   0.97738911 
   90900    272.40289   -931.38763    141075.27    -43262.73    3740.7978   -47003.528    1125.5283   0.97711323 
   91000    270.32571   -1092.1272    140921.27   -43282.711    3712.2727   -46994.984    1125.8006   0.97818105 
   91100    272.50675   -925.94777    140773.26    -43260.37     3742.224   -47002.594     1127.264   0.97920949 
   91200    273.41666   -832.09851    140627.34   -43300.139    3754.7195   -47054.858    1127.2211   0.98022557 
   91300     270.0673   -1059.8675     140755.8    -43327.77    3708.7241   -47036.494    1129.0675     0.979331 
   91400    272.78962   -978.22107    140909.29   -43368.171    3746.1086   -47114.279    1130.8883   0.97826422 
   91500    272.00329   -1213.3671     140818.5   -43363.734    3735.3102   -47099.044    1131.6361   0.97889497 
   91600    268.58522    -1080.664     140750.9   -43355.108    3688.3712    -47043.48    1132.3987   0.97936507 
   91700    267.36245   -957.60587    140553.13   -43365.208    3671.5794   -47036.788    1133.6094   0.98074314 
   91800    268.18802    -945.4559    140737.87   -43437.418    3682.9166   -47120.334    1135.7295   0.97945578 
   91900    269.09357   -903.93477    141004.69    -43396.12    3695.3522   -47091.472    1138.8546   0.97760232 
   92000    265.15084   -879.82401    141244.29   -43315.539    3641.2082   -46956.747    1141.4106   0.97594399 
   92100    278.42115   -1123.6636    141410.17   -43265.515    3823.4441   -47088.959    1143.3202   0.97479919 
   92200    275.37076   -1081.1542    141368.65   -43170.608    3781.5542   -46952.162    1144.3148   0.97508546 
   92300    271.35924   -1100.3661    141273.81   -43202.446    3726.4658   -46928.912    1145.7182   0.97574007 
   92400    274.40286   -1058.5667    141247.01   -43238.224    3768.2625   -47006.486    1146.6087   0.97592519 
   92500    276.42545    -889.6705    140999.46   -43200.931     3796.038   -46996.969     1147.328    0.9776386 
   92600    270.71647   -990.10331    141021.52   -43228.606    3717.6388   -46946.245    1147.5187   0.97748569 
   92700    267.17146   -1039.5128    141203.18   -43247.812    3668.9567   -46916.768    1150.7186   0.97622813 
   92800     271.8169   -989.73733    140973.21   -43200.451    3732.7505   -46933.202    1151.2069   0.97782067 
   92900    273.12402   -1072.2787    140922.59   -43238.007    3750.7008   -46988.708    1152.1994    0.9781719 
   93000    272.65737   -975.32448    140943.23   -43159.459    3744.2925   -46903.751    1153.9517   0.97802863 
   93100    272.27155   -1000.7952    140650.71   -43230.918    3738.9941   -46969.912    1152.8304   0.98006269 
   93200    272.22114    -1068.624    140454.35   -43198.901    3738.3018   -46937.203    1152.2586    0.9814329 
   93300    276.45122   -968.78951    140433.03   -43105.625    3796.3918   -46902.016    1153.3669   0.98158189 
   93400    270.51011   -1002.9673    140653.96   -43222.231    3714.8049   -46937.036    1155.5806   0.98004005 
   93500    272.07333   -1057.1941    140226.27   -43274.069    3736.2721   -47010.342    1155.6792   0.98302917 
   93600    269.61219   -871.78576    140512.87   -43304.841    3702.4742   -47007.316    1158.9947   0.98102414 
   93700    276.29504   -1169.6184    140663.17   -43275.772     3794.247   -47070.019    1161.5168   0.97997592 
   93800    277.61881   -912.83779    140583.49   -43193.567    3812.4258   -47005.992    1161.7217   0.98053131 
   93900    267.19385   -979.31563    140532.48   -43306.031    3669.2641   -46975.295    1163.2936   0.98088724 
   94000    271.64918   -769.29917     140449.6   -43314.927    3730.4473   -47045.374    1164.3482    0.9814661 
   94100     272.2914   -903.00511    140596.62    -43393.37    3739.2667   -47132.637    1166.6733   0.98043974 
   94200    268.68343   -1111.5953    140504.12   -43415.987    3689.7199   -47105.707    1167.6944   0.98108524 
   94300    273.12229    -1017.199    140583.62    -43329.54    3750.6769   -47080.217    1169.6504   0.98053042 
   94400    271.83447    -873.1075    140797.55   -43321.239    3732.9919   -47054.231     1172.263   0.97904062 
   94500     272.3755   -1018.4618     140830.7   -43349.409    3740.4216    -47089.83    1174.3048   0.97881015 
   94600    260.59971   -1080.4025    140592.28   -43422.069    3578.7094   -47000.779     1173.702   0.98047005 
   94700     264.7554   -1061.0049     140479.9   -43356.999    3635.7778   -46992.776    1174.9039   0.98125438 
   94800    275.18127    -993.1973    140263.73   -43276.681    3778.9521   -47055.633    1174.8184   0.98276667 
   94900    274.71306   -950.01773       140230   -43216.707    3772.5223   -46989.229      1175.47   0.98300308 
   95000    268.42113   -937.44825    140314.11   -43208.326    3686.1179   -46894.444    1177.7969   0.98241381 
   95100    275.51026   -870.86149     140261.5   -43189.714    3783.4699   -46973.184    1178.3105    0.9827823 
   95200    274.10008   -923.20889    140271.89   -43189.703    3764.1046   -46953.808     1180.527   0.98270949 
   95300    270.90111   -852.25061    140458.23   -43220.404    3720.1744   -46940.579    1182.3198   0.98140574 
   95400    275.29074   -960.38127    140633.42   -43207.234    3780.4553   -46987.689     1185.277   0.98018318 
   95500    270.81661   -868.77697     140491.6    -43230.21     3719.014   -46949.224    1185.8201   0.98117263 
   95600    266.36394   -954.39664    140650.28   -43323.382    3657.8673   -46981.249    1188.3366   0.98006575 
   95700    270.29829   -1121.1461     140644.8   -43243.798    3711.8961   -46955.695    1190.3914   0.98010391 
   95800    268.75166   -1021.6651    140278.25   -43214.036    3690.6568   -46904.693     1189.448   0.98266496 
   95900    274.67792   -1129.9385    140525.38    -43248.57    3772.0398   -47020.609    1192.5134   0.98093679 
   96000    277.53158   -998.41193     140787.2   -43204.892    3811.2279    -47016.12    1196.8193   0.97911258 
   96100    270.23998   -949.49855    140813.07   -43219.981    3711.0953   -46931.076    1197.9983   0.97893271 
   96200    271.19133   -1047.4976    140828.06   -43209.095    3724.1599   -46933.255     1201.264   0.97882847 
   96300    273.04784   -890.09223    140919.32   -43200.775    3749.6546   -46950.429    1203.7941   0.97819462 
   96400    271.11457   -956.56489    140864.85   -43265.903    3723.1058   -46989.008    1206.5087   0.97857286 
   96500    273.74722   -980.81274    140884.82   -43201.549    3759.2588   -46960.808    1208.8637   0.97843416 
   96600     278.8258   -1038.6054     140822.9   -43131.348    3829.0009   -46960.349    1209.9568   0.97886434 
   96700    270.69902   -1175.6969    140771.93   -43136.311    3717.3992    -46853.71    1210.8689    0.9792188 
   96800    272.57624   -967.92205    140902.62   -43103.841    3743.1783    -46847.02    1213.8201    0.9783105 
   96900    273.33029   -1110.1505    140834.46   -43130.867    3753.5333     -46884.4    1215.5251   0.97878403 
   97000    271.99933   -1058.8248    140593.31       -43157    3735.2558   -46892.256    1216.0816   0.98046287 
   97100    273.09623   -875.98064    140623.51   -43141.772    3750.3191   -46892.091     1218.232   0.98025229 
   97200    272.53665   -1006.5891    140779.04   -43135.799    3742.6346   -46878.433    1221.2271   0.97916934 
   97300    272.27885   -998.00622    140944.74   -43166.637    3739.0943   -46905.731    1223.3024   0.97801816 
   97400    271.38253   -844.30062    140956.06   -43189.658    3726.7855   -46916.443    1224.0681    0.9779396 
   97500    267.74047   -1031.1139    140321.89   -43214.286    3676.7706   -46891.057     1221.303    0.9823593 
   97600    277.23291   -889.45289    140404.34   -43206.971    3807.1265   -47014.097    1223.0125   0.98178243 
   97700    273.39491   -994.40097    140319.43   -43291.762    3754.4207   -47046.183    1221.9114   0.98237657 
   97800    271.09091   -1129.4211    140089.18   -43287.081    3722.7809   -47009.862    1221.0787   0.98399118 
   97900    264.59427   -819.78981    140012.04   -43197.966    3633.5651   -46831.531    1221.8772   0.98453328 
   98000    272.62084   -1007.4142    140215.86   -43134.358    3743.7907   -46878.149    1223.5343   0.98310214 
   98100    274.97398   -995.68418    140225.26    -43208.47    3776.1054   -46984.576    1225.5677   0.98303626 
   98200    274.78449   -1039.7511    140113.29   -43154.592    3773.5032   -46928.095    1225.7096   0.98382188 
   98300    270.45807    -962.7863    140170.87   -43096.751    3714.0903   -46810.841    1227.0129   0.98341769 
   98400    274.28506   -833.65506    140498.05   -43101.263    3766.6448   -46867.907     1229.923   0.98112763 
   98500    269.88948   -1072.9932    140662.11   -43189.143     3706.282   -46895.425    1232.7398    0.9799833 
   98600    271.15597   -930.15686    140745.49   -43148.428    3723.6743   -46872.103    1234.7784   0.97940273 
   98700    270.78411   -978.40039     140658.2   -43237.552    3718.5677    -46956.12    1235.2104   0.98001054 
   98800    273.62734   -999.02927    140738.74   -43212.461    3757.6126   -46970.073    1235.9626   0.97944968 
   98900    269.87621   -1198.9577     140500.7   -43217.408    3706.0998   -46923.508    1236.1989   0.98110908 
   99000    269.77835   -982.12127    140483.54   -43129.323     3704.756   -46834.079    1237.8384   0.98122898 
   99100     267.0151   -1050.0953    140331.92   -43192.866    3666.8094   -46859.675     1238.079   0.98228913 
   99200      278.082   -841.37648    140335.47   -43141.427    3818.7866   -46960.214     1239.376   0.98226428 
   99300    270.73942   -915.35853    140609.04   -43189.912     3717.954   -46907.866    1242.4557   0.98035319 
   99400    271.35436   -975.79548    140530.03   -43102.109    3726.3987   -46828.508    1242.7637   0.98090432 
   99500     272.4553   -932.55677    140270.43   -43179.745    3741.5175   -46921.262    1243.1563   0.98271972 
   99600    275.28434   -1033.6768    140297.54   -43220.811    3780.3675   -47001.179    1243.3528   0.98252981 
   99700    272.56731   -887.39384    140402.71   -43202.761    3743.0557   -46945.817    1246.2592   0.98179384 
   99800     272.3082   -974.03598    140503.96   -43248.346    3739.4973   -46987.843    1248.3888   0.98108633 
   99900    272.41348   -1032.0759    140793.91   -43237.567    3740.9432    -46978.51    1250.9881   0.97906594 
  100000    273.24036   -1054.7734    140988.97    -43214.05    3752.2983   -46966.349    1254.3205   0.97771133 
  100100    274.63085   -1011.2565    140937.83    -43198.84    3771.3933   -46970.233    1255.7439    0.9780661 
  100200    275.47902   -921.76906    140967.62   -43225.616     3783.041   -47008.657    1256.4169   0.97785941 
  100300    270.93087   -1063.9616    140889.81   -43242.955    3720.5831   -46963.538    1258.0995   0.97839948 
  100400    273.75492   -1009.3149    140886.47   -43248.046    3759.3645   -47007.411    1258.9201   0.97842266 
  100500     272.3943   -1022.9991    140765.71   -43268.074    3740.6798   -47008.754    1259.5763   0.97926207 
  100600    270.31519   -942.29568    140679.48   -43330.015    3712.1283   -47042.143    1259.3586   0.97986229 
  100680    266.38478   -836.89073    140706.09   -43261.258    3658.1535   -46919.411     1259.938   0.97967696 
Loop time of 175.702 on 6 procs for 100000 steps with 4608 atoms

Performance: 245.871 ns/day, 0.098 hours/ns, 569.146 timesteps/s
99.3% CPU use with 6 MPI tasks x no OpenMP threads

MPI task timing breakdown:
Section |  min time  |  avg time  |  max time  |%varavg| %total
---------------------------------------------------------------
Pair    | 154.66     | 155.81     | 158.43     |  10.2 | 88.68
Neigh   | 7.4806     | 7.6042     | 7.7926     |   4.6 |  4.33
Comm    | 6.677      | 9.5118     | 10.771     |  44.5 |  5.41
Output  | 0.17477    | 0.17555    | 0.17876    |   0.3 |  0.10
Modify  | 1.8533     | 1.9552     | 2.0216     |   4.0 |  1.11
Other   |            | 0.6401     |            |       |  0.36

Nlocal:        768.000 ave         774 max         759 min
Histogram: 1 0 0 0 2 0 1 0 0 2
Nghost:        1673.33 ave        1692 max        1661 min
Histogram: 2 1 0 0 0 1 1 0 0 1
Neighs:        0.00000 ave           0 max           0 min
Histogram: 6 0 0 0 0 0 0 0 0 0
FullNghs:      25279.7 ave       25589 max       24978 min
Histogram: 2 0 0 0 1 0 1 0 1 1

Total # of neighbors = 151678
Ave neighs/atom = 32.916233
Neighbor list builds = 7043
Dangerous builds = 0

undump              1
unfix               2
unfix               3
unfix               4


################################################
#######         Run Simulation         #########
################################################

reset_timestep      0
log                 log.run_${NAME}
log                 log.run_liq_272K_-1000atm_mW
