
# Import phase coexistance setup
#
read_data           data.coexist_${TEMP}K_${PRES}atm_mW
read_data           data.coexist_272K_${PRES}atm_mW
read_data           data.coexist_272K_-1000atm_mW
Reading data file ...
  orthogonal box = (0.3105438 -0.3696579 -0.3696579) to (104.50267 50.650275 50.650275)
  3 by 1 by 2 MPI processor grid
  reading atoms ...
  8513 atoms
  reading velocities ...
  8513 velocities
  read_data CPU = 0.031 seconds

# Define potential
#
pair_style 	    sw
pair_coeff	    * * /data/emrosky-sim/Freezing_Simulations/Melting/mW_fancy/mW.sw mW
Reading sw potential file /data/emrosky-sim/Freezing_Simulations/Melting/mW_fancy/mW.sw with DATE: 2019-02-27

# Reset velocity/set timestep
#
velocity	    all create ${TEMP} 120598 rot yes dist gaussian
velocity	    all create 272 120598 rot yes dist gaussian
timestep	    10.0

# Define output
#
compute	            1 all msd
compute             2 all orientorder/atom nnn NULL degrees 2 4 12
thermo              1000
thermo_style        custom step temp press vol etotal ke pe c_1[4]

# Neighbor lists
#
neigh_modify        delay 0 every 1 check yes

# Set fixes
#
fix                 1 all momentum 10 linear 1 1 1 rescale
fix                 2 all nph iso ${PRES} ${PRES} ${PCOUPL}
fix                 2 all nph iso -1000 ${PRES} ${PCOUPL}
fix                 2 all nph iso -1000 -1000 ${PCOUPL}
fix                 2 all nph iso -1000 -1000 10000.0
fix                 3 all temp/csvr ${TEMP} ${TEMP} ${TCOUPL} 837492
fix                 3 all temp/csvr 272 ${TEMP} ${TCOUPL} 837492
fix                 3 all temp/csvr 272 272 ${TCOUPL} 837492
fix                 3 all temp/csvr 272 272 5000.0 837492

# Run very short equilibration
#
dump		    1 all atom 50 eq.${NAME}.dump
dump		    1 all atom 50 eq.melt_272K_-1000atm_mW.dump
run	            500
Neighbor list info ...
  update every 1 steps, delay 0 steps, check yes
  max neighbors/atom: 2000, page size: 100000
  master list distance cutoff = 6.3065
  ghost atom cutoff = 6.3065
  binsize = 3.15325, bins = 34 17 17
  2 neighbor lists, perpetual/occasional/extra = 1 1 0
  (1) pair sw, perpetual
      attributes: full, newton on
      pair build: full/bin/atomonly
      stencil: full/bin/3d
      bin: standard
  (2) compute orientorder/atom, occasional, copy from (1)
      attributes: full, newton on
      pair build: copy
      stencil: none
      bin: none
Per MPI rank memory allocation (min/avg/max) = 4.601 | 4.603 | 4.605 Mbytes
Step Temp Press Volume TotEng KinEng PotEng c_1[4] 
       0          272   -1066.5715     271215.6    -79604.59    6901.3622   -86505.952            0 
     500    319.83854   -1137.8808    264856.49   -81412.011     8115.153   -89527.164     16.47714 
Loop time of 1.67674 on 6 procs for 500 steps with 8513 atoms

Performance: 257.643 ns/day, 0.093 hours/ns, 298.198 timesteps/s
99.4% CPU use with 6 MPI tasks x no OpenMP threads

MPI task timing breakdown:
Section |  min time  |  avg time  |  max time  |%varavg| %total
---------------------------------------------------------------
Pair    | 0.92146    | 1.1585     | 1.4362     |  19.3 | 69.09
Neigh   | 0.15073    | 0.1602     | 0.16733    |   1.6 |  9.55
Comm    | 0.036193   | 0.32103    | 0.56646    |  37.6 | 19.15
Output  | 0.007841   | 0.0083867  | 0.0089055  |   0.4 |  0.50
Modify  | 0.023145   | 0.023548   | 0.024035   |   0.2 |  1.40
Other   |            | 0.00503    |            |       |  0.30

Nlocal:        1418.83 ave        1434 max        1406 min
Histogram: 1 0 1 0 2 0 1 0 0 1
Nghost:        2206.17 ave        2228 max        2187 min
Histogram: 2 0 1 0 0 1 0 0 0 2
Neighs:        0.00000 ave           0 max           0 min
Histogram: 6 0 0 0 0 0 0 0 0 0
FullNghs:      45235.3 ave       45940 max       44645 min
Histogram: 1 0 1 2 0 0 0 1 0 1

Total # of neighbors = 271412
Ave neighs/atom = 31.882063
Neighbor list builds = 84
Dangerous builds = 0

reset_timestep      0
undump              1
unfix               2
unfix               3


################################################
#######         Run Simulation         #########
################################################

log                 log.run_${NAME}
log                 log.run_melt_272K_-1000atm_mW
