

read_data data.ice_${TEMP}K_${PRES}atm_mW group ice
read_data data.ice_272K_${PRES}atm_mW group ice
read_data data.ice_272K_-1000atm_mW group ice
Reading data file ...
  orthogonal box = (0.35240778 0.31325136 0.31325136) to (56.918102 50.593869 50.593869)
  3 by 1 by 2 MPI processor grid
  reading atoms ...
  4608 atoms
  reading velocities ...
  4608 velocities
  read_data CPU = 0.016 seconds
read_data data.liq_${TEMP}K_${PRES}atm_mW add append shift ${X_HI} ${YZ_LO} ${YZ_LO} group water
read_data data.liq_272K_${PRES}atm_mW add append shift ${X_HI} ${YZ_LO} ${YZ_LO} group water
read_data data.liq_272K_-1000atm_mW add append shift ${X_HI} ${YZ_LO} ${YZ_LO} group water
read_data data.liq_272K_-1000atm_mW add append shift 50.593868639805 ${YZ_LO} ${YZ_LO} group water
read_data data.liq_272K_-1000atm_mW add append shift 50.593868639805 -0.313251360194222 ${YZ_LO} group water
read_data data.liq_272K_-1000atm_mW add append shift 50.593868639805 -0.313251360194222 -0.313251360194222 group water
Reading data file ...
  orthogonal box = (0.35240778 -0.34915829 -0.34915829) to (104.46081 50.629776 50.629776)
  3 by 1 by 2 MPI processor grid
  reading atoms ...
  4608 atoms
  reading velocities ...
  4608 velocities
  read_data CPU = 0.021 seconds

write_data data.icewater_test
System init for write_data ...
WARNING: Communication cutoff is 0.0. No ghost atoms will be generated. Atoms may get lost. (../comm_brick.cpp:167)

# Define potential
#
pair_style sw
pair_coeff * * /data/emrosky-sim/Freezing_Simulations/Melting/mW_fancy/mW.sw mW
Reading sw potential file /data/emrosky-sim/Freezing_Simulations/Melting/mW_fancy/mW.sw with DATE: 2019-02-27

# Delete water and ice atoms that are overlapping
#
delete_atoms overlap 2.5 water ice
System init for delete_atoms ...
Neighbor list info ...
  update every 1 steps, delay 10 steps, check yes
  max neighbors/atom: 2000, page size: 100000
  master list distance cutoff = 6.3065
  ghost atom cutoff = 6.3065
  binsize = 3.15325, bins = 34 17 17
  2 neighbor lists, perpetual/occasional/extra = 1 1 0
  (1) command delete_atoms, occasional, copy from (2)
      attributes: full, newton on
      pair build: copy
      stencil: none
      bin: none
  (2) pair sw, perpetual
      attributes: full, newton on
      pair build: full/bin/atomonly
      stencil: full/bin/3d
      bin: standard
Deleted 703 atoms, new total = 8513

# set timestep
#
timestep 10.0

# Define output
#
compute 1 all msd
thermo 50
thermo_style custom step temp press vol etotal ke pe c_1[4]

# Neighbor lists
#
neigh_modify delay 0 every 1 check yes

# Set fixes
#
fix 1 all momentum 10 linear 1 1 1 rescale
fix 2 all nph iso ${PRES} ${PRES} ${PCOUPL}
fix 2 all nph iso -1000 ${PRES} ${PCOUPL}
fix 2 all nph iso -1000 -1000 ${PCOUPL}
fix 2 all nph iso -1000 -1000 10000.0
fix 3 all temp/csvr ${TEMP} ${TEMP} ${TCOUPL} 837492
fix 3 all temp/csvr 272 ${TEMP} ${TCOUPL} 837492
fix 3 all temp/csvr 272 272 ${TCOUPL} 837492
fix 3 all temp/csvr 272 272 5000.0 837492


# Fix ice atoms in place
#
velocity ice set 0.0 0.0 0.0
fix 4 ice setforce 0.0 0.0 0.0

# Run 1.0 ns equilibration of water
#
dump 1 all atom 1000 eq.all.${NAME}.dump
dump 1 all atom 1000 eq.all.coexist_272K_-1000atm_mW.dump
run 100000
Neighbor list info ...
  update every 1 steps, delay 0 steps, check yes
  max neighbors/atom: 2000, page size: 100000
  master list distance cutoff = 6.3065
  ghost atom cutoff = 6.3065
  binsize = 3.15325, bins = 34 17 17
  1 neighbor lists, perpetual/occasional/extra = 1 0 0
  (1) pair sw, perpetual
      attributes: full, newton on
      pair build: full/bin/atomonly
      stencil: full/bin/3d
      bin: standard
Per MPI rank memory allocation (min/avg/max) = 4.596 | 4.603 | 4.610 Mbytes
Step Temp Press Volume TotEng KinEng PotEng c_1[4] 
       0    125.07495   -2267.3095    270562.29   -86216.542    3173.4836   -89390.026            0 
      50    153.63235   -1725.7468    268268.04   -85979.609    3898.0606    -89877.67   0.93204845 
     100    159.21612   -677.53858    264635.55   -85715.534    4039.7356    -89755.27    2.0826102 
     150    165.96044   -579.85481    263336.23   -85417.263    4210.8571    -89628.12    3.2336947 
     200    166.13418   -779.67654    263769.75   -85206.663    4215.2652   -89421.928    4.3028636 
     250    170.15041   -997.93028    264700.59   -84930.009    4317.1677   -89247.177      5.51115 
     300    177.01703   -1086.3158    265176.61   -84619.187    4491.3919   -89110.579    6.8285861 
     350    180.41061    -1120.693    265217.77   -84423.912    4577.4963   -89001.408    8.2191802 
     400    179.65569   -987.83464    265115.07   -84225.271     4558.342   -88783.613    9.8158818 
     450    191.42284   -852.19839    265151.01   -83987.671    4856.9057   -88844.576    11.459981 
     500    190.57162   -889.30402    265647.35   -83800.188     4835.308   -88635.496    13.150449 
     550     195.4301    -1084.051    266386.84   -83612.812    4958.5805   -88571.392     15.13324 
     600    197.39723   -1166.6373    266877.62   -83427.147    5008.4918   -88435.638    16.990971 
     650    202.41494   -1330.0491    266902.66   -83243.926    5135.8046   -88379.731    18.820062 
     700    204.99701   -814.19102    266277.64   -83081.962    5201.3184    -88283.28    20.828667 
     750    207.32794   -960.15715    265871.15   -82946.229    5260.4602   -88206.689    23.088837 
     800    211.58699   -722.56319    266041.99   -82778.033    5368.5238   -88146.557    25.271331 
     850    211.68389   -1057.4117    267033.89    -82594.78    5370.9824   -87965.763    27.660547 
     900    216.26364   -1084.2915    267958.19   -82430.088    5487.1828    -87917.27    29.966136 
     950    220.32035   -1253.6896    268479.96   -82277.758    5590.1123    -87867.87    32.226572 
    1000    219.17677   -969.05422    268416.15   -82149.686    5561.0967   -87710.782    34.460451 
    1050    221.35369   -899.66438    267964.91   -82045.145    5616.3308   -87661.476    36.680349 
    1100    227.17971   -913.88895    267613.03   -81952.279    5764.1525   -87716.431    39.121663 
    1150    228.62923    -865.7875    267634.94   -81845.273    5800.9307   -87646.204    41.554436 
    1200    231.85393   -1002.8913    268024.76   -81756.744    5882.7498   -87639.494    44.146937 
    1250    234.22551   -1124.3946    268316.13   -81667.392    5942.9232   -87610.315    46.738673 
    1300    233.08215    -1082.248    268674.16    -81584.27    5913.9131   -87498.183    48.862605 
    1350     233.3155   -1173.4467    268886.33   -81500.497    5919.8338    -87420.33    51.438101 
    1400    237.27735   -1063.9782    268893.71   -81384.498    6020.3563   -87404.855    53.968389 
    1450    232.78675   -768.49447    268954.48   -81283.332    5906.4178    -87189.75    56.406923 
    1500    242.74964   -1067.2455    269159.23   -81224.215     6159.203   -87383.418    59.019328 
    1550    240.57411   -1017.4056    269233.37   -81156.014    6104.0039   -87260.017    61.745311 
    1600    243.59046    -1017.415    269319.71   -81080.784    6180.5367    -87261.32    64.385877 
    1650    247.33622   -1066.4927    269362.05   -81020.949    6275.5767   -87296.526    67.219151 
    1700    242.78186   -803.21297    269376.11     -80934.2    6160.0205    -87094.22    70.042856 
    1750    246.51328   -1336.4764    269886.75   -80871.922    6254.6966   -87126.619    72.708258 
    1800    250.06413    -1014.474    270252.54   -80780.344     6344.791   -87125.135    75.445582 
    1850     246.0344   -1051.3539    270279.49   -80699.673    6242.5459   -86942.219    78.553966 
    1900    251.31726   -941.35054    269948.58   -80625.426    6376.5863   -87002.012    81.352194 
    1950    250.45941   -839.49211    269725.64   -80562.004    6354.8203   -86916.824    84.345959 
    2000    252.87563   -1004.4968    269836.68   -80474.911    6416.1262   -86891.037    87.244028 
    2050     255.4331   -788.09085     270065.8   -80463.059    6481.0159   -86944.075    90.665311 
    2100    250.64498   -1022.1892    270613.44   -80428.916    6359.5288   -86788.445    93.524911 
    2150    258.38007   -1066.7774    271134.63    -80372.08    6555.7884   -86927.868    96.549583 
    2200    257.18673   -1313.3143    271407.74    -80300.69    6525.5101     -86826.2    99.727882 
    2250    257.49837   -1206.1837    271204.57   -80269.643    6533.4173    -86803.06    102.74629 
    2300     258.8573   -788.36496     270577.9   -80195.247    6567.8969   -86763.144     105.9781 
    2350    260.04203    -677.4663    270304.15    -80119.87    6597.9568   -86717.827    108.95861 
    2400     265.8081   -929.22272    270599.63   -80099.792    6744.2573   -86844.049    111.99573 
    2450    258.95079   -926.32111    270882.95   -80050.344    6570.2691   -86620.613    115.36206 
    2500    263.56053   -944.29861     271015.5    -79984.52    6687.2304   -86671.751    118.52459 
    2550    266.48322   -957.13656    270854.91    -79961.87    6761.3868   -86723.257    122.12343 
    2600    265.21514   -918.85564    270680.69   -79949.167    6729.2123   -86678.379    125.14921 
    2650    262.21999   -965.86258    270774.36   -79876.672    6653.2173    -86529.89    128.40693 
    2700    264.54786   -932.42931    271258.24   -79848.023    6712.2817   -86560.305    132.27941 
    2750     266.6589   -1072.9754    271761.63   -79856.395    6765.8444   -86622.239    135.84136 
    2800    267.45147   -1018.2868    271712.18   -79836.987     6785.954   -86622.941    138.96894 
    2850    264.78419   -903.31801    271200.74   -79856.097     6718.278   -86574.375    141.60676 
    2900    263.59707   -1051.5994    270654.65    -79872.94    6688.1575   -86561.097    144.99039 
    2950    263.08283   -643.56491    270417.53    -79870.64    6675.1099    -86545.75    148.03024 
    3000    265.78763   -1068.7712    270962.06   -79817.622    6743.7379    -86561.36    151.62743 
    3050    265.64085   -1013.3946     271645.3   -79818.394    6740.0136   -86558.407    155.09876 
    3100    269.00656   -1143.1321    271987.14    -79799.78    6825.4106   -86625.191    158.48981 
    3150    266.28673   -1024.4758    271781.15   -79809.947    6756.4013   -86566.348    161.96071 
    3200    264.65983   -1138.3264    271480.05   -79774.472    6715.1225   -86489.595    164.56824 
    3250     262.3937   -719.96003    271125.19   -79744.683    6657.6249   -86402.308    167.36517 
    3300    264.84957   -1085.9801    271216.89   -79700.462    6719.9367   -86420.398    170.97263 
    3350    270.52005   -825.00451     271274.4   -79605.716     6863.812   -86469.528    174.02633 
    3400    271.02439   -1201.6005    271581.06   -79650.615    6876.6084   -86527.224    176.92416 
    3450    267.14328   -939.18476    271395.81   -79672.747    6778.1343   -86450.881    180.76585 
    3500    273.68556   -1021.2825     271145.9   -79665.612    6944.1295   -86609.742    184.18478 
    3550    269.02694   -889.40271    271172.28   -79621.827    6825.9277   -86447.754    187.76406 
    3600    267.54633   -1211.3004    271686.26   -79623.199    6788.3607    -86411.56    191.62015 
    3650     269.3141    -1207.518    272027.62   -79627.218    6833.2138   -86460.432    195.46986 
    3700    267.64186   -1096.3276    271802.54   -79622.429    6790.7845   -86413.214    199.39507 
    3750    267.24113   -758.25535    271455.33   -79654.016    6780.6169   -86434.633      202.658 
    3800    270.02773   -909.72941    271314.56   -79653.341    6851.3205   -86504.661    205.83956 
    3850    271.02156     -1092.43    271219.02   -79644.787    6876.5365   -86521.324    208.61746 
    3900     271.8831   -1131.0717     271153.4   -79658.855    6898.3962   -86557.251    211.83167 
    3950     274.5717   -874.67109    271164.89   -79621.885     6966.613   -86588.498    215.06928 
    4000    270.19829   -1203.8625    271453.31   -79629.071     6855.648   -86484.719    217.79263 
    4050    272.75518    -919.5196    271504.94   -79620.482     6920.523   -86541.005    221.28729 
    4100    271.54999   -1198.1382    271460.24   -79617.643    6889.9442   -86507.587    224.46901 
    4150    271.30255   -951.66732    271185.23   -79583.542    6883.6661   -86467.208    227.91977 
    4200    271.66247   -840.99191    270992.98   -79591.308    6892.7981   -86484.106     231.4547 
    4250    271.18037   -966.89308    271085.25   -79571.421    6880.5661   -86451.987    234.71554 
    4300    269.28856   -1045.1314    271488.54   -79586.021    6832.5659   -86418.587    239.00044 
    4350    267.20578   -1014.2919    271835.72   -79591.362    6779.7202   -86371.082    243.21933 
    4400    271.42838   -1325.7497    271867.16   -79582.924    6886.8587   -86469.782    246.13807 
    4450    270.81281   -920.66726    271617.45   -79524.319    6871.2399   -86395.559    249.00986 
    4500    272.01395   -961.29123    271507.05   -79477.053    6901.7162   -86378.769     251.7087 
    4550    274.67463   -887.26675    271578.75   -79430.426    6969.2247   -86399.651    254.79572 
    4600    274.46073   -931.87254    271868.33   -79429.625    6963.7975   -86393.423    257.66316 
    4650     271.6284   -1070.9085    272226.74   -79365.776    6891.9337   -86257.709    261.31392 
    4700    271.96363   -1183.6335    272140.43   -79355.224    6900.4394   -86255.663    265.10786 
    4750    277.71172   -943.85255    271619.02   -79380.825    7046.2837   -86427.108    268.27515 
    4800    276.33188   -1027.5749    271385.28   -79394.369    7011.2734   -86405.642    271.10657 
    4850    275.72848   -1099.1668    271707.09    -79400.39    6995.9637   -86396.354    273.95424 
    4900     275.7922   -1012.6032    272225.42   -79387.506    6997.5804   -86385.086    277.59141 
    4950    271.64988   -1251.1359    272481.08   -79387.543    6892.4788   -86280.022    280.92039 
    5000    268.21762   -861.85107     272050.2   -79405.209    6805.3932   -86210.602    283.33568 
    5050    274.38974     -802.485    271574.84   -79424.761    6961.9963   -86386.758    286.21123 
    5100     274.9017   -786.47709    271475.97   -79442.759    6974.9861   -86417.745    289.43137 
    5150    273.48622   -1004.4853    271599.91    -79464.95    6939.0716   -86404.022    292.67458 
    5200    271.29546   -1184.4626    271790.11   -79460.908    6883.4863   -86344.395    294.95645 
    5250    276.18797   -1108.7634    271878.45   -79453.778    7007.6221     -86461.4    297.90315 
    5300    278.48066   -1263.1601    271975.81   -79440.785    7065.7937   -86506.579    300.78345 
    5350    271.13182   -1067.8843    272003.41   -79411.248    6879.3342   -86290.583    303.93202 
    5400      270.206   -1073.7264    271923.21   -79466.155    6855.8437   -86321.998    306.42696 
    5450     271.9622   -723.65526     271524.7   -79456.032     6900.403   -86356.435    309.30227 
    5500    270.14534   -1090.0875    271419.92    -79455.38    6854.3045   -86309.685    311.39528 
    5550    275.79157   -920.68504    271435.45   -79505.117    6997.5645   -86502.682    314.05111 
    5600    270.67804   -1036.3856    271845.86   -79558.008    6867.8204   -86425.828    317.13035 
    5650    272.64266   -1033.3307    271847.88   -79633.441    6917.6682   -86551.109    320.16196 
    5700    270.44264   -1144.5449    271540.21   -79608.839    6861.8478   -86470.687    322.53504 
    5750    271.69485   -953.01497    271283.91   -79591.362    6893.6196   -86484.981    325.08479 
    5800    266.76486    -936.5099    271498.85   -79583.678    6768.5327   -86352.211    328.23534 
    5850    265.40488   -1025.7595    271872.62    -79513.33    6734.0266   -86247.356    330.71278 
    5900    276.79338   -1140.9564    271896.62   -79543.499    7022.9831   -86566.482    333.49196 
    5950    274.75777    -838.8818    271257.52   -79560.699    6971.3341   -86532.033     335.1581 
    6000     272.0762   -931.92534    271069.93   -79561.627    6903.2956   -86464.923    337.80112 
    6050    271.23391   -1059.8976    271449.08   -79503.782    6881.9243   -86385.706    340.88847 
    6100    272.60888   -1377.8052     271864.6   -79501.389    6916.8111     -86418.2    344.34166 
    6150    272.15858   -1159.6278    271919.44   -79483.895    6905.3857   -86389.281    347.57658 
    6200    275.18355   -1084.7372    271498.36   -79515.515    6982.1373   -86497.653    349.86233 
    6250    275.53206   -858.00523    270980.49   -79506.153    6990.9799   -86497.133     351.8566 
    6300     274.7326   -725.06831    271042.94   -79470.886    6970.6954   -86441.582    354.54841 
    6350    278.92148   -1000.9694    271655.53   -79441.411    7076.9786   -86518.389    358.14759 
    6400    268.98265   -1097.0587    272316.78   -79489.645     6824.804   -86314.449    362.06376 
    6450    269.14906   -1091.7603    272366.87   -79486.807    6829.0262   -86315.834    364.08639 
    6500    275.00549   -1119.9791    271838.62    -79446.83    6977.6195   -86424.449    366.27225 
    6550    272.18746   -916.24022    271202.28   -79441.376    6906.1185   -86347.495    367.88555 
    6600    273.63076   -1025.7496    270817.77   -79464.458     6942.739   -86407.197    370.53707 
    6650    278.48608   -672.48625    270847.95   -79514.582    7065.9313   -86580.513     373.4002 
    6700    268.01857   -969.02698    271715.38   -79519.496    6800.3428   -86319.839    378.06476 
    6750    268.05954   -1357.7876    272348.68   -79528.963    6801.3824   -86330.346    382.21108 
    6800    269.74441   -980.57524    272123.37   -79501.175    6844.1318   -86345.307    384.84542 
    6850    271.10663   -954.43723    271441.06   -79510.296     6878.695   -86388.991    386.95822 
    6900    273.11861   -856.37742    271113.08   -79484.333    6929.7443   -86414.077     388.5406 
    6950    273.50906   -862.84417    271483.09   -79479.185    6939.6512   -86418.836    392.69281 
    7000    272.79033   -1281.3363    272264.72   -79441.185    6921.4151     -86362.6     397.2323 
    7050    273.98009   -1132.8184    272555.61   -79423.174    6951.6023   -86374.776    400.53521 
    7100    271.37459    -850.3095    272206.39   -79425.763    6885.4939   -86311.257    403.42055 
    7150    271.22696   -1003.8971     271571.3   -79487.739    6881.7482   -86369.487    405.17381 
    7200    276.70474   -1024.6685    271037.56   -79535.792    7020.7339   -86556.526     406.3878 
    7250    274.50205   -884.98003     271051.9   -79485.074    6964.8459    -86449.92    408.03835 
    7300    274.32819   -994.82959    271512.21   -79459.545    6960.4345   -86419.979    412.61751 
    7350    273.74573    -903.3066    271921.41   -79442.384    6945.6559    -86388.04    416.07778 
    7400    275.36797   -1023.5999    272190.31   -79396.515    6986.8164   -86383.331    419.72454 
    7450    276.55194   -1115.0666    272311.06   -79375.035    7016.8569   -86391.892    422.59706 
    7500    276.10766   -1213.2349    272274.97   -79440.719    7005.5845   -86446.304    425.60855 
    7550    275.36783   -1303.9089    271868.06   -79481.747    6986.8129    -86468.56    428.20805 
    7600    274.77226   -912.32934    271236.02   -79436.276    6971.7019   -86407.978    430.56723 
    7650    277.59515   -608.43493    270780.15    -79453.59    7043.3261   -86496.916    433.88037 
    7700    270.41091   -890.02581     271141.6    -79439.75    6861.0428   -86300.793    437.43339 
    7750    277.80181   -962.70463    271793.18   -79407.589    7048.5695   -86456.159    441.69865 
    7800    274.56411   -1107.0667    272456.91   -79429.732    6966.4206   -86396.153    445.26622 
    7850    269.67595   -1072.6311    272563.74   -79403.143    6842.3949   -86245.537    448.54314 
    7900    273.74398   -1207.0776    272073.72   -79444.812    6945.6115   -86390.423    451.89683 
    7950     274.7605   -989.14731    271278.48   -79499.438    6971.4034   -86470.842    454.64303 
    8000    274.43511   -901.84932    270678.33   -79498.749    6963.1475   -86461.896    456.52597 
    8050    274.57421   -748.71819    270877.15   -79486.691    6966.6767   -86453.367    459.25032 
    8100    269.45532   -1064.1112    271679.45    -79514.35    6836.7969   -86351.147    463.23114 
    8150    273.38231   -1083.5943    272132.64   -79457.128     6936.435   -86393.563    466.18055 
    8200    276.96823    -1089.602    272187.94   -79484.094    7027.4194   -86511.513     469.6454 
    8250    272.15957   -1106.1098    271927.23   -79480.403    6905.4109   -86385.814    471.36139 
    8300    278.25879   -1101.1511    271526.33   -79475.741    7060.1642   -86535.905    472.70734 
    8350    272.84273   -986.52154    271176.95   -79533.234    6922.7445   -86455.979    475.42338 
    8400    270.70448   -1153.0843    271220.26   -79533.629    6868.4913    -86402.12    477.85609 
    8450    272.67781   -884.45378    271352.13   -79535.877      6918.56   -86454.437    481.64548 
    8500    275.98172    -927.1995    271429.85   -79528.767     7002.389   -86531.156    484.22009 
    8550    272.43597    -1120.362    271581.21   -79548.046    6912.4238    -86460.47    487.08787 
    8600    274.25989   -1265.3834    271650.15   -79543.204    6958.7017   -86501.906    489.74412 
    8650    269.66487   -974.25902    271451.23   -79542.944    6842.1138   -86385.058    491.99309 
    8700    274.30553   -1287.2172    271421.75   -79543.178    6959.8596   -86503.038    494.30586 
    8750    273.10875   -972.13787    271492.64   -79515.223    6929.4941   -86444.717    497.51974 
    8800    268.82492   -1027.0857    271826.19   -79526.541    6820.8021   -86347.343    500.79335 
    8850    273.83551   -896.54863    271793.79   -79567.491     6947.934   -86515.425    502.31037 
    8900    272.79581   -1137.5509     271649.2   -79588.215    6921.5541   -86509.769    504.62191 
    8950    271.43218   -873.23453    271228.26   -79576.545     6886.955     -86463.5    507.42842 
    9000    274.04262    -855.0172    270858.11   -79574.855    6953.1888   -86528.044    510.29609 
    9050    270.22043    -661.2447       271087   -79569.826    6856.2097   -86426.036    512.76208 
    9100    272.23685   -1046.1459    271759.31   -79619.619    6907.3716   -86526.991    515.54089 
    9150    272.43805   -1145.1824    271798.61   -79579.037    6912.4766   -86491.514    517.62943 
    9200    271.19714   -1101.7076    271466.49   -79589.399    6880.9914    -86470.39    519.70337 
    9250    276.07554   -1046.0666    271166.97   -79628.695    7004.7695   -86633.464    521.97799 
    9300    273.58792   -1148.7088     271000.4   -79677.649     6941.652   -86619.301    524.61321 
    9350    267.06556   -642.86473    271008.47   -79652.148    6776.1622    -86428.31    529.11707 
    9400    267.63961   -931.03681    271398.54   -79638.208    6790.7274   -86428.935    533.97259 
    9450    270.69568   -913.57213    271512.31     -79594.3    6868.2681   -86462.569    536.67431 
    9500    268.52382   -1015.6335    271449.19   -79606.614    6813.1624   -86419.776    539.75729 
    9550    271.26014   -1129.2033    271478.53   -79592.763      6882.59   -86475.353    543.75888 
    9600    276.45243   -973.59141    271501.57   -79570.824    7014.3321   -86585.156    547.96649 
    9650    269.50432   -972.68321    271485.26   -79597.131    6838.0402   -86435.171    550.86293 
    9700    273.11237   -1085.8835    271691.76   -79593.861    6929.5861   -86523.447    553.32314 
    9750    272.85788   -1130.3719    272037.71   -79591.513    6923.1289   -86514.642    555.68792 
    9800    266.77281   -983.55892    271978.53   -79589.248    6768.7344   -86357.982    557.11006 
    9850    268.30682   -1008.6931    271691.89   -79589.176    6807.6564   -86396.832    559.38648 
    9900    273.14294   -1025.4537    271269.92   -79593.736    6930.3616   -86524.097    561.80332 
    9950    272.12565   -1119.1711    271129.69   -79576.638    6904.5503   -86481.188    564.78574 
   10000     269.8275   -631.66049    271338.01   -79569.121    6846.2401   -86415.361    568.46683 
   10050    268.56042   -1117.4296    272103.12   -79558.196    6814.0909   -86372.287    572.71049 
   10100    266.79086    -930.2498    272389.71   -79523.991    6769.1925   -86293.184     576.9303 
   10150    273.51232   -1001.1563    272163.84    -79507.25    6939.7337   -86446.983    580.31979 
   10200     270.8063   -1041.6213    271593.99   -79506.409     6871.075   -86377.484    581.90645 
   10250    272.07607   -722.80557    271100.84   -79518.199    6903.2922   -86421.491    584.66544 
   10300    273.89068   -1018.2499    271368.83    -79500.26    6949.3337   -86449.593    588.68017 
   10350    270.85156   -1039.5403    271856.48   -79493.234    6872.2231   -86365.457    592.34407 
   10400    272.64846   -1109.9175    272087.18    -79552.08    6917.8154   -86469.895    595.76202 
   10450    267.59262   -973.22884    272037.47   -79527.878    6789.5353   -86317.414    598.95968 
   10500    272.42925   -1147.1217    271886.22   -79525.123    6912.2535   -86437.376    602.16841 
   10550    268.74447   -973.70656    271373.56   -79516.022    6818.7607   -86334.782    605.41923 
   10600    272.85336    -783.6844    270953.66   -79522.827    6923.0141   -86445.841    607.69495 
   10650    274.61416   -909.91168    271231.76   -79503.324    6967.6903   -86471.014    610.94916 
   10700     271.8203    -1101.199    271802.36    -79526.64    6896.8027   -86423.443    613.85516 
   10750     271.9501   -1042.1162     272169.2   -79490.734     6900.096    -86390.83    617.66627 
   10800    266.75921   -944.68955    272054.29   -79507.826    6768.3895   -86276.215    621.15301 
   10850    268.84899    -806.4059    271620.39   -79462.384    6821.4127   -86283.796    625.34344 
   10900    278.23385   -789.89869    271447.65    -79471.04    7059.5316   -86530.572    628.92129 
   10950    272.31538   -957.90242    271749.14   -79470.548    6909.3642   -86379.912    630.68719 
   11000    274.05577   -1298.1427    271792.58   -79511.487    6953.5226   -86465.009    632.74159 
   11050    270.68573    -809.1578    271352.09   -79541.547    6868.0157   -86409.563     635.2018 
   11100    272.72474   -843.28049    271116.34   -79525.674    6919.7509   -86445.425    637.69453 
   11150    270.29124   -1083.2018    271305.97   -79531.032    6858.0065   -86389.038    643.06612 
   11200     273.4807   -1189.7521    271465.91   -79523.461    6938.9314   -86462.392    647.07442 
   11250    272.56064   -962.37805    271445.59   -79549.559     6915.587   -86465.146    651.18365 
   11300    272.35489   -938.64804     271660.1   -79537.994    6910.3667    -86448.36    654.73855 
   11350    268.38076    -1021.966    271893.58   -79564.583    6809.5325   -86374.115    658.99544 
   11400    274.29498    -1106.135    271932.35   -79566.943     6959.592   -86526.535    661.20133 
   11450    269.39431   -921.47353    271715.42   -79619.555    6835.2489   -86454.804     664.6569 
   11500    272.25565     -958.533    271520.81    -79619.24    6907.8486   -86527.089    668.75147 
   11550    266.24524   -874.56769    271334.19   -79637.362    6755.3487   -86392.711    671.57414 
   11600    270.61266   -942.54474    271440.18       -79621    6866.1617   -86487.161    674.84693 
   11650    270.67362    -1064.214    271796.86   -79601.081    6867.7084    -86468.79    677.62206 
   11700    271.86668   -1065.2917    271870.39   -79567.501    6897.9795   -86465.481    679.77439 
   11750    270.98332    -1139.021    271710.85   -79589.382    6875.5664   -86464.948    683.49409 
   11800    271.54662   -974.06966    271554.06   -79610.184    6889.8587   -86500.043    685.62475 
   11850    269.80344   -1152.6096    271343.47   -79544.465    6845.6295   -86390.094    687.75286 
   11900    270.35739   -1015.8427    271219.87   -79623.625    6859.6848   -86483.309     690.0432 
   11950    269.11174   -1034.5468    271084.36   -79617.297    6828.0793   -86445.376    692.12752 
   12000    272.61439   -1048.1183    271220.65   -79625.716    6916.9509   -86542.667    694.28541 
   12050    268.89486   -1103.3388    271654.39   -79607.514    6822.5765    -86430.09    696.88564 
   12100    273.00308   -986.42391    271852.75   -79578.491    6926.8131   -86505.304    700.39177 
   12150    270.34698   -1184.0557    271720.89   -79572.891    6859.4207   -86432.312    702.61209 
   12200    268.20968   -936.50863    271230.09   -79571.131    6805.1916   -86376.323     703.6102 
   12250    272.50063   -788.94029    270910.73   -79546.259    6914.0645   -86460.323    706.34407 
   12300    272.75179   -1020.5706    271268.78   -79550.858    6920.4372   -86471.295    710.35175 
   12350    272.67566   -1121.8494    271657.48   -79571.602    6918.5054   -86490.107    713.90427 
   12400    273.57837   -1185.8383    271635.22    -79606.85    6941.4097    -86548.26    717.70725 
   12450    273.37578   -1053.1781    271596.77   -79582.601    6936.2694    -86518.87     719.7777 
   12500    270.54134   -754.57723    271754.14   -79546.161    6864.3522   -86410.513    723.48417 
   12550     268.1567   -971.41825    272024.65   -79583.278    6803.8476   -86387.126    726.80744 
   12600    272.69116   -1032.7933    272055.03   -79533.125    6918.8987   -86452.023    729.05926 
   12650    272.25861   -1006.8152    271770.25   -79547.319    6907.9239   -86455.243    730.87592 
   12700    273.20308   -890.90981    271218.67   -79536.972    6931.8876    -86468.86    732.14537 
   12750    269.26674   -767.41666    270918.91   -79594.625    6832.0122   -86426.637    734.90316 
   12800    270.14376    -869.2825    271312.28   -79608.739    6854.2645   -86463.004     738.6884 
   12850    268.54457   -1161.6632    271999.68   -79584.432    6813.6888    -86398.12    742.67993 
   12900     274.8578   -1445.3649    272306.11   -79556.621    6973.8723   -86530.494    746.60076 
   12950    269.58675   -1074.6819    271991.76   -79564.596    6840.1315   -86404.728    749.59207 
   13000    270.18499   -924.03612     271395.3   -79551.334    6855.3105   -86406.644    751.64059 
   13050    274.49695   -894.84991    270922.47   -79546.587    6964.7166   -86511.303     753.3618 
   13100    272.21855   -790.02578    270695.57   -79528.923    6906.9073   -86435.831    756.10142 
   13150    272.63561   -793.45554    270918.57   -79552.266    6917.4893   -86469.755    759.20898 
   13200    270.43924   -1097.2632    271537.21   -79561.743    6861.7617   -86423.505    762.62953 
   13250    268.73548   -900.24389    271873.52   -79602.513    6818.5326   -86421.045    767.21964 
   13300    270.74593   -1064.1995    271794.18   -79600.116    6869.5431    -86469.66    771.51406 
   13350     266.8533   -1029.2253    271494.16   -79572.043    6770.7767    -86342.82    771.88927 
   13400    267.55405   -945.74372    271149.94   -79606.406    6788.5568   -86394.962    773.63068 
   13450      273.653   -945.81575    271072.23   -79635.232    6943.3031   -86578.535    774.80151 
   13500    272.54378    -941.1242    271469.93   -79599.828    6915.1595   -86514.988    777.84589 
   13550    268.55608   -1270.3987    272066.68   -79658.512    6813.9807   -86472.493    781.71632 
   13600    268.20382   -1164.1179    272498.06   -79653.321    6805.0431   -86458.365    785.30572 
   13650      268.256   -1062.1483    272321.36   -79659.619    6806.3669   -86465.986       787.78 
   13700    266.65952   -915.72977    271729.35   -79654.726    6765.8601   -86420.586    787.93028 
   13750    267.87375   -854.69868     271260.9   -79645.529    6796.6683   -86442.197    789.06179 
   13800     268.5612   -736.27849    270856.14   -79696.934    6814.1107   -86511.045    791.28667 
   13850    270.14002   -980.82402    271156.03   -79684.675    6854.1694   -86538.844    794.57251 
   13900    265.77637   -1103.4771    271873.05   -79641.921    6743.4523   -86385.373    799.22117 
   13950    268.97605   -1163.1095    272256.77   -79645.873    6824.6367   -86470.509     803.8823 
   14000     268.3692   -1120.0622    272090.05   -79592.456    6809.2392   -86401.695     807.5967 
   14050      267.388   -875.91828    271603.02     -79582.2    6784.3435   -86366.544     810.4691 
   14100     270.1524   -975.00532    271491.64   -79579.542    6854.4837   -86434.025     813.7383 
   14150    270.35908   -1133.6394    271452.66   -79588.356    6859.7278   -86448.084    816.55079 
   14200    269.74766   -781.72601    271100.19   -79588.599    6844.2144   -86432.813    820.06272 
   14250    276.39388   -738.18995    271176.44   -79516.847    7012.8466   -86529.694    823.13672 
   14300    271.58325   -963.58361    271790.04   -79534.745    6890.7882   -86425.533    828.19272 
   14350    273.11552    -1209.345    272309.38   -79526.507    6929.6658   -86456.173    831.05333 
   14400    273.40207   -1116.1332    272333.62   -79502.253    6936.9364   -86439.189    834.32302 
   14450     269.2997    -907.8714    271653.96    -79557.12    6832.8483   -86389.968    835.40757 
   14500    270.63143   -963.81075    271032.81   -79569.192    6866.6379   -86435.829    837.80861 
   14550    270.01464   -936.81006    270764.07   -79615.089    6850.9884   -86466.078    840.33455 
   14600    267.48213   -843.77921    270779.89   -79607.855    6786.7319   -86394.587    843.38584 
   14650    269.26602   -808.94311    271171.66   -79615.636    6831.9939    -86447.63    848.00022 
   14700    272.79674   -1233.2793    271837.21   -79579.021    6921.5775   -86500.599     852.1327 
   14750     270.0071   -1140.9845    271971.07   -79581.885     6850.797   -86432.682    855.12638 
   14800    270.91874   -1207.1882    271584.85   -79631.431    6873.9277   -86505.359    857.66944 
   14850    272.21442   -776.14859    270950.58   -79650.498    6906.8027   -86557.301    859.50821 
   14900    269.08427    -891.4267    270866.14   -79654.768    6827.3825    -86482.15    862.46148 
   14950    268.14344   -880.26744    271217.09   -79720.851    6803.5109   -86524.362    867.28895 
   15000    266.39777    -1025.814    271718.71   -79705.621    6759.2187    -86464.84    871.48172 
   15050    264.85777    -1129.779    271857.63   -79698.197    6720.1449   -86418.342    875.32977 
   15100    272.54916   -1163.2621    271701.71   -79672.996    6915.2959   -86588.291    877.42124 
   15150    267.77391    -1088.476     271372.2   -79689.637     6794.135   -86483.772    879.39613 
   15200    266.11198   -774.99197    270990.23   -79683.951    6751.9674   -86435.919    881.92179 
   15250    269.70883   -869.14641    270941.44   -79695.124     6843.229   -86538.353    883.70455 
   15300    272.99842   -1124.3639    271304.25   -79658.031    6926.6949   -86584.726    887.18556 
   15350    266.02422   -960.37621    271641.23   -79653.291    6749.7409   -86403.032    890.57867 
   15400    267.54485   -954.20272    271864.86   -79613.325    6788.3231   -86401.648    894.58523 
   15450    271.15656   -879.46187    271812.47   -79625.191    6879.9618   -86505.153    897.34657 
   15500    270.50133   -999.77463    271688.08   -79615.898    6863.3369   -86479.235    897.53619 
   15550    271.46848   -815.44202    271334.91   -79627.185    6887.8761   -86515.061    898.54191 
   15600      267.436   -920.55422    271212.73   -79629.359    6785.5613   -86414.921    899.53098 
   15650    267.55622   -912.73849     271464.2   -79632.627    6788.6117   -86421.238    901.98871 
   15700    271.31138   -987.68857    271890.97   -79602.802      6883.89   -86486.692    904.49589 
   15750    265.90602   -1146.6636    272028.45   -79597.654    6746.7417   -86344.396    905.55659 
   15800    273.08317   -917.33954    271578.05   -79598.966     6928.845   -86527.811    906.07482 
   15850    273.57322   -783.91147    271251.08   -79584.753     6941.279   -86526.032    909.45422 
   15900      272.333     -920.686    271542.52   -79587.192    6909.8113   -86497.003     912.8636 
   15950    274.11094   -1192.4031    271836.87   -79560.664    6954.9225   -86515.587    915.75476 
   16000    274.62228   -1229.9811    271616.99   -79534.806    6967.8963   -86502.702    917.33711 
   16050     279.1675   -1023.6229    271190.07   -79508.008    7083.2207   -86591.228    920.76922 
   16100    270.41568   -1005.5887    271196.07   -79502.279    6861.1638   -86363.443    923.04047 
   16150    271.58264   -984.60191    271436.85   -79503.868    6890.7728   -86394.641    925.57283 
   16200    277.54471   -1004.9459    271760.51   -79454.664    7042.0461   -86496.711    928.22366 
   16250    278.06527   -1025.1486    272171.23   -79433.423    7055.2543   -86488.677    932.23555 
   16300    273.56193   -1200.8353    272418.03   -79442.706    6940.9925   -86383.699    935.71714 
   16350    273.44182   -1197.7114    272100.15   -79469.649     6937.945   -86407.594    937.50512 
   16400    273.47359   -755.76872    271469.63   -79463.188    6938.7511   -86401.939    939.98879 
   16450    272.55149   -943.37179    271375.89    -79504.39    6915.3549   -86419.744    943.88941 
   16500    272.97116   -985.43316    271491.02   -79477.574     6926.003   -86403.577    947.46961 
   16550    274.84155   -980.42427    271656.56   -79446.456    6973.4598   -86419.916    951.14642 
   16600    277.86487   -1219.9893    271805.05   -79426.495    7050.1694   -86476.664    955.73361 
   16650    273.57239   -1040.4921     271698.8   -79376.853    6941.2579   -86318.111    959.23558 
   16700     274.9302   -986.30171     271509.8   -79456.739    6975.7093   -86432.448    962.12416 
   16750    271.28689   -897.37206    271603.38   -79469.351    6883.2686   -86352.619    965.44029 
   16800    272.21401   -1002.0509       271884   -79479.888    6906.7922    -86386.68    966.62088 
   16850    273.30936   -1095.3126    272108.39   -79509.476    6934.5841   -86444.061    970.71014 
   16900    272.64975   -1316.7716    272033.36   -79504.763    6917.8481   -86422.611    975.08413 
   16950    273.70828   -838.02499    271521.38   -79474.831    6944.7059   -86419.537    978.42889 
   17000    270.52287   -1014.7787    271273.15   -79509.275    6863.8836   -86373.159    980.56573 
   17050    270.66479   -1029.0972    271276.34   -79482.876    6867.4844    -86350.36    985.61681 
   17100    275.77501   -690.24732    271538.49   -79485.313    6997.1443   -86482.458    987.66742 
   17150    272.39321   -1080.3451    272239.82   -79419.863     6911.339   -86331.202    991.50555 
   17200    270.98392   -1001.8758    272464.47   -79375.151    6875.5817   -86250.732    994.93419 
   17250    273.87784   -952.28035    272351.98   -79383.528     6949.008   -86332.536    997.58636 
   17300     275.6657    -1332.858    272230.83   -79338.747    6994.3708   -86333.118    1000.7063 
   17350     274.2877   -1021.8249     271807.2   -79384.392    6959.4072   -86343.799     1003.174 
   17400    274.38149   -903.99308    271435.27   -79410.312    6961.7869   -86372.099    1005.0559 
   17450    276.90898    -1078.939    271612.84   -79373.335    7025.9161   -86399.251    1010.0504 
   17500    275.56426   -1041.2278    271942.88   -79421.445     6991.797   -86413.242    1014.4344 
   17550     280.9193   -1136.9333     272255.6   -79466.043    7127.6685   -86593.711    1016.4709 
   17600    273.35962   -1157.7458    272087.31   -79443.913    6935.8593   -86379.773    1020.4594 
   17650    278.68313   -872.19615    271489.73   -79411.001    7070.9311   -86481.932    1022.8352 
   17700    278.24904   -833.54626    271250.43   -79400.175     7059.917   -86460.092     1026.692 
   17750    279.45543   -1041.3531     271560.1   -79390.919    7090.5262   -86481.445    1031.2145 
   17800    270.48173   -845.19265    271982.03   -79382.101    6862.8396   -86244.941    1036.0845 
   17850     274.0645   -994.39422    272276.55   -79398.572    6953.7441   -86352.316    1039.7864 
   17900    277.17804   -1055.5351     272147.8    -79430.27    7032.7428   -86463.013    1042.6828 
   17950    274.71786   -963.90708    271749.65   -79449.148    6970.3214   -86419.469    1045.2095 
   18000    275.50887   -1123.1044     271450.8   -79509.652    6990.3915   -86500.044     1047.942 
   18050    275.90356    -1185.143    271573.25   -79542.993    7000.4058   -86543.399     1051.899 
   18100    270.71996   -988.29702    271744.65    -79571.79    6868.8841   -86440.674     1057.416 
   18150    267.51685   -804.25212    271726.87   -79601.082    6787.6127   -86388.695    1062.0556 
   18200    272.00523   -955.87863     271812.4   -79546.607     6901.495   -86448.102    1064.2207 
   18250     273.1882   -900.07202    271790.25   -79495.188      6931.51   -86426.698    1068.6851 
   18300    275.69933   -937.41401    271685.87   -79480.691     6995.224   -86475.915    1072.7711 
   18350     274.4286   -1146.1386    271839.48   -79468.899    6962.9822   -86431.882    1076.6637 
   18400    276.60209   -1124.4163    271752.33   -79477.104    7018.1294   -86495.233    1078.3731 
   18450    274.69383   -964.02116     271482.4   -79507.757    6969.7119   -86477.469    1078.2985 
   18500    274.19009   -953.74348    271321.48   -79487.216    6956.9305   -86444.146    1079.4724 
   18550    274.02706   -713.41164    271311.11   -79464.551    6952.7941   -86417.345     1084.024 
   18600    274.01081   -1217.0994    271647.88   -79432.363    6952.3818   -86384.745    1086.9627 
   18650    273.32803   -953.60844     271807.5    -79448.14    6935.0578   -86383.197    1090.7393 
   18700    272.81273   -774.96087    271860.28   -79462.986    6921.9834    -86384.97    1093.3925 
   18750    276.86896   -1184.7232     272275.1   -79385.504    7024.9005   -86410.404    1096.9467 
   18800    276.71863   -1142.9609     272536.1   -79390.947    7021.0865   -86412.033    1100.6343 
   18850    275.48129   -1076.8691    272164.42   -79428.716    6989.6918   -86418.407    1103.5297 
   18900    272.40551   -808.94266       271411   -79458.329     6911.651    -86369.98    1103.1148 
   18950    277.00943   -965.00744     270967.3   -79501.599    7028.4646   -86530.063    1104.6443 
   19000    276.20166   -719.97672    270753.52   -79486.532    7007.9694   -86494.501    1107.5896 
   19050    276.44127   -1148.2833    271224.65    -79459.52     7014.049   -86473.569    1112.8242 
   19100    271.07065   -860.98338    271639.73   -79487.457    6877.7822   -86365.239    1118.6562 
   19150    272.75584   -1015.3811    272015.31   -79456.987    6920.5398   -86377.527    1122.2054 
   19200    275.03047   -1108.3915    272156.33   -79467.558    6978.2532   -86445.812    1127.1538 
   19250    273.52222   -1076.3931    271911.41   -79462.099    6939.9849   -86402.084    1129.5642 
   19300    274.35812   -818.87541    271432.09   -79490.514    6961.1939   -86451.708    1130.3121 
   19350    274.21222   -793.84579    271009.17   -79521.757    6957.4921   -86479.249    1131.0175 
   19400    273.10854   -919.95868    271091.85   -79535.826    6929.4888   -86465.314    1134.0654 
   19450    273.63866   -987.19807    271375.39    -79551.79    6942.9393   -86494.729     1136.132 
   19500    271.90869   -1118.0205    271829.86   -79603.639    6899.0454   -86502.685    1140.7201 
   19550    270.06854   -1087.2644    271925.54   -79531.825    6852.3559   -86384.181    1143.3393 
   19600    270.44959   -1111.7188    271598.25   -79524.193    6862.0242   -86386.217    1146.3143 
   19650    275.33814   -905.21167    271235.06   -79491.873    6986.0598   -86477.933    1148.5024 
   19700    271.48409   -967.17299    271179.28   -79440.605    6888.2722   -86328.877    1152.4372 
   19750    274.23734   -971.62334    271421.63   -79459.896    6958.1296   -86418.026    1156.7727 
   19800    273.68577   -976.06372    271756.91   -79479.581    6944.1346   -86423.715    1161.1628 
   19850    270.93501   -1088.5152    271994.09   -79445.115    6874.3406   -86319.455    1163.9226 
   19900    276.05528   -940.67898    271913.14    -79390.06    7004.2555   -86394.316     1166.499 
   19950    274.22143    -1014.366    271735.39   -79395.547    6957.7257   -86353.273    1171.2243 
   20000    272.19812   -1040.5536    271513.42   -79368.627     6906.389   -86275.016    1174.6223 
   20050     273.3241    -930.6328    271160.68   -79411.229    6934.9582   -86346.187    1175.0893 
   20100    278.24525   -865.87161    271088.55   -79446.156    7059.8209   -86505.977    1177.4829 
   20150    274.05815   -1191.5983    271626.41   -79470.874    6953.5828   -86424.457    1180.9246 
   20200    276.14312   -1081.6698    272040.33   -79459.123    7006.4842   -86465.607    1183.0504 
   20250    270.83717     -1216.38    271941.42   -79480.126    6871.8581   -86351.984    1185.1831 
   20300    276.12154    -957.5105    271379.42   -79469.938    7005.9365   -86475.874     1188.123 
   20350    277.45368   -877.13433    270930.92   -79475.129    7039.7365   -86514.866    1189.6129 
   20400    271.09462     -577.779    270912.83   -79451.852    6878.3902   -86330.242    1192.9075 
   20450    274.90531   -657.55632    271687.76   -79399.448    6975.0777   -86374.525    1198.1944 
   20500    275.18637   -1386.6238    272626.55   -79384.695    6982.2088   -86366.904    1203.8741 
   20550    274.57127   -1236.8452    272506.28   -79371.351    6966.6022   -86337.954    1206.4574 
   20600    275.97769   -853.78296    271776.58   -79373.157    7002.2867   -86375.444    1207.9424 
   20650    281.37172   -825.32654    271405.61   -79340.978    7139.1476   -86480.125    1211.4555 
   20700    274.65174   -1038.1503    271600.97   -79417.499    6968.6438   -86386.143    1213.4768 
   20750    275.70863   -950.48595    271908.58   -79406.665    6995.4599   -86402.125    1217.7972 
   20800    275.89698   -1216.7569    272036.75   -79394.258    7000.2391   -86394.497    1221.7073 
   20850    276.79837   -1147.4092     271753.2   -79402.614    7023.1096   -86425.723    1222.8238 
   20900    278.19627     -945.349    271393.13   -79338.225    7058.5781   -86396.803    1224.6197 
   20950    278.74733   -1021.0346    271465.45   -79397.925    7072.5598   -86470.485    1227.0459 
   21000    274.15252   -960.04488    271723.75   -79420.092    6955.9774    -86376.07    1230.4646 
   21050    270.59682   -967.67334    271988.05   -79374.406    6865.7598   -86240.165    1232.7517 
   21100    271.24457   -1036.5882    272217.51   -79357.992    6882.1951   -86240.187    1236.3813 
   21150    272.11577   -967.35139    272366.19   -79386.645    6904.2996   -86290.945    1239.1888 
   21200    273.86345    -1071.162    272290.45   -79405.204    6948.6429   -86353.847    1240.4295 
   21250    275.58986   -1197.6195    271687.04   -79456.479    6992.4466   -86448.926    1240.9858 
   21300    276.16974   -1008.7486    270776.96    -79467.76    7007.1595   -86474.919    1240.2217 
   21350    275.04754   -539.50586    270483.02   -79539.548    6978.6864   -86518.235    1241.7645 
   21400    270.30453   -955.71811    271312.83   -79525.595    6858.3435   -86383.939    1245.2079 
   21450    274.16289    -1306.352     272279.4   -79499.016    6956.2405   -86455.257    1251.9766 
   21500    271.01158    -1105.951    272686.27    -79458.02    6876.2832   -86334.303    1256.6384 
   21550    271.00316   -1139.5969    272365.67   -79468.283    6876.0696   -86344.353     1258.724 
   21600    273.45433    -1124.082    271574.85   -79520.518    6938.2623    -86458.78    1258.4964 
   21650    276.44744   -904.29483    270817.28   -79545.743    7014.2057   -86559.948    1258.1254 
   21700    273.44721   -796.27948    270635.39   -79522.158    6938.0818    -86460.24    1259.9097 
   21750    273.08666   -991.46414    271122.47   -79520.573    6928.9338   -86449.507    1263.3037 
   21800    272.00605   -1086.8906     271864.1   -79520.621    6901.5157   -86422.137    1268.5673 
   21850    275.02667   -1065.1378    272094.76   -79513.834     6978.157    -86491.99    1273.2644 
   21900     271.2268   -1044.8479    271788.19   -79495.595     6881.744   -86377.339    1274.9519 
   21950    273.25116   -1008.7746    271517.87   -79507.426    6933.1075   -86440.533    1276.4953 
   22000    272.30438   -1178.1388    271523.43   -79459.679    6909.0852   -86368.764     1279.792 
   22050    272.34494   -1020.3443     271478.2   -79449.647    6910.1143   -86359.761    1282.1861 
   22100    275.37394   -1012.6385    271413.15   -79440.105     6986.968   -86427.073    1284.5822 
   22150    275.03372   -1037.0746    271444.52   -79433.497    6978.3358   -86411.833    1287.3703 
   22200    272.88289   -932.17344    271761.07   -79415.968    6923.7635   -86339.732     1290.687 
   22250     276.9428   -1100.7949    272234.27   -79421.232    7026.7741   -86448.006    1295.0175 
   22300    273.13734   -1250.5881    272169.72   -79444.821    6930.2195    -86375.04    1298.3516 
   22350     271.5862   -895.12517    271793.57   -79457.087    6890.8631    -86347.95    1300.6198 
   22400     277.2499   -933.83154    271408.28   -79487.884    7034.5661    -86522.45    1302.0846 
   22450    273.67048   -958.97711    271300.55   -79467.042    6943.7467   -86410.789    1306.5548 
   22500    273.82031   -803.21005     271660.4   -79391.217    6947.5482   -86338.765    1310.5902 
   22550    280.73102   -1415.0135    272376.17   -79413.174    7122.8914   -86536.065    1316.9145 
   22600    270.16287   -1150.7536    272473.71   -79438.683    6854.7494   -86293.433    1317.9442 
   22650    271.77647   -1077.6322       272011   -79427.063    6895.6907   -86322.754    1317.4036 
   22700    275.40136   -853.89384    271430.47   -79454.076    6987.6638    -86441.74    1318.6929 
   22750    278.50356   -727.15548    271117.99   -79436.976    7066.3748   -86503.351    1322.0616 
   22800     275.4396   -953.65315    271324.94   -79454.086    6988.6339    -86442.72    1325.1178 
   22850      274.249    -1049.135    271711.18   -79437.252    6958.4253   -86395.677     1327.205 
   22900    275.32404   -1169.1693    272060.67   -79381.418    6985.7019   -86367.119    1331.0959 
   22950     274.2034   -1110.2716    272056.59   -79395.969    6957.2683   -86353.238    1333.9528 
   23000    270.80477    -1013.352    271578.28   -79460.516     6871.036   -86331.552    1335.0925 
   23050    272.28865   -743.25628    271158.45   -79455.946    6908.6861   -86364.632    1335.4188 
   23100    276.79162   -1015.2251    271252.14   -79498.932    7022.9383   -86521.871     1338.859 
   23150    272.60919   -1371.6275    271612.64   -79492.957    6916.8191   -86409.776    1342.8127 
   23200    272.12249   -1070.0543    271773.37   -79452.975    6904.4701   -86357.446    1345.6837 
   23250     276.9737    -1088.448    271879.58    -79447.61    7027.5581   -86475.168    1348.8135 
   23300    270.77202   -989.97593    271533.72   -79465.717    6870.2052   -86335.922    1351.4802 
   23350    271.96404   -866.59715    271170.96   -79484.572    6900.4498   -86385.022    1354.2473 
   23400    275.36073   -955.11076    271317.21   -79473.013    6986.6328   -86459.645    1357.0913 
   23450    274.96747   -1089.1103    271779.54   -79485.273    6976.6547   -86461.928    1362.8206 
   23500    275.97134   -1111.1183    272091.97   -79507.674    7002.1257     -86509.8    1365.5734 
   23550    272.55729   -1148.9159    272030.84   -79500.989    6915.5021   -86416.491     1369.996 
   23600    272.64309   -1010.8412    271642.24    -79517.44    6917.6792   -86435.119    1370.9857 
   23650    267.83751   -904.37444       271101   -79555.598    6795.7487   -86351.346    1371.2934 
   23700    274.78082   -688.57024    270842.17    -79577.39    6971.9191   -86549.309    1372.4898 
   23750    272.27317   -928.73183     271174.9   -79570.501    6908.2932   -86478.794    1376.4717 
   23800    277.10357   -1156.2481    271781.68   -79540.952    7030.8533   -86571.805    1380.5903 
   23850    270.81201   -1151.6183    272160.33   -79497.189    6871.2197   -86368.408    1383.0255 
   23900    273.29166   -1013.8615    272044.63   -79511.406     6934.135   -86445.541    1385.0579 
   23950    269.29619   -1267.6806    271704.25   -79549.842    6832.7594   -86382.601    1388.3321 
   24000    274.28214   -883.41752    271048.51     -79548.6    6959.2662   -86507.866    1389.6209 
   24050     271.6247   -892.64729    270828.23   -79539.239    6891.8399   -86431.079    1395.1484 
   24100    276.94007    -929.1389    271100.32   -79544.115    7026.7049    -86570.82    1398.2553 
   24150    270.27972   -1131.1567    271468.12   -79511.923    6857.7141   -86369.638    1402.8385 
   24200    270.69577   -1014.0696    271768.19   -79514.618    6868.2704   -86382.888    1406.3506 
   24250    273.30287   -1167.8828    271960.75   -79454.304    6934.4195   -86388.724    1408.6487 
   24300    274.15357   -1083.0313    271693.25   -79492.001    6956.0039   -86448.005    1408.9582 
   24350    268.83283   -998.89025    271337.09   -79525.791    6821.0028   -86346.794    1410.9333 
   24400    274.83066   -910.93101    271232.16   -79541.228    6973.1835   -86514.411    1414.1688 
   24450    273.22022   -1064.6841    271498.39   -79543.546    6932.3225   -86475.869    1419.2923 
   24500    273.71398   -1131.1381    271735.28   -79545.624    6944.8503   -86490.475    1425.0189 
   24550     272.1008   -1009.6706    271539.93   -79573.465    6903.9197   -86477.384    1427.9723 
   24600    269.62736   -969.19652     271466.7   -79595.791    6841.1619   -86436.953    1431.2773 
   24650    272.53538   -1183.8475    271377.33   -79587.195    6914.9462   -86502.141    1433.5518 
   24700    276.00246   -870.44269    271007.51   -79600.482    7002.9153   -86603.398    1437.5246 
   24750    270.34662   -816.80454    271035.76   -79583.324    6859.4115   -86442.735    1442.2436 
   24800    277.30721   -1139.1122    271364.28   -79609.018    7036.0203   -86645.038    1447.6076 
   24850    271.44078   -1182.3402     271575.1   -79598.446    6887.1733   -86485.619    1451.7413 
   24900    271.33639    -926.8256     271379.5   -79641.505    6884.5248    -86526.03    1454.6072 
   24950    269.34766   -933.71504    271115.06   -79648.682    6834.0654   -86482.747    1455.0465 
   25000     274.0187   -873.77319    271036.47   -79621.316     6952.582   -86573.898    1455.8695 
   25050    271.06353   -821.68997    271123.39   -79604.043    6877.6016   -86481.644    1458.8104 
   25100    269.74043   -1166.0779    271576.11   -79617.959    6844.0309   -86461.989    1461.1764 
   25150    272.99346   -1057.5429    271619.88   -79601.244     6926.569   -86527.813    1463.0487 
   25200    272.47241    -1070.702       271498   -79567.024    6913.3485   -86480.373    1465.9826 
   25250     275.5126   -959.41426    271258.42   -79561.378    6990.4861   -86551.865    1467.8576 
   25300    275.09677   -862.05986    271005.88   -79536.663    6979.9354   -86516.598    1469.1319 
   25350    273.39103   -1034.1894    271285.12   -79543.147    6936.6562   -86479.803    1471.4824 
   25400    275.18322    -1235.948     271811.6   -79560.495    6982.1289   -86542.624    1475.3984 
   25450     274.0875   -1006.2968    271743.79    -79580.36    6954.3275   -86534.688    1477.9092 
   25500     270.9447   -909.94424       271571   -79598.927    6874.5865   -86473.513    1480.0305 
   25550    270.23295   -1163.8185    271515.78   -79600.109    6856.5275   -86456.636    1481.2029 
   25600    273.56159   -1111.7672    271224.92   -79612.598     6940.984   -86553.582    1481.5934 
   25650    274.89282   -981.64318    271043.04   -79600.163    6974.7606   -86574.924      1484.62 
   25700    272.58708    -810.0746    271355.27   -79566.644    6916.2579   -86482.901    1488.1479 
   25750    270.69693   -1108.7778    271925.97   -79572.147    6868.2998   -86440.446    1492.9602 
   25800    270.07397   -996.91606    272072.78   -79546.078    6852.4938   -86398.572    1498.2195 
   25850    268.99453   -1099.0218    271746.34   -79555.594    6825.1055     -86380.7    1499.4284 
   25900    270.80053   -826.53718    270921.93   -79599.843    6870.9285   -86470.772     1498.052 
   25950    269.31257   -643.19356     270516.3   -79620.075    6833.1749    -86453.25    1497.7543 
   26000    271.28107    -828.0921    271012.09   -79644.918     6883.121   -86528.039    1501.3164 
   26050    270.76544   -1032.3761     271878.7   -79632.953    6870.0382   -86502.991    1505.0052 
   26100    266.19547   -1254.4786    272199.87   -79635.336    6754.0858   -86389.422     1509.369 
   26150    272.57059    -1027.149    271753.09   -79583.809    6915.8396   -86499.648    1510.4925 
   26200    273.64578   -1015.0407     271308.9   -79581.615    6943.1201   -86524.735     1509.734 
   26250    270.86579    -706.7683    270931.11   -79560.446    6872.5842   -86433.031    1510.6079 
   26300    275.00289   -724.16075    270930.74   -79565.494    6977.5534   -86543.047    1512.7653 
   26350    273.86144   -834.34491    271260.16   -79515.026    6948.5919   -86463.618    1516.5576 
   26400    274.56845   -1006.0757    271852.81   -79503.535    6966.5305   -86470.066    1520.8338 
   26450      270.133   -1114.4967    272059.92    -79537.28    6853.9914   -86391.272     1522.539 
   26500    273.37316   -1070.3921    271676.82   -79518.088    6936.2029   -86454.291    1520.7619 
   26550    272.57606   -1047.4661     271204.9   -79566.689    6915.9784   -86482.668    1520.3009 
   26600    271.25748   -1017.1278    271035.11   -79557.306    6882.5226   -86439.829    1522.2443 
   26650    272.04446    -910.6365    271007.72   -79584.631    6902.4902   -86487.121     1524.659 
   26700    270.83268   -1121.5096     271268.7   -79628.524    6871.7443   -86500.268    1527.8482 
   26750    270.23789   -1017.7925    271382.08   -79654.322    6856.6528   -86510.975    1529.1678 
   26800    268.46923    -859.1823    271458.85   -79651.383    6811.7773    -86463.16    1533.6943 
   26850    270.02104   -823.05775    271496.66   -79691.603    6851.1506   -86542.754    1536.6549 
   26900    272.77266   -1101.3708       271745   -79711.376    6920.9667   -86632.343    1540.3809 
   26950    269.43712    -1090.718    271711.76    -79710.04    6836.3352   -86546.375    1541.5372 
   27000    267.79498     -973.328    271367.58   -79730.853    6794.6696   -86525.523    1542.9513 
   27050    268.58997   -893.24094    270945.46   -79734.346    6814.8407   -86549.186    1542.3131 
   27100    268.78321   -918.10119     270832.3    -79770.07    6819.7436   -86589.813    1542.4218 
   27150    272.51573   -827.70219    270947.73   -79681.161    6914.4475   -86595.609    1544.0576 
   27200    266.10117   -989.44492     271414.1     -79668.1    6751.6931   -86419.793     1546.474 
   27250    269.43983   -979.28161    271793.93   -79664.449    6836.4039   -86500.853    1549.3338 
   27300    272.21182   -1275.1367    271871.42   -79643.365    6906.7367   -86550.102    1550.7582 
   27350    270.39624   -995.70481    271235.91   -79657.658    6860.6705   -86518.329    1550.4349 
   27400    274.27093   -676.65028    270426.63   -79640.321    6958.9818   -86599.303    1550.4466 
   27450    273.88758   -877.33067    270499.02   -79609.326    6949.2551   -86558.581    1552.0672 
   27500    270.80081   -683.63647     271078.2   -79567.089    6870.9356   -86438.024    1557.3087 
   27550    272.43341    -1191.304    271924.44   -79542.882    6912.3591   -86455.241    1564.1553 
   27600     273.6243   -1279.2716    272181.94   -79520.061    6942.5749   -86462.636    1567.9691 
   27650    273.29879   -1120.5489    271614.66    -79561.22     6934.316   -86495.536    1570.6585 
   27700    274.42186    -802.9466    270650.06    -79584.29    6962.8113   -86547.102    1568.7134 
   27750    274.28313   -604.29113    270504.79   -79556.602    6959.2912   -86515.893    1569.4683 
   27800    274.30864   -986.45818    271339.25   -79601.523    6959.9385   -86561.462    1574.4599 
   27850    270.10041   -1174.8234    272072.31   -79557.909    6853.1644   -86411.074    1579.4274 
   27900    269.68493   -1004.4993    271880.42   -79486.523    6842.6227   -86329.146     1581.847 
   27950    273.62186   -878.18418    271130.59   -79502.115    6942.5132   -86444.628    1581.8893 
   28000    271.64128   -826.69714    270787.93   -79515.748    6892.2606   -86408.008    1581.6208 
   28050     270.0507   -788.48475    271139.14   -79493.916    6851.9034   -86345.819    1584.4155 
   28100    274.74257   -1156.6898    271816.66   -79485.028    6970.9484   -86455.977    1589.1733 
   28150    274.56855   -964.58595    271957.14   -79515.284    6966.5332   -86481.818    1591.8475 
   28200    275.02944   -910.54052     271680.5   -79542.641    6978.2271   -86520.868    1592.3568 
   28250    273.82837   -881.46466    271500.07   -79494.089    6947.7527   -86441.841    1593.8669 
   28300    275.78641   -930.05855    271522.24   -79503.432    6997.4334   -86500.865    1596.8221 
   28350    275.43811   -1136.1965    271530.53   -79530.068    6988.5961   -86518.665    1599.7497 
   28400    275.60957   -654.12179    271324.08   -79527.228    6992.9467   -86520.175    1600.3272 
   28450    274.77468   -1104.7252    271678.41   -79516.366    6971.7631   -86488.129    1604.4543 
   28500    272.83983   -1008.6255    271867.32   -79466.035    6922.6708   -86388.706     1608.288 
   28550    272.16955   -885.34674    271739.71    -79427.69    6905.6642   -86333.354    1610.0781 
   28600    280.81262   -835.03444    271366.56   -79406.869    7124.9618   -86531.831    1609.3253 
   28650    274.11214   -821.50324    271230.82   -79417.109    6954.9527   -86372.062    1610.7203 
   28700    279.04111   -1029.5177    271346.66   -79380.614    7080.0138   -86460.628    1615.9728 
   28750    272.99043   -810.87092    271716.66   -79405.894    6926.4921   -86332.386    1620.5796 
   28800    269.56001   -1090.6359    272279.46   -79463.879    6839.4532   -86303.332    1625.6533 
   28850    271.78071   -1155.5687    272307.78   -79468.708    6895.7982   -86364.506    1627.9282 
   28900    271.71304   -1091.8125    271750.46   -79478.507    6894.0813   -86372.588    1627.2349 
   28950    274.91881   -940.89572    270984.83   -79507.836      6975.42   -86483.256    1628.2512 
   29000    274.02572   -757.09852     270548.7   -79553.153      6952.76   -86505.913    1629.3059 
   29050    273.01513   -785.07977    270854.94   -79559.864    6927.1186   -86486.983    1634.2846 
   29100    275.02264   -908.12366    271704.25   -79534.716    6978.0545   -86512.771    1642.6949 
   29150    272.84957    -1348.423    272604.98   -79529.745     6922.918   -86452.663    1649.2831 
   29200     272.9781   -1402.3702    272609.24    -79517.94    6926.1791   -86444.119    1652.2706 
   29250    277.59447   -1255.6291    271910.58   -79484.961    7043.3087    -86528.27     1653.522 
   29300    269.91197   -920.63758    271086.84   -79533.564    6848.3834   -86381.947    1654.2354 
   29350    275.60894   -811.15628    270676.89   -79568.482    6992.9306   -86561.413    1657.1841 
   29400     271.5782   -774.95836    270736.16   -79584.529      6890.66   -86475.189    1660.1816 
   29450    273.08938   -1140.3691    271261.96   -79586.373    6929.0028   -86515.376    1664.3521 
   29500    278.13391   -1192.4442    271657.26   -79590.891    7056.9959   -86647.887    1669.9111 
   29550     273.3927   -1231.7814    271849.32   -79544.604    6936.6988   -86481.303     1675.117 
   29600    269.30945   -792.51622    271604.66   -79519.632    6833.0959   -86352.728    1676.2234 
   29650    272.72362   -992.51566    271293.95   -79504.804    6919.7224   -86424.526    1675.6525 
   29700    272.27535   -1000.0087     271111.2   -79536.989    6908.3486   -86445.338    1676.6256 
   29750    275.02294   -637.86541    271115.63   -79522.783    6978.0622   -86500.845     1679.911 
   29800    271.80827    -1091.625    271601.06   -79495.528    6896.4975   -86392.025    1685.1824 
   29850    279.50061    -1172.262    271759.35   -79487.841    7091.6725   -86579.514     1687.429 
   29900    274.36556    -1009.579    271651.49   -79451.084    6961.3828   -86412.467    1687.9977 
   29950    274.61688   -864.37124    271526.34   -79444.641    6967.7594     -86412.4    1690.8331 
   30000    273.77291   -1008.9546    271490.86   -79480.464    6946.3457    -86426.81    1694.5557 
   30050    275.73922   -994.35731    271632.53   -79503.755    6996.2361   -86499.992    1696.5018 
   30100    273.45057   -883.96934     271728.8   -79463.016    6938.1671   -86401.183    1700.9592 
   30150    270.85743   -884.96234    271882.51   -79459.147     6872.372   -86331.519    1704.9388 
   30200    269.99828   -1077.6779     272047.5   -79454.718    6850.5732   -86305.291     1708.471 
   30250    273.24186   -1198.4445    272090.69   -79460.657    6932.8714   -86393.529    1709.7163 
   30300    272.70329   -726.38294    271758.59   -79445.616    6919.2065   -86364.822    1709.0078 
   30350    276.74911    -1114.926    271592.25   -79468.942    7021.8597   -86490.802    1711.8821 
   30400    274.53519   -1014.7374    271471.91   -79534.942    6965.6866   -86500.628    1714.7903 
   30450    271.77223   -1046.2878    271446.84   -79556.649    6895.5832   -86452.232    1717.4779 
   30500    274.81966   -948.58123    271524.46    -79509.95    6972.9046   -86482.854    1723.1261 
   30550    278.69233    -1132.895    271480.37   -79509.473    7071.1643   -86580.638      1725.16 
   30600    272.09517   -967.43989     271301.5   -79541.114     6903.777   -86444.891    1724.8339 
   30650    278.74152   -1142.7178    271020.37   -79577.655    7072.4124   -86650.067     1725.507 
   30700    273.61987   -993.15255    270753.03   -79578.598    6942.4627   -86521.061    1727.2883 
   30750    269.47046   -823.95232    270858.68   -79610.392     6837.181   -86447.573    1730.1817 
   30800    272.41156   -1106.4557    271217.98   -79646.737    6911.8046   -86558.541    1735.7182 
   30850    271.43991   -1128.1768    271528.89   -79655.554    6887.1513   -86542.705     1741.391 
   30900     271.2299    -1038.683     271469.5   -79638.586    6881.8228   -86520.409    1745.2496 
   30950    271.67163   -1119.1979    271416.84   -79646.686    6893.0307   -86539.717     1747.941 
   31000    270.30664   -1000.2128     271182.4   -79655.285    6858.3973   -86513.682     1749.593 
   31050    272.51891   -1051.9466    271020.56   -79651.713    6914.5284   -86566.241    1751.6654 
   31100    275.30337   -1119.8078     270884.9     -79627.9    6985.1775   -86613.077    1753.7987 
   31150    271.53656   -859.63877    270823.55   -79597.983    6889.6034   -86487.587    1755.5392 
   31200    272.69681   -1135.0111    271082.97   -79584.413    6919.0421   -86503.456     1760.049 
   31250    274.05417   -1053.9769    271484.64   -79578.319     6953.482   -86531.801    1766.9401 
   31300     271.6724   -1198.6393    272022.93   -79564.711    6893.0502   -86457.761    1770.3706 
   31350    272.37019   -1329.1078    272267.45   -79578.822    6910.7549   -86489.577    1775.2549 
   31400    270.99167   -1082.4918    271810.29   -79610.694    6875.7781   -86486.472    1777.4879 
   31450    269.67624   -795.94306     271014.9   -79606.924    6842.4023   -86449.326     1775.247 
   31500    271.14833   -781.23208    270717.95   -79608.092     6879.753   -86487.845    1777.1713 
   31550    276.51986   -922.17343    271013.37   -79621.137    7016.0431    -86637.18    1781.2542 
   31600    273.98283   -1045.1001    271523.78   -79626.445    6951.6719   -86578.116    1787.9503 
   31650    272.62025   -830.63922    271669.84   -79570.322    6917.0996   -86487.422    1791.9726 
   31700    269.10824   -1003.5997    271432.54   -79583.744    6827.9905   -86411.734    1795.8792 
   31750    274.18562   -1122.7949    271101.94   -79583.408    6956.8172   -86540.225    1797.5094 
   31800    271.77622   -851.18148    270998.23   -79586.143    6895.6842   -86481.827    1799.7643 
   31850    269.66281   -897.10732    271098.19   -79620.037    6842.0615   -86462.099    1804.1114 
   31900     272.5475   -1043.8727    271262.63   -79647.048    6915.2537   -86562.301    1806.9103 
   31950    272.13043   -1090.5957     271439.6   -79610.543    6904.6716   -86515.215    1810.5256 
   32000    270.45866   -1023.6924    271547.49   -79631.349    6862.2544   -86493.603    1812.1095 
   32050    269.61535   -928.47161    271461.11   -79642.657    6840.8573   -86483.514    1813.8031 
   32100    272.67555   -1005.0785    271206.74   -79626.572    6918.5027   -86545.075    1813.1906 
   32150    264.93249   -910.16574    271026.87   -79658.898    6722.0406   -86380.939    1814.1567 
   32200    268.96872   -1137.9287    271175.37   -79625.474    6824.4506   -86449.925    1818.8433 
   32250    271.83452   -862.31582    271344.23    -79604.66    6897.1634   -86501.823      1823.85 
   32300    273.61019   -920.71915    271848.43   -79619.323     6942.217    -86561.54    1829.2107 
   32350    275.10136   -1174.4886    272080.48   -79615.135    6980.0519   -86595.187    1832.2944 
   32400    273.50468   -813.88318    271810.35   -79618.126      6939.54   -86557.666    1833.6661 
   32450    270.34506   -1028.7512    271671.91   -79651.131     6859.372   -86510.503    1836.8181 
   32500    274.85822   -947.25574    271342.54   -79638.094    6973.8828   -86611.977     1836.586 
   32550     266.2046   -914.37824     271012.9   -79653.789    6754.3175   -86408.106    1836.5641 
   32600    269.45362   -960.02125    270832.18   -79606.054    6836.7537   -86442.808    1837.3343 
   32650    273.91867   -912.91121    270814.71    -79608.57    6950.0439   -86558.614    1839.4889 
   32700    269.73151   -993.68705    271209.93   -79614.697    6843.8047   -86458.501      1843.19 
   32750    272.60625   -1019.1932    271767.99   -79590.262    6916.7445   -86507.007    1849.9584 
   32800    272.73819   -1177.1274    272046.18   -79608.028     6920.092    -86528.12    1853.6654 
   32850    268.00993   -1097.6216    272043.32   -79589.945    6800.1236   -86390.069    1855.5112 
   32900    272.09252   -1055.5227    271605.83   -79622.877    6903.7096   -86526.587    1853.8554 
   32950    271.12571   -1025.3128    271092.91   -79667.686    6879.1791   -86546.865    1853.6595 
   33000    271.44984   -739.64465    270799.79   -79615.837    6887.4032    -86503.24    1855.5452 
   33050    272.77396   -1024.5144     270969.3   -79606.945    6920.9996   -86527.945    1857.9929 
   33100    273.09785   -1155.2426     271295.5   -79616.967    6929.2177   -86546.184    1859.6948 
   33150    268.22238   -1131.6047    271359.92   -79629.338     6805.514   -86434.852    1863.2564 
   33200    270.99126   -777.81101    271107.35    -79658.71    6875.7678   -86534.478     1865.707 
   33250    266.58927   -898.39544     271011.4   -79665.108    6764.0776   -86429.185    1868.1679 
   33300    269.80628   -938.36992    270977.43   -79657.986    6845.7018   -86503.687    1869.4717 
   33350    275.00845    -936.8459    271190.29   -79692.173    6977.6947   -86669.867    1872.2149 
   33400    268.80109   -1110.5039    271630.56   -79655.263    6820.1973   -86475.461    1877.8896 
   33450    273.25897   -1019.3935    271634.83   -79646.803    6933.3056   -86580.109    1882.3003 
   33500    268.39364   -1011.5101    271439.51   -79669.243    6809.8592   -86479.102    1883.7137 
   33550    267.65045   -858.85182    271371.91   -79642.876    6791.0025   -86433.879    1886.4717 
   33600    273.31766   -1124.3063    271418.98   -79661.723    6934.7946   -86596.517    1889.9662 
   33650     270.3848   -1138.0714    271192.96   -79665.998    6860.3803   -86526.378    1893.1225 
   33700    267.86308   -807.08627     270827.2   -79633.098    6796.3974   -86429.496    1895.8374 
   33750    269.56576    -997.8724    270984.64   -79607.103     6839.599   -86446.702    1899.7051 
   33800    274.29792   -1030.1561    271386.56   -79614.547    6959.6666   -86574.213     1901.404 
   33850     272.0418   -1230.0091    271834.24   -79612.236    6902.4227   -86514.659    1904.0426 
   33900    275.30544    -914.6459    271859.41   -79631.782      6985.23   -86617.012    1905.9889 
   33950    266.67218   -714.46627    271748.04   -79638.572    6766.1813   -86404.753    1906.7314 
   34000    270.69936   -861.52438    271695.88    -79608.28    6868.3616   -86476.641    1907.6569 
   34050    271.16625   -1033.7956    271579.93   -79622.772    6880.2077   -86502.979    1906.7357 
   34100    268.01888   -956.88968    271282.06   -79640.699    6800.3506   -86441.049    1906.8398 
   34150    269.69738   -892.49071    271063.85   -79646.161    6842.9387     -86489.1    1910.0327 
   34200    267.99861   -803.21541    271188.49   -79655.061    6799.8364   -86454.897    1914.8525 
   34250    271.31323   -1160.7886    271650.05   -79638.575    6883.9371   -86522.512    1918.8393 
   34300    273.35264   -954.49319    271693.25   -79595.973    6935.6822   -86531.655    1917.8235 
   34350    271.25303   -984.56603    271329.66   -79616.614    6882.4095   -86499.024    1917.5053 
   34400     270.9211   -960.16432    270959.04   -79661.537    6873.9877   -86535.524    1919.3943 
   34450     271.9395    -864.4456    270709.35   -79624.395    6899.8271   -86524.222    1922.0374 
   34500    274.11238   -944.04525    270868.95   -79666.551    6954.9589    -86621.51    1926.0587 
   34550    269.97847   -1074.7898     271305.6   -79700.998    6850.0706   -86551.068    1928.6452 
   34600    269.04296   -974.90442     271605.1   -79724.414    6826.3343   -86550.748    1931.6232 
   34650      266.946   -1183.2113       271883   -79692.745    6773.1289   -86465.874    1935.5358 
   34700    271.67727   -1152.0405    271772.52   -79665.441    6893.1738   -86558.615    1937.1925 
   34750    271.65244   -920.15196    271225.29    -79694.88    6892.5436   -86587.424    1935.9197 
   34800    272.78686   -1017.2166    270767.36   -79672.355     6921.327   -86593.682    1936.5741 
   34850    271.63585   -931.62373    270700.88   -79704.761    6892.1228   -86596.884    1938.1972 
   34900    269.83248    -975.4849    270944.22   -79700.971    6846.3663   -86547.337    1940.4702 
   34950    266.96663   -728.45278     271283.3   -79651.512    6773.6524   -86425.164    1941.5866 
   35000    269.89776   -1295.8398    271936.36   -79645.427    6848.0227    -86493.45    1947.1967 
   35050     271.9291   -1088.5826    271976.25   -79632.097    6899.5632   -86531.661    1949.4126 
   35100    266.76456   -1020.4781    271594.09   -79662.261    6768.5253   -86430.786    1949.4433 
   35150     272.2499     -980.895    270967.86   -79693.061    6907.7028   -86600.764    1946.6417 
   35200    274.49404   -1114.2861    270938.84   -79688.225    6964.6426   -86652.868    1948.5384 
   35250    269.81641   -1163.4573    271421.26   -79638.727    6845.9588   -86484.686    1951.6547 
   35300    275.08727   -1049.9634    271756.66   -79607.794    6979.6945   -86587.488    1954.8309 
   35350    273.90137    -1248.554    271741.11   -79588.523     6949.605   -86538.128    1955.3235 
   35400    273.59049   -848.19912    271232.94   -79636.209    6941.7172   -86577.927     1957.257 
   35450    269.15707   -659.33398    270786.48   -79623.383    6829.2295   -86452.612    1957.2743 
   35500    273.45566   -1054.0926    270910.03   -79596.825    6938.2962   -86535.121      1958.05 
   35550    273.78458   -1281.0267    271278.42   -79634.242    6946.6417   -86580.883    1960.8898 
   35600    274.69524   -947.76947    271486.38   -79550.512    6969.7475   -86520.259    1964.9902 
   35650    273.76642   -1160.6383    271665.27   -79541.836    6946.1809   -86488.017    1967.4206 
   35700    271.62847   -1034.3439    271538.15    -79591.16    6891.9354   -86483.095    1969.2581 
   35750    272.58863   -1068.4665    271313.49   -79590.687    6916.2972   -86506.984    1974.0391 
   35800     270.7538   -953.39725    271182.33   -79609.809    6869.7427   -86479.552    1976.7304 
   35850    276.49694   -889.31089    271359.31   -79582.656    7015.4616   -86598.117    1981.7577 
   35900    270.36468   -1003.3311    271795.97   -79571.083    6859.8698   -86430.953    1987.2579 
   35950    272.31941   -1159.7124    271812.14   -79581.886    6909.4664   -86491.352    1989.3708 
   36000     273.8726   -1061.5611    271320.06   -79615.011     6948.875   -86563.886    1987.9406 
   36050    270.46898   -788.33657    270740.29   -79656.367    6862.5162   -86518.883    1988.7093 
   36100    273.66885   -840.02718    270670.57   -79628.563    6943.7054   -86572.268     1991.766 
   36150    271.19854   -1051.5666    271150.21   -79618.169    6881.0271   -86499.196    1997.8126 
   36200    272.66474   -1360.4216     271883.6   -79606.843    6918.2285   -86525.072     2004.733 
   36250    276.15564    -1175.184    272034.67   -79590.006    7006.8017   -86596.808    2008.9568 
   36300    271.08194    -1056.062    271499.97   -79636.022    6878.0687    -86514.09    2008.8208 
   36350    270.38176   -895.86257    270707.88   -79580.811    6860.3031   -86441.114    2006.6817 
   36400    273.05667   -835.62405    270338.62   -79634.333    6928.1726   -86562.505    2006.1399 
   36450    269.87607   -739.91667    270481.59    -79612.69    6847.4723   -86460.163    2010.3955 
   36500    274.04243   -1086.1413    271181.44   -79604.445     6953.184   -86557.629    2016.4913 
   36550     271.4049   -1081.2821    271945.54   -79557.874     6886.263   -86444.137    2023.5462 
   36600    269.47314   -1152.1162    272322.45   -79527.182     6837.249   -86364.431    2026.5093 
   36650    271.19293   -944.04124    271901.33   -79554.037    6880.8848   -86434.921    2023.7863 
   36700    274.93895   -1065.9087    271092.92   -79556.526    6975.9311   -86532.457    2023.1507 
   36750    275.50272   -735.63828    270473.34   -79592.655    6990.2354   -86582.891    2021.7001 
   36800    273.25108   -758.30488    270760.92   -79549.581    6933.1054   -86482.686    2026.3313 
   36850    273.26722   -1009.5083     271697.4   -79544.928    6933.5151   -86478.443    2031.6514 
   36900    269.45116   -1264.7791    272450.03   -79540.656    6836.6915   -86377.348     2035.869 
   36950    268.63584   -1066.4298    272208.36   -79573.079    6816.0046   -86389.083    2037.7269 
   37000    273.84283   -1256.2265    271585.76   -79603.523    6948.1198   -86551.643    2036.6037 
   37050    270.04045   -1106.3301    270893.01   -79621.952    6851.6432   -86473.595     2036.704 
   37100    274.26146   -731.60011    270626.48   -79590.093    6958.7415   -86548.835    2037.3843 
   37150    273.29644   -1007.1397    270987.24   -79599.623    6934.2563   -86533.879    2041.3904 
   37200    270.43565   -1071.4612     271476.9   -79602.018    6861.6705   -86463.689    2044.1017 
   37250    269.70751   -1046.1713    271664.75    -79594.75    6843.1957   -86437.946    2046.3651 
   37300    271.94182   -933.44928    271658.67   -79603.308    6899.8859   -86503.194    2048.3818 
   37350    274.55464   -1122.7369    271403.49   -79606.474    6966.1803   -86572.655    2049.4652 
   37400    269.95082   -816.72298    270991.28   -79597.574    6849.3691   -86446.943    2049.2485 
   37450    275.05093   -884.08681    270983.62   -79602.931    6978.7723   -86581.703    2052.2177 
   37500    269.72738   -975.19787    271151.92   -79601.531    6843.6997    -86445.23    2056.3838 
   37550    274.75119   -1084.9877    271364.15   -79593.222    6971.1671   -86564.389    2060.9438 
   37600    273.99224   -993.89558    271530.19   -79607.422    6951.9105   -86559.333    2063.0717 
   37650    274.24049   -1022.9134    271323.68   -79608.649    6958.2093   -86566.859    2065.4203 
[...]
   90850    273.39502   -991.58349    271358.23   -79440.345    6936.7575   -86377.102    4630.7096 
   90900    276.57376    -775.9113    271276.05   -79452.444    7017.4106   -86469.854    4633.4549 
   90950    271.13124   -892.36504    271676.87   -79471.855    6879.3194   -86351.175    4642.5365 
   91000    278.26447   -1177.0609     272241.5   -79443.082    7060.3084   -86503.391    4651.3889 
   91050    274.30613   -1016.7128     272137.5    -79468.32    6959.8747   -86428.194    4654.7893 
   91100    277.29513   -1200.1145    271870.56   -79424.579    7035.7137   -86460.293    4653.3591 
   91150     276.2447   -952.50835    271636.35   -79444.337    7009.0614   -86453.399    4655.2716 
   91200    279.30394   -924.70187    271557.74   -79473.297    7086.6826    -86559.98    4658.1276 
   91250    272.05484   -1078.5245    271598.06   -79477.257    6902.7538   -86380.011    4662.2449 
   91300     273.7476    -987.5812    271792.31   -79474.905    6945.7035   -86420.609    4666.0841 
   91350    276.67866   -1247.6228    271946.91   -79480.992    7020.0723   -86501.064     4670.595 
   91400    272.92741   -848.39167    271634.33   -79518.881    6924.8932   -86443.774    4671.9586 
   91450    272.16215   -933.67404    271514.73   -79538.081    6905.4763   -86443.558    4675.3526 
   91500     265.9209   -817.91929    271557.11   -79535.459    6747.1193   -86282.578    4678.9518 
   91550    275.01703   -1031.4528    271693.27    -79523.27    6977.9123   -86501.182    4679.7829 
   91600    273.47593    -1079.863    271631.37   -79546.104    6938.8105   -86484.915    4684.0018 
   91650    274.28974   -1040.1079    271652.87   -79597.226    6959.4591   -86556.685     4685.993 
   91700    268.71629   -1153.0729    271686.32   -79608.468    6818.0457   -86426.514    4689.8047 
   91750     273.4396   -1122.3045    271214.94   -79567.648    6937.8886   -86505.537    4685.4775 
   91800    268.05044    -831.1441    270972.28   -79572.089    6801.1514   -86373.241    4685.8519 
   91850    273.39197   -900.50129    271096.34   -79600.358    6936.6801   -86537.039    4692.0413 
   91900    271.59209   -861.67971    271588.17   -79576.934    6891.0125   -86467.946    4703.9178 
   91950    266.10549   -1142.3459    272024.32    -79614.01    6751.8027   -86365.813     4710.514 
   92000     274.3593   -1201.4739    271820.52   -79580.866    6961.2238   -86542.089    4711.6344 
   92050    268.72338   -998.91842    271218.37   -79635.117    6818.2257   -86453.342    4706.1144 
   92100     269.5633   -855.09797    270796.38   -79580.312    6839.5367   -86419.849    4704.4522 
   92150    275.83966   -957.80415    270677.76   -79590.562    6998.7847   -86589.347    4703.6356 
   92200    273.37669   -854.59136    270752.16   -79580.831    6936.2924   -86517.123    4707.1849 
   92250    273.98749   -1022.4677    271342.25   -79555.503      6951.79   -86507.293    4717.7219 
   92300     273.0447   -1059.9767    272042.48   -79555.642    6927.8691   -86483.511    4730.9468 
   92350    268.62147   -1251.9387    272338.06   -79562.189    6815.6398   -86377.828    4737.5828 
   92400    272.79096   -1125.2831    271848.34   -79571.496    6921.4309   -86492.926    4735.6925 
   92450    270.84864   -1085.8316    271157.43   -79570.304     6872.149   -86442.453    4730.0232 
   92500    270.71904   -645.83111    270432.45   -79593.749     6868.861    -86462.61    4724.8202 
   92550    268.16391    -773.9241    270552.35   -79603.803    6804.0305   -86407.833    4727.1466 
   92600    272.34375   -989.64541    271444.63   -79628.719    6910.0841   -86538.803    4737.9893 
   92650    274.28263   -1268.2736    272196.36   -79604.553    6959.2786   -86563.832    4748.0254 
   92700    274.99134   -1228.2725    272072.88   -79597.702    6977.2604   -86574.962    4745.9655 
   92750    269.26391    -1096.296    271450.02    -79659.58    6831.9404    -86491.52    4740.0341 
   92800    266.59942   -873.67266    270904.63   -79654.796    6764.3351   -86419.131    4734.0775 
   92850    270.43116   -1050.9213    271101.05   -79635.029    6861.5564   -86496.585    4740.9547 
   92900    267.96167   -1159.2997    271579.34   -79636.898     6798.899   -86435.797    4749.2308 
   92950    268.21039   -935.03489    271932.38   -79615.246    6805.2096   -86420.455    4754.4067 
   93000    270.02137   -1210.6135    272055.09   -79579.823    6851.1592   -86430.982    4756.5118 
   93050    273.39901   -1062.0209    271733.03   -79558.073    6936.8589   -86494.932     4751.439 
   93100    272.02579   -1019.3336    271458.55   -79526.763    6902.0167   -86428.779    4749.9595 
   93150    271.86917   -1116.3318    271305.49   -79545.792    6898.0427   -86443.835    4750.8376 
   93200    274.29879   -808.57287    270970.33   -79529.899    6959.6886   -86489.588    4751.3435 
   93250    275.80266   -1056.6609    270882.59    -79507.65    6997.8458   -86505.495    4752.1618 
   93300    274.89752   -903.31374    271214.63   -79528.634    6974.8799   -86503.513    4759.9011 
   93350    274.31825   -1157.7305    271755.62   -79568.023    6960.1824   -86528.206    4768.0898 
   93400    271.45484   -1113.9924    271991.02   -79574.832      6887.53   -86462.362    4772.2693 
   93450    272.55418   -1080.8345    271819.52   -79574.191    6915.4233   -86489.614    4771.6923 
   93500    272.93438   -770.55044     271510.6   -79570.575      6925.07   -86495.645    4772.1461 
   93550    268.87693   -905.71265    271259.42   -79562.166    6822.1217   -86384.288    4771.8743 
   93600    276.95297   -1141.2756    271338.04   -79536.018    7027.0323    -86563.05    4772.9784 
   93650    277.01421   -997.57248    271492.26   -79553.048     7028.586   -86581.634    4776.3588 
   93700    272.90147   -873.70805     271478.7   -79541.862    6924.2349   -86466.097    4779.6718 
   93750    276.48199   -995.67386    271248.66   -79536.853    7015.0821   -86551.935    4779.0389 
   93800    275.31294   -763.00968    271016.96   -79537.203    6985.4204   -86522.623    4778.0019 
   93850    270.33627   -1040.3579    271411.92   -79535.362    6859.1489   -86394.511    4790.0595 
   93900    273.56596   -1120.9883    271743.03   -79519.487    6941.0948   -86460.582     4798.622 
   93950    276.34195   -1046.8625    271682.89   -79520.284    7011.5291   -86531.813    4798.7452 
   94000    272.05577   -830.76682    271388.53   -79507.816    6902.7773   -86410.593    4792.8043 
   94050    277.67185   -1004.9416    271111.02   -79479.558    7045.2722    -86524.83    4791.0414 
   94100    275.76367   -1013.3395    271229.98   -79493.293    6996.8565    -86490.15    4796.0157 
   94150    273.64668   -1025.3623    271551.59   -79481.188    6943.1427   -86424.331    4800.1816 
   94200    273.71292   -1111.8564    271875.25   -79469.543    6944.8235   -86414.367    4806.1116 
   94250    272.73421   -998.16688    272044.01   -79438.133    6919.9911   -86358.124    4811.5253 
   94300    275.00966   -1078.7554    272175.47   -79419.747    6977.7252   -86397.472    4818.3864 
   94350    271.51749   -787.20064    272250.64   -79423.888    6889.1197   -86313.007    4819.9751 
   94400    273.77814   -983.91763    272149.06   -79449.668    6946.4784   -86396.146    4817.2235 
   94450     273.6511   -783.03293    271654.44   -79456.078     6943.255   -86399.333    4814.2913 
   94500     273.8195   -887.25137    271421.92   -79437.668    6947.5278   -86385.195    4815.7866 
   94550    272.67524   -1037.6846     271678.8   -79473.498    6918.4949   -86391.993    4823.4795 
   94600    277.82023   -1123.2168    272006.67   -79456.055    7049.0368   -86505.092    4831.0497 
   94650    272.06351   -980.79513    271888.55   -79431.053    6902.9737   -86334.027    4830.9214 
   94700    279.93184   -988.44876    271600.76   -79393.216    7102.6142    -86495.83    4830.2001 
   94750    275.06253   -812.12235    271606.04   -79440.106    6979.0668   -86419.173    4830.0636 
   94800    269.84619   -1060.1166    271858.23   -79442.271    6846.7142   -86288.985    4835.8522 
   94850    270.32929   -882.66675    271880.13   -79454.934    6858.9718   -86313.905    4840.5459 
   94900    270.67865   -876.36902    271831.67   -79454.295     6867.836   -86322.131    4842.0957 
   94950    276.37454   -1021.1777    271899.25   -79488.323    7012.3559   -86500.679    4847.0756 
   95000    267.14302   -1280.7071    272176.96   -79485.578    6778.1276   -86263.705    4854.9042 
   95050    273.91157   -992.47146    271827.19    -79457.24    6949.8637   -86407.104    4854.9055 
   95100    272.90855   -1035.2081    271172.14   -79487.188    6924.4146   -86411.602    4848.6603 
   95150    276.35641   -659.09921     270568.3   -79517.563    7011.8958   -86529.459    4844.8474 
   95200    281.80982   -953.35698    270563.22   -79532.324    7150.2635   -86682.588    4849.4716 
   95250    273.74562   -674.71769    271084.11   -79515.314    6945.6533   -86460.968     4858.528 
   95300    270.16281   -898.71055    271963.05   -79543.935    6854.7477   -86398.683    4870.7914 
   95350     273.0879   -1187.4001    272798.94   -79544.755    6928.9652   -86473.721    4883.4079 
   95400    272.21848     -1320.54    272773.72   -79490.981    6906.9055   -86397.887    4888.1057 
   95450    274.63763   -1007.8093    271835.18   -79522.688    6968.2858   -86490.974    4877.2599 
   95500     272.2852   -881.79919    270691.38   -79535.213    6908.5986   -86443.812    4868.0494 
   95550    275.59554    -524.1593     270269.6   -79547.895    6992.5906   -86540.486    4868.9757 
   95600    277.50138   -979.83216    270964.54   -79549.659    7040.9468   -86590.606    4879.8221 
   95650    269.15426   -1148.5974    271875.12   -79568.719    6829.1582   -86397.878    4896.2955 
   95700    270.41625   -1335.6046     272492.2   -79541.225    6861.1782   -86402.404    4908.5924 
   95750    272.89376   -1097.8635    272378.23   -79533.012    6924.0392   -86457.052    4910.5039 
   95800    273.75104   -857.67298    271706.37    -79568.41    6945.7907     -86514.2    4903.6987 
   95850    272.48042   -907.50907    271258.56   -79562.129    6913.5516    -86475.68    4899.6779 
   95900    269.88802   -671.82968    271097.59   -79566.324    6847.7756     -86414.1    4902.5121 
   95950    271.31967    -1026.032       271112   -79565.915    6884.1005   -86450.015    4905.8234 
   96000    275.43725   -1138.3338    271051.96   -79573.836    6988.5744    -86562.41    4908.6145 
   96050    277.32417   -913.80252    271234.45   -79552.545    7036.4504   -86588.995    4915.2347 
   96100    273.91377   -928.90237    271524.17   -79486.732    6949.9196   -86436.652    4924.0777 
   96150    272.96722   -1106.7557    271871.53   -79509.655    6925.9031   -86435.558    4928.3056 
   96200    273.47601   -889.70002    271707.83     -79471.8    6938.8125   -86410.612     4930.064 
   96250    274.24126    -717.4075    271428.03    -79472.04     6958.229   -86430.269    4929.7522 
   96300    269.67688   -898.41504    271376.11   -79470.342    6842.4185    -86312.76    4933.2368 
   96350    269.53574    -898.8771     271560.2    -79472.88    6838.8374   -86311.718    4935.8117 
   96400     271.6146   -1064.7611    271689.93   -79499.776    6891.5837    -86391.36    4939.7841 
   96450    274.46381   -1048.7979    271463.77   -79475.412    6963.8756   -86439.287     4939.532 
   96500    272.45836   -1004.3139     271211.1   -79480.112    6912.9919   -86393.104     4937.086 
   96550    275.26903   -867.70857    271162.49   -79469.044    6984.3061   -86453.351    4936.9313 
   96600    269.94125   -905.81214    271472.85    -79459.81    6849.1263   -86308.936    4941.3954 
   96650     272.9699   -1318.2551    271735.49   -79494.604    6925.9711   -86420.575    4947.7761 
   96700    276.12719   -879.02014    271448.64    -79503.15      7006.08    -86509.23    4946.9077 
   96750    274.93022   -1127.8845    271287.91   -79495.348    6975.7096   -86471.057    4946.9558 
   96800     274.5283   -833.90012    271277.81   -79502.763    6965.5119   -86468.275    4953.0245 
   96850    276.40085   -1034.8757    271523.67   -79537.469    7013.0235   -86550.492    4963.7166 
   96900    275.40351   -971.91589    271711.08   -79491.005    6987.7184   -86478.723    4972.3846 
   96950    280.70455   -1067.4591    271791.56   -79507.292    7122.2197   -86629.512    4976.3835 
   97000    272.87622   -923.64333    271792.18   -79512.705    6923.5943     -86436.3    4982.2262 
   97050    274.01172   -1068.9665     271773.6   -79494.489    6952.4049   -86446.894    4984.2326 
   97100    274.96637     -1038.39    271414.26   -79538.898    6976.6269   -86515.525    4985.0853 
   97150    275.52671   -839.52238    271023.37    -79541.61    6990.8443   -86532.454     4985.913 
   97200    273.44013   -876.77062    271108.74   -79537.471     6937.902   -86475.373    4989.2738 
   97250    271.59071   -984.25881     271634.5   -79532.427    6890.9773   -86423.405    4998.2342 
   97300    273.02916   -1357.6757    272202.59    -79547.62    6927.4747   -86475.095     5006.409 
   97350    271.56863   -981.74492    272125.68   -79561.608    6890.4172   -86452.025    5009.3853 
   97400    273.56531   -1026.1351     271840.2   -79586.413    6941.0782   -86527.491     5007.348 
   97450    274.13052   -1103.4684    271568.47   -79609.172    6955.4191   -86564.591    5004.5323 
   97500    268.38067   -1064.8952    271277.88   -79609.057    6809.5303   -86418.587    4999.6589 
   97550    272.37327   -970.81234    271070.36   -79577.776     6910.833   -86488.609    4994.7546 
   97600    269.14589   -724.51626    271084.65   -79557.676    6828.9459   -86386.622    4995.4458 
   97650    269.21665   -867.95857    271486.15   -79540.841    6830.7413   -86371.583    5001.2886 
   97700    271.69188    -1113.194    271600.86   -79537.551    6893.5444   -86431.096    5006.1071 
   97750    272.90135    -833.9023    271022.24   -79546.718    6924.2319    -86470.95    5005.3475 
   97800    272.97468   -821.94647    270450.41   -79592.199    6926.0925   -86518.291    5003.5739 
   97850    275.38009   -824.26991    270695.77   -79617.943    6987.1242   -86605.067    5010.4472 
   97900    269.69328   -1229.7083    271433.57   -79648.455    6842.8345    -86491.29    5024.8515 
   97950    270.70973   -1110.3628    272139.97   -79597.305    6868.6246   -86465.929    5036.9514 
   98000    272.13536   -1242.8175    272326.61   -79609.785    6904.7967   -86514.582    5042.5557 
   98050    272.84738   -940.97245    271671.23   -79617.421    6922.8626   -86540.284     5035.441 
   98100    271.65136   -734.73617    270913.95   -79645.797    6892.5163   -86538.313    5028.5297 
   98150     275.0611   -1063.6637       270693   -79661.355    6979.0304   -86640.385    5027.7108 
   98200    267.41194   -772.86511    270823.61   -79677.235     6784.951   -86462.186     5031.576 
   98250    272.11155    -1071.165    271282.83   -79659.148    6904.1924    -86563.34    5037.7385 
   98300    267.95485   -1268.4424    271596.03   -79690.976     6798.726   -86489.702    5041.7074 
   98350     272.5606   -1090.0412    271451.02   -79696.043    6915.5861   -86611.629    5039.3365 
   98400     269.1325   -881.65353    271151.19   -79665.218     6828.606   -86493.824    5038.6392 
   98450    272.43523   -892.00935    271008.59   -79649.937    6912.4051   -86562.342    5041.5751 
   98500    272.79485   -970.20165    271127.56   -79660.029    6921.5296   -86581.558    5047.2979 
   98550    266.61739   -1027.0192    271308.83   -79683.063     6764.791   -86447.854     5056.057 
   98600     270.3094   -1290.4688    271430.35   -79689.805    6858.4672   -86548.272    5059.7834 
   98650    271.42705   -871.00332     271405.5   -79691.841     6886.825   -86578.666    5064.0051 
   98700    273.10965   -1165.8958    271420.73   -79677.043    6929.5171    -86606.56    5063.3454 
   98750     272.7215   -979.65528    271370.38   -79667.134    6919.6686   -86586.803    5065.0406 
   98800    265.93457   -989.23241    271252.42   -79664.983    6747.4662   -86412.449    5064.3989 
   98850    271.98399   -969.68366    270958.58   -79652.851    6900.9559   -86553.807    5065.5277 
   98900    266.42281   -833.13871    270795.06   -79658.924    6759.8541   -86418.778    5064.7522 
   98950     270.0152   -960.58484    271086.46   -79638.489    6851.0025   -86489.491    5073.7421 
   99000    269.75752   -1084.4947    271684.95   -79606.435    6844.4644   -86450.899    5086.4487 
   99050    274.25401   -940.56551    271947.33   -79612.495    6958.5525   -86571.048    5091.6201 
   99100    270.45142   -1095.8727     271834.2   -79617.632    6862.0706   -86479.703     5092.835 
   99150    273.32688   -934.08769    271400.92   -79631.493    6935.0287   -86566.521    5088.0768 
   99200     273.8145   -1100.9696    271091.09   -79652.806     6947.401   -86600.207    5086.2456 
   99250    272.02595   -960.78784    271063.49   -79678.944    6902.0206   -86580.965    5086.0358 
   99300    272.39428   -1159.4864    271438.94   -79702.992    6911.3662   -86614.358    5093.3609 
   99350    270.68271   -1008.7786    271718.77   -79720.612    6867.9389   -86588.551    5103.8858 
   99400    274.32034   -1162.4021    271732.08   -79694.224    6960.2354   -86654.459     5109.441 
   99450    272.25411   -1077.0688    271109.23   -79697.298    6907.8097   -86605.108    5102.6385 
   99500    269.18391   -771.66079    270337.51   -79737.414    6829.9105   -86567.325    5096.0445 
   99550    276.83043   -833.72817    270137.81    -79697.25     7023.923   -86721.173    5096.1492 
   99600    269.66699   -779.01197    270707.59   -79694.053    6842.1675    -86536.22     5104.787 
   99650    273.00606   -1086.1233    271621.77   -79684.454    6926.8887   -86611.343      5120.78 
   99700    267.74858   -1255.4633    272236.52   -79664.164    6793.4925   -86457.656    5133.8692 
   99750    272.61927   -1158.8937    272051.79   -79676.606    6917.0747   -86593.681    5136.4565 
   99800    272.00993   -1180.0009     271363.8    -79677.14    6901.6141   -86578.754    5131.6977 
   99850    268.42461   -938.08358       270822   -79674.743    6810.6451   -86485.388     5125.461 
   99900    268.06055   -725.86498    270622.11   -79695.214    6801.4078   -86496.622     5124.103 
   99950    271.53964   -1008.9645    270854.19   -79680.873    6889.6817   -86570.555    5129.6422 
  100000     270.6274   -1072.4413     271215.6   -79639.416    6866.5357   -86505.952     5139.136 
Loop time of 343.45 on 6 procs for 100000 steps with 8513 atoms

Performance: 251.565 ns/day, 0.095 hours/ns, 291.163 timesteps/s
99.6% CPU use with 6 MPI tasks x no OpenMP threads

MPI task timing breakdown:
Section |  min time  |  avg time  |  max time  |%varavg| %total
---------------------------------------------------------------
Pair    | 164.57     | 221.61     | 287.21     | 332.8 | 64.52
Neigh   | 36.065     | 38.695     | 41.752     |  36.7 | 11.27
Comm    | 8.2979     | 76.949     | 136.63     | 590.8 | 22.40
Output  | 0.13468    | 0.13697    | 0.14551    |   1.0 |  0.04
Modify  | 4.9517     | 4.9938     | 5.0553     |   2.0 |  1.45
Other   |            | 1.065      |            |       |  0.31

Nlocal:        1418.83 ave        1435 max        1398 min
Histogram: 1 0 1 0 0 1 0 1 1 1
Nghost:        2168.83 ave        2237 max        2137 min
Histogram: 2 0 2 0 1 0 0 0 0 1
Neighs:        0.00000 ave           0 max           0 min
Histogram: 6 0 0 0 0 0 0 0 0 0
FullNghs:      44575.7 ave       45673 max       43479 min
Histogram: 1 0 0 2 1 0 0 0 1 1

Total # of neighbors = 267454
Ave neighs/atom = 31.417127
Neighbor list builds = 20794
Dangerous builds = 0

# Create data file for import to other simulations
#
write_data data.${NAME}
write_data data.coexist_272K_-1000atm_mW
System init for write_data ...

Total wall time: 0:05:43
