LAMMPS data file via write_data, version 29 Oct 2020, timestep = 200000

4608 atoms
1 atom types

0.07285828379079362 53.327141716210676 xlo xhi
-0.15639422643720025 51.06351422644021 ylo yhi
-0.15639422643720025 51.06351422644021 zlo zhi

Masses

1 18.015

Atoms # atomic

4605 1 0.45376246511618756 39.71665968494221 4.954402301171561 2 0 1
4205 1 10.85915384316405 50.0391053237844 25.124424384449558 2 -2 1
2176 1 8.546526727165196 1.9872711110680283 1.4051383888271631 0 1 -1
1968 1 11.151999475491234 2.337100641746165 3.196776795423731 0 2 0
3939 1 1.7117055479864052 48.124164291814495 4.765817529885267 2 -1 2
2432 1 1.3762687635702504 22.34055798889943 10.68525803308433 1 -1 0
1603 1 1.282513018833049 45.28251978687113 3.56745342302146 1 0 1
1362 1 14.727343804613774 1.5894304694946264 2.5505944667510985 -1 0 3
2314 1 14.642823290135471 27.664291064363013 0.30797155821596 1 0 1
4468 1 11.324467831832544 7.07003036953358 1.147520784709039 0 0 1
3521 1 15.07219208978491 5.940248485933875 2.7994982328558153 0 -1 -1
3266 1 12.433240488572187 3.9460625048856928 0.8394490202641319 1 0 1
1088 1 3.567248301246611 6.2251388880030945 1.76932072265285 0 1 1
3706 1 9.90446001066867 9.733569603434205 3.5948938929270313 0 0 0
236 1 14.451521826844363 15.206390071720659 2.671624608112443 -2 1 0
807 1 15.15804279879469 9.004587231548495 1.1635268809327486 0 0 2
3876 1 0.890295677829902 11.455246871388772 15.627821566600751 2 1 1
492 1 0.7654630395072204 46.11516354607285 8.395995345921186 1 0 1
657 1 11.621307076736985 20.405313782368076 24.786324220322 0 0 0
3472 1 8.526536473365539 14.415983935600504 4.114113103543438 0 0 0
691 1 13.73882437836771 10.647862172729479 3.5193865001977134 -1 0 1
4432 1 0.19637723614586672 8.80634844803463 20.73996986675135 0 1 0
987 1 7.537157052719216 13.711129928967589 0.14466953770622437 -1 0 1
3976 1 2.005750022452299 46.6891162468077 22.02670445056697 0 -1 0
2532 1 3.6362464943498347 14.805127457999184 6.434725972885404 0 0 1
48 1 11.092605895363254 13.304596012966284 3.4552967713524962 1 -1 0
683 1 15.905791031306245 12.25817316973935 2.670310328106905 0 0 0
813 1 1.7618774956635714 50.5982902822821 6.111623667504634 0 0 0
621 1 0.09722519200022188 11.429751335457626 18.4374386751839 -1 1 0
438 1 4.5584601092099355 15.53458018809314 2.118670352282045 0 -1 -1
1431 1 0.12166519738374915 35.438350005247734 6.101871296585235 1 0 2
4013 1 11.041806890146564 17.383182313900942 0.8409429238231613 1 0 1
4241 1 10.10595669750287 32.54157089580376 1.3673018794035452 1 0 1
4273 1 8.962016095623028 45.69380892781949 1.1570744655422527 1 -2 1
2584 1 4.1309640762184285 22.174350725525393 1.8509847602679148 0 -1 1
3337 1 3.883769791678362 11.255455161192687 -0.00434389668191465 1 0 -1
2242 1 1.076958862084009 41.538861476533484 8.242641405401363 1 0 0
1895 1 11.732351279515592 19.826687561988955 1.6724775492034458 0 1 1
1981 1 2.0612759076242293 29.264322479556533 9.880987971601186 -1 1 0
3060 1 6.027086515641956 21.491064149311427 0.14389771522287914 1 -1 0
1613 1 0.8565897556145882 1.0768291564139654 19.233537152633115 0 1 -1
1073 1 8.462207403627307 20.771111720388355 1.3596987093907207 1 1 0
1009 1 10.568589338220349 43.363637423411895 0.27512780054132424 0 0 0
1291 1 10.482246734998698 33.407758800603894 24.71709119088569 -1 0 0
1566 1 8.195748038027954 4.985450543039894 0.8649762356155704 0 2 1
1598 1 5.300129647195817 26.11521547636212 2.0745065796260165 0 0 -1
2728 1 17.662840882805853 9.962586123319939 6.236512516610114 -1 1 0
1384 1 7.716629920331911 25.380395699171963 3.8714264951685777 0 0 0
978 1 1.0082147247002848 38.86298329493081 9.256349619852061 0 0 0
975 1 1.0360050839773967 31.144029523532165 18.300222038920985 0 1 1
2013 1 3.7362931270966935 29.835800808790147 2.9000738152377274 1 1 1
1695 1 1.3459967766655656 47.394907702274615 18.241070722006945 0 0 0
888 1 8.410899803507519 35.34649478917879 25.16531711153377 1 -1 1
351 1 16.875510416190984 40.78898024827108 14.14706604585845 0 1 0
727 1 17.341356958638134 3.7568053779200463 2.360778761461247 -1 0 0
2447 1 17.6279028558533 31.622362067715297 2.7438546148213363 -1 -1 1
1089 1 0.4951275339162675 21.231841745687884 20.111879973537164 0 -1 2
3613 1 7.561278273120654 32.50819946017338 2.9313585324322435 1 0 -1
3500 1 17.067679133121114 48.54859084572244 10.070821184393216 1 0 0
3144 1 0.8665784252783605 31.020494902851507 2.8795203857901353 0 0 0
157 1 0.6625849271460487 35.77999266576565 3.05499984074065 0 0 1
2292 1 10.103136506371625 37.2646677672535 1.2854998688775716 1 0 1
2907 1 1.5981053655635895 26.525011989575397 7.700585397149523 1 0 1
4073 1 2.863545131717177 14.961609494182287 21.231440513546143 0 0 0
3941 1 17.384081336596218 39.81701299447131 24.70410579576625 1 -1 0
1001 1 7.4579818056237235 38.20164466201581 4.83532362170221 0 0 1
3200 1 1.6810663007927424 37.48689339656371 7.095884555479298 1 0 0
1810 1 14.585625297071811 35.82776143628821 2.195109878374938 1 0 1
200 1 0.5263175334566429 28.76105185905447 1.5361527990285035 0 1 0
1612 1 0.20345245227624784 19.019520229316473 22.35715904439212 1 -1 0
1599 1 3.8696751183803118 39.02126119721102 2.736485428549149 0 1 0
937 1 8.029936761173005 35.79212032408286 3.0422428802030654 0 0 2
1281 1 8.33394719387615 40.19506231909879 2.8055931758264525 0 0 0
2911 1 0.1285411550247443 30.499778464282645 22.778653968037478 1 0 0
413 1 0.6114762314816304 1.9622114867682652 13.901301201404612 0 1 1
3250 1 4.115516742233378 41.70082493392051 2.107350391554185 1 0 1
4113 1 6.788276845662923 42.509765040654436 2.593761555466338 1 1 1
3197 1 5.464456408768227 10.951231062287853 2.5409998276116084 1 -1 1
2357 1 7.125219275580457 9.054436195081296 1.3274814629371472 0 0 1
2806 1 15.215907447001715 42.39747689594391 3.684272909574935 0 -1 1
56 1 15.644629999458314 40.60804306147973 1.38192119734496 0 -1 0
3615 1 6.541348448469703 45.09258807574144 2.728351760273047 1 0 0
2463 1 17.412793767104727 16.001295007744275 1.5154641336326427 0 1 1
2168 1 3.4391314957015298 1.9866561891892984 13.206709609623875 1 1 -1
2994 1 16.528173280840054 46.69509276518791 2.798966171659508 0 2 0
1670 1 10.964147492314252 29.06638975063057 -0.13793689435820675 1 -1 -1
2185 1 16.59188252031137 26.04802962584449 11.281312583414547 0 -1 0
2913 1 17.25644825828224 45.97678052029138 9.065694963960354 1 -1 1
629 1 4.648104550550123 49.81848241303077 2.1880850375552674 1 -2 0
1121 1 0.1456689660403594 18.57556248179156 6.7190865138029165 1 0 0
3756 1 15.863510791462378 33.18268289997955 11.57499348411301 0 -1 0
2795 1 7.722496369903964 50.51085191736738 0.876577604049031 0 0 0
3681 1 14.356527240326505 49.527540243285294 1.5348546552184255 1 -1 0
4594 1 17.265200757410543 46.74012085640481 0.2175807150663855 0 -1 2
356 1 9.578028690113896 51.06306679210036 22.440678787305735 0 0 1
1709 1 0.10443623803805291 22.144376541336307 15.754767777171592 0 0 0
2153 1 3.2826246704479383 8.58940787207442 0.26401317157953247 1 1 0
4291 1 6.809842875997561 4.180903713914317 3.2006385099612977 1 1 1
3702 1 5.262753085113441 2.049728951683597 1.9811523964734805 0 0 0
2388 1 7.286576922388961 0.7295668570883794 4.1549505099015365 1 1 1
3342 1 2.9147209169279047 13.696692821868107 1.126373220060713 1 -1 1
581 1 4.355468235587993 3.61447527379953 0.08060311733037481 -1 1 1
4155 1 8.064818071938824 3.6797319068581076 5.837913000724031 -1 0 1
3780 1 8.750504322969823 7.251457169207464 2.794757972570765 0 1 0
2374 1 11.734822102814032 2.5763434366885054 7.068127287347171 0 2 0
4191 1 0.4580208782785915 33.47948069498689 22.7303245627301 1 1 1
2400 1 2.6677864493016576 8.857739466039366 5.468062098186684 1 0 1
2035 1 5.6101740742472135 10.353781316916221 5.324498357413624 0 0 1
1996 1 9.650071787608837 6.00244047651389 5.138501095117366 0 1 0
3960 1 12.005017971125119 6.556360533516919 3.762227588320395 1 0 0
3626 1 13.091195156329192 8.547817851539575 5.450602617815664 0 0 -1
1424 1 0.8685861418901183 8.532553197767896 3.15917552516947 0 0 0
2766 1 15.523636427379873 40.49186142984139 22.31065050561296 -1 0 0
2549 1 0.5647933819519715 18.162491381231984 17.18479297436299 0 1 1
1052 1 2.851252188928105 12.185746262607172 6.13137520767816 0 1 0
1220 1 7.5075414214002185 14.665408542349978 6.814575062216831 1 0 1
115 1 10.563642191135846 9.562231808609157 6.454339371619792 0 -1 0
2387 1 12.597615524889319 17.579700189050413 22.65271723940295 0 0 0
1354 1 2.827884771725311 18.432197057209336 0.22076921205664218 1 0 0
2582 1 0.23259180383222766 2.479291940123907 16.65208894889571 0 0 1
4314 1 4.685395517965089 11.927704408527708 9.250311567463685 0 0 1
4071 1 10.136620605758617 17.742924137417557 5.627198286317952 0 0 1
205 1 15.09344073592483 13.96708279507185 5.717591071341588 0 1 1
3712 1 0.32594975853174285 5.324456439701441 19.307605644420402 2 1 0
4199 1 3.1396444026545476 17.38077416325663 3.8851431182303937 1 0 1
1083 1 3.723654404106342 14.78599633289302 9.127043556232854 0 0 1
2776 1 5.519883274440237 16.63247371324154 6.146938491560897 1 -1 1
3251 1 11.396435957311875 16.34914673974612 3.3713870124611747 0 0 0
334 1 13.914377641400495 16.51628262731433 5.395857218687756 -1 2 0
3826 1 7.397743126245509 45.849173664829365 24.88402660490206 1 -1 -1
2250 1 2.454556455639196 22.05274613769849 5.227481682874884 1 0 0
3735 1 1.0084653978961922 18.29520191927819 2.393517370621487 1 0 0
2604 1 6.890824787023552 16.88019418586749 3.5130633121083883 0 0 1
3904 1 8.080775266980396 19.376990617210915 4.7678771064350105 1 0 2
2329 1 17.45812213257367 21.098519467196297 3.4040857804028377 1 1 0
3428 1 12.964171405566876 19.140304134336947 4.132751453779005 0 0 0
4317 1 16.665679570022515 16.747404750908903 7.663668629376767 0 0 0
1064 1 2.856658885361045 24.785896245457224 1.504429366021763 0 0 1
892 1 0.34707023593100966 23.487021778702697 6.396085919441456 1 0 1
4058 1 5.090973320446044 23.310532416650904 4.604359767045921 1 1 -1
3236 1 7.066054519605781 21.195430018423508 6.761892513222432 0 0 0
803 1 11.318949439276448 21.785539943485155 4.139678971270637 0 -1 0
4428 1 13.485466597065335 22.166515759206813 0.9198553237256062 1 0 2
2792 1 3.591701019826909 25.13009175113702 6.229799001507998 0 0 0
870 1 3.8216353324445156 27.43751210668095 4.574111059059554 -1 0 0
3087 1 8.373850932756733 22.42706831294093 4.31868541026859 1 0 1
1179 1 11.515513547610293 24.022565951478594 2.079936212846197 0 0 0
2827 1 12.025092187326164 24.388500191470328 5.620315076224904 1 -2 1
1796 1 0.2736500266000662 17.02061747545498 19.689663234099317 1 -1 1
3397 1 1.000823429898987 30.866934811456467 5.652372844203657 1 1 -1
302 1 5.520149922719019 31.67328587911839 5.905169824859808 0 0 -1
4096 1 8.591747405426817 23.666761123401326 1.4774719643544552 1 0 1
4116 1 16.25213068525088 18.007170584953272 5.130202208345964 0 2 1
75 1 3.319754263314407 34.86510418250424 4.839909104585643 0 -1 0
488 1 4.759941121816966 32.46802351103756 3.3545453478016385 0 1 0
3568 1 9.353800885492758 29.624825810224802 3.01559562495079 1 0 -1
2917 1 12.64984270852495 26.307238040655164 3.494102370278526 0 -1 -1
1110 1 14.334979784661426 28.518344905307234 2.999837745816546 0 0 0
1305 1 7.1753525207341395 31.41526857228009 9.338600187603156 0 0 0
4388 1 8.691365539277447 33.478807583808894 5.423639637319288 1 1 1
4340 1 12.523810422406406 30.430915785254964 1.9321345732779944 1 2 1
50 1 0.41207186753489716 39.48049056945431 0.19517669940356575 0 -1 1
1542 1 14.986978864854716 31.812059880980957 1.723238001203952 1 0 0
2858 1 8.842315048332157 11.118499166678024 0.23942682013336553 0 0 0
3717 1 4.65246197631704 38.06238108626197 5.382095703729795 0 -2 0
2567 1 11.021802918604825 38.30492116690758 5.942530224012627 0 -1 1
674 1 7.306919821140192 37.100486292656235 8.83038113097447 0 -1 -1
4480 1 11.612861146619919 36.91240865099576 3.620111234604327 0 -1 1
1013 1 15.845362719025578 34.39537023123195 5.941583224774087 0 1 1
93 1 14.23895310810169 37.80623634752804 3.848841796482417 1 -1 0
3731 1 6.65760285158453 42.54883596937161 5.794551912310267 1 0 0
1136 1 12.930044602587289 40.4548949347248 3.19131477033782 0 0 0
1636 1 13.985901980314827 41.04917569854866 6.067464015179467 0 -1 -1
2054 1 1.0264797497820357 50.15616372805656 17.483464089530187 1 -1 0
1328 1 5.096924141279772 40.469898317773314 6.721936920659088 1 -1 2
2248 1 4.596807613651833 44.651869468571014 5.083628119969407 0 1 0
792 1 16.801326136369713 42.67204746334441 21.10990909066179 0 -1 0
2501 1 10.32347122765779 40.705119342352425 4.794705326941161 0 0 0
2460 1 9.136788608126231 41.48653090379694 7.169964758347461 0 1 0
712 1 11.257901583313293 43.61079447169353 4.851424566150663 1 1 -1
220 1 15.449217516926138 44.38344641278743 5.865641374836648 0 0 -1
1450 1 3.1774835364281606 46.94036357282942 6.657098713776493 1 -1 1
1118 1 1.822261080885627 48.57803025083472 2.0243039883394585 1 0 0
2541 1 8.866499390112661 48.165008190817474 2.432845884238881 0 0 0
4423 1 10.28607692665345 48.36321193190744 5.259482445575525 0 -1 1
1420 1 11.651251841867827 45.175678718057505 2.4393782849428725 0 0 0
3844 1 12.185204573373444 47.99552856781291 3.107520459062504 0 0 1
914 1 13.949484234658119 46.920171678257674 5.337326593822411 0 0 0
4368 1 3.7293434099694824 0.34060757408016196 3.9776383507598796 1 0 1
2650 1 12.448473425732521 0.17204838011136736 3.570637172411179 0 0 1
1380 1 14.37790420599556 3.6996667965643915 6.978688737245463 -1 2 1
1343 1 5.962212177935495 50.26841052931721 25.30125188253275 0 0 0
3419 1 5.413045022747988 1.937258728861175 6.071811099015095 1 -1 0
2552 1 5.168453614138572 2.0398708808676895 10.315783875632572 1 2 0
4090 1 13.302251294758578 4.0004525320520825 4.19064478790956 0 1 0
1060 1 15.479372650735616 4.711690767121169 9.568906398744028 0 1 2
317 1 2.746809195238883 6.039708761625431 4.707023589128525 -1 0 0
3746 1 9.595357833163558 2.443301230731152 10.503197074895862 0 0 1
764 1 5.773273155362188 6.848760152632708 3.445918401939712 -1 0 0
3865 1 9.692130286176385 1.1683237436691962 5.516669002931809 0 1 0
1557 1 10.072290972776624 5.218270550415765 9.860040190606123 0 0 -1
2037 1 13.761511930408373 6.955055087704383 7.570172004916581 0 1 1
2747 1 6.363312015406385 13.456788344701161 2.8632429149102516 0 0 2
57 1 7.367865207442701 6.253276938836097 9.252347879146331 0 -1 0
2818 1 4.754065045444581 6.348759542086612 11.004944901829077 0 1 2
1308 1 11.354370262977692 5.341521418655148 7.502949010661381 0 0 0
2157 1 16.2617947950598 5.909174477866432 6.485624033302445 1 0 1
3863 1 17.007746393497726 9.87776145347895 9.196695761510734 1 1 0
34 1 1.9898930747693733 7.67514167185312 10.210644291245451 -1 0 1
47 1 0.9867408729479069 11.611362964791875 4.09871411474445 -1 1 0
3490 1 8.492723198897853 7.7654355526796985 7.013611175933892 1 0 0
53 1 5.684127026235275 7.853416440455161 6.573266766920865 0 -1 0
1069 1 12.839997000674682 12.435033091303394 5.469296726176814 -1 1 1
3183 1 15.12591774882906 11.991568889033205 10.230857518872632 1 0 1
1148 1 17.24023950884143 23.277164688463685 12.35026622158901 -1 0 0
2065 1 1.4002226083389502 12.977081199759562 9.657257704536656 0 0 0
4082 1 9.341591618773464 15.243586023202926 10.709706316326331 1 1 1
1847 1 10.265449596923197 15.378052378497157 7.940856783013778 1 1 0
67 1 16.113276335283476 12.039646386529414 13.140220703265124 0 0 1
776 1 2.973465713763565 19.255955237394275 5.9958247357123335 0 -1 1
556 1 1.5645586869723813 16.911236833714334 9.229569229123369 1 0 0
849 1 13.122076373405024 16.627371966335133 8.559679704423788 0 0 0
2765 1 1.663104746005204 16.574693907212133 24.25272069090967 0 1 1
3094 1 5.871323822923557 18.706167522835088 7.955292873340085 1 2 0
4395 1 9.548091145018416 20.861711090797446 8.541533037817935 0 0 1
3547 1 11.74394775310147 19.091846556890967 7.5570523252952535 2 -1 1
1120 1 14.90866528273766 20.57786649251725 5.647822784841046 -1 1 0
652 1 2.4673041196273537 49.08185811081534 24.955268194216927 0 -1 0
3653 1 1.3931449077501106 28.27535775197545 18.266404874506147 1 1 -1
2507 1 2.6700573370434126 26.569159290776494 10.468357331823897 1 1 0
1917 1 9.178534609900197 23.79629351762887 6.927425281303227 1 -1 0
4186 1 14.71398597121162 23.510342668525745 6.152043474187095 1 0 1
1594 1 11.01588061093705 1.7273037770860447 -0.12918965696210535 1 0 0
3604 1 2.5563568727321484 42.90458594636461 4.149570784788327 1 0 0
2062 1 3.55080035804759 29.804000371038796 6.345972377769078 0 1 -1
4320 1 5.892623360364476 27.630974407248594 9.912598978192184 1 1 1
3238 1 7.389902270844349 25.840220508461822 7.681434951005604 1 0 0
2742 1 11.71287520432203 29.737584410161755 7.444877309847296 1 0 1
1978 1 14.690834702237899 27.130844262484434 7.095324218572556 1 0 0
4509 1 15.265368524415164 25.187437667822557 2.4959908769982966 2 0 0
3356 1 9.047310275381538 27.13985920692254 5.775885368463565 1 -1 1
1856 1 4.61127694766533 29.943043467206504 9.052836520459993 0 0 0
1943 1 11.894576668634558 26.926920954705626 6.602992849248524 0 -1 1
1177 1 7.668329194303185 29.89384758817761 5.141158048681995 1 0 0
1963 1 0.8937262787208925 4.036654233302001 4.268614699770079 3 0 1
3643 1 8.11728259663476 22.63730368155299 24.599648626780617 1 0 1
618 1 1.5810486364345222 33.225496088227445 6.914407863069107 -1 0 0
1 1 4.8314480075733774 33.991776839969496 7.003601857957224 0 0 0
3492 1 3.57007580820055 32.209200050334715 10.858189417536195 2 0 -1
3651 1 3.391692023749497 30.09985065326327 13.880602964487426 0 -1 1
655 1 11.333777381558665 30.978687415976687 4.46852632712171 0 -1 0
1489 1 13.14856653489972 32.599594752390466 6.740829765923706 0 0 1
4088 1 15.682393641849565 37.46742236763582 20.81980942568325 0 0 1
4068 1 0.6587213027634792 48.80376952918978 8.232101770250404 0 -1 0
2149 1 2.5016165347585946 34.48478484417584 9.267735781100674 2 -1 -1
1462 1 9.882736783056995 36.60230201932954 7.90999416648404 2 0 0
3505 1 6.196692916408878 33.700692679000596 9.821102332295931 0 0 0
1189 1 10.724058270449111 33.75119552884136 7.947720668405507 0 1 1
1706 1 14.180166285117815 33.58567512224276 3.8511603535799566 0 0 0
1684 1 8.082902167755964 34.834955060826225 11.251841348474136 0 0 -1
54 1 15.074963175694402 33.9323708588249 8.7636754042121 0 -1 1
3441 1 16.912682115439935 3.0400218811289856 0.09947329183848175 0 1 1
4433 1 5.407728670052682 40.50586407564409 10.007327695252922 1 0 1
3243 1 8.085998695739228 39.877156195771576 9.383782675113228 1 0 -1
4136 1 11.137805515770015 36.93370131547003 10.320331194049565 1 0 0
716 1 11.278510413843485 33.74252678050447 3.9891538900186525 1 0 1
1015 1 12.335412565016757 42.504375109555106 7.467118838560442 0 -1 0
1469 1 15.798227622775563 39.0515667150106 8.34193914743128 1 0 1
1741 1 1.3453006669307244 1.860713054799405 9.675756671659457 1 1 -1
217 1 2.9702033143272573 43.92128915447497 8.525797074163261 0 0 0
735 1 5.844780559902572 45.28017639079777 7.928716302780323 0 0 0
110 1 8.101686470892199 43.88272445658413 8.75841396175205 1 0 0
1733 1 7.080310919630955 46.529000360130375 5.510138938631588 0 0 1
3835 1 12.540616190641982 45.517509266860074 7.33000339403773 1 -1 1
3745 1 9.935106972800448 45.638597350207434 6.165762823505254 1 -1 0
2967 1 16.34327750811865 42.031297294058554 7.734433540241827 1 0 1
3951 1 5.152215945018295 49.014645391316726 7.123959404839076 0 0 1
3513 1 13.2505464544201 44.169127141800736 10.334018236500766 0 0 0
798 1 3.984406539379674 0.06482851550557686 7.8771858889508 0 1 0
747 1 7.829808459481576 2.033328543220399 8.475636324540643 0 1 0
3051 1 7.514473317785723 49.2805915493782 5.468108525606269 1 -1 1
741 1 8.990237824390125 48.63550489390444 9.867474886426619 -1 1 -1
4239 1 13.658418212664392 0.13777401229006914 5.986721697814492 1 0 0
627 1 14.55061993296921 48.790555631569525 7.39527039211379 0 0 1
905 1 15.807547533839452 1.415782355607026 10.178351344511094 0 2 1
4511 1 12.461007601197682 47.32855550759328 -0.00744011126797256 1 -2 1
846 1 8.535150171972438 50.495305236321855 7.787624837569933 0 0 0
358 1 3.0306359665040876 51.017847744530606 10.789273958257978 1 0 -1
3937 1 11.56300922156236 0.5546499816709275 9.436389639082924 1 1 1
1993 1 13.544962453127885 0.15170637252054509 10.859272657254717 0 1 0
51 1 11.51267875158023 3.4764280196342323 12.584231545253038 -1 1 0
2590 1 16.292305032819137 4.170676861159669 12.344216277281916 1 0 1
1337 1 17.242996818056422 7.222700695574197 19.65126835855209 1 0 0
3031 1 4.3743238950513765 4.73243690574082 6.513489219800049 0 1 1
2277 1 3.6567624279606705 4.335140191920826 9.177480920103585 0 0 1
3635 1 5.345421173946654 4.419744322371426 12.996006109288093 1 1 1
4523 1 15.724214283277504 7.530122319108229 10.17023255525756 0 0 1
2096 1 17.796318134067054 6.755695104324932 11.89046560235004 0 1 0
4119 1 1.962259829130257 0.008644795924438203 22.981024599973583 2 0 1
1255 1 0.8052127606733104 3.7392886587885004 7.363634784020001 0 1 1
3090 1 1.602496336448926 4.509598154910412 11.439435479016552 0 0 0
4321 1 1.4851422829567422 10.263859432138073 8.188554153892866 1 0 -1
4293 1 8.577397484566179 10.804591715775734 8.018617013993328 0 1 0
4156 1 8.13430654406566 11.108927100157718 10.937459641919808 3 0 1
1595 1 16.44952892302837 22.23886074540733 1.206226830131699 0 0 2
1134 1 2.3502594008262974 23.486597178436973 14.163430359813628 0 2 1
412 1 4.544425289650314 9.00905403375194 9.294492247344426 1 -1 0
3899 1 5.617415834998928 9.554031092329163 11.957490076478047 1 0 0
360 1 6.372525025964714 12.03053092225315 7.20672270116725 0 0 -1
2780 1 12.311171233786022 12.275633220080117 10.179799522530233 1 1 0
4049 1 15.927427626241595 9.24373727251937 13.723337250716076 0 1 1
135 1 10.710784124640968 10.814529006430822 12.289165887410261 -1 -1 1
2599 1 4.972436104451714 34.38927738850353 0.6348226329960971 1 -1 1
2822 1 16.305859438998883 6.676622900156623 0.15625591468331484 1 0 0
3508 1 2.3763767173441614 11.75317371623187 11.981888530055258 1 0 1
2282 1 4.7250150803672 14.11980245993373 11.944180855120269 0 -1 1
2213 1 10.930198924650304 12.489359968281073 7.81161085779037 0 0 -1
1457 1 13.999769591808818 13.948765462275386 13.069911599943651 -1 1 1
874 1 6.735344586723656 16.25772426736248 9.53733012412168 -1 1 1
4420 1 9.912460226594158 18.023586213922947 11.95024101419576 0 0 1
2418 1 13.983451694422227 20.273112341061125 8.566650583398296 0 1 0
2315 1 15.234135199297242 18.039355750460413 9.892478656045663 -1 0 0
566 1 15.231430873941601 14.283260675046803 8.524189857565556 0 -1 0
4359 1 3.28370728961521 19.72834909741615 9.264487423161642 2 0 0
3517 1 4.137936208180727 19.726402376903376 11.812245619524486 2 0 0
1477 1 6.850862316126751 21.012265994483833 11.80891234148685 -1 0 0
2656 1 8.03499102515958 19.037722013726047 10.196775140951726 0 1 0
2544 1 10.052616898532778 24.085468069048133 9.899546471958768 0 0 1
3783 1 17.064950663866945 19.861127930159547 7.924920454621429 -1 1 0
2330 1 4.624533519367061 24.982024030056778 8.997645035920478 -1 0 0
2364 1 7.105475179692751 24.767973386018852 12.654688581778782 -1 0 1
676 1 7.115752384859021 23.272798298200712 10.25697390813657 0 0 0
162 1 8.685682836474252 27.793973968356063 10.020813658119177 0 1 0
1408 1 9.550121653439485 30.781483280447876 10.661074392931473 0 0 0
595 1 15.111604090659654 23.204624844205075 8.779934098838423 -1 0 0
1428 1 11.955097096581392 21.66892111788156 10.278760681232418 0 -1 1
251 1 13.527454107142638 23.808202958950282 12.024518977426128 -2 -1 0
3253 1 1.194543496084334 24.85577863139151 12.122378280690508 1 -1 1
1585 1 4.144206367042795 25.995776765121416 13.476440366109324 0 -1 -1
336 1 11.367743855230723 26.60597717890411 9.074716884172679 0 1 0
931 1 12.58066532014529 28.086750016333344 13.25450447828687 -1 1 1
525 1 2.913706338421949 22.352605146082897 8.35180114721404 -1 0 1
1770 1 0.9587654457684593 30.848547126686043 11.961967575804817 0 0 -1
4444 1 11.863942310642644 29.270576783109487 10.433362913583265 0 -1 1
2091 1 14.752558269730738 29.917770901326517 7.297199814243589 0 0 0
1734 1 14.512454020883046 25.829879022087766 9.609046933385011 0 -1 -2
2804 1 1.4067082985281907 26.669466501451176 3.2829096170076935 0 0 0
2117 1 13.709245911084022 11.904171454612458 24.540513136881238 1 0 0
263 1 4.403333442588481 35.08563025141454 12.112186605271189 0 1 -1
1264 1 6.129239863708239 31.06799873394235 12.117972170387466 0 0 1
997 1 9.329885916154703 31.398988803824743 7.218953194722934 -2 0 1
1404 1 16.57627676379264 30.616732113356033 12.589860407401252 0 0 -1
2412 1 15.12944143425195 7.308793782878633 25.055950662483625 1 1 0
4002 1 14.597816847040654 44.79792575932025 2.1460298530930273 1 -1 1
2634 1 3.852594426188011 37.03769969995171 14.71140758340176 0 0 0
3410 1 7.904942480268656 37.527177268700704 14.868287017052799 1 0 0
2132 1 6.467126374855381 35.28314749325805 14.011862089088684 0 1 1
4465 1 11.075070025746776 34.00516225490374 11.03535859415154 1 0 1
984 1 13.484580583489423 33.92895660735109 12.34704335595454 1 0 0
3693 1 8.211294000093236 17.692423952751213 1.0016383596233676 1 0 0
2504 1 4.641251577322556 38.86883059643468 12.378074126455136 0 0 1
2914 1 7.617201988040048 32.81520708766261 14.050850943700965 0 0 0
2947 1 8.62026182530192 37.657235790445846 12.015792092882661 -1 0 0
4133 1 15.742540439010462 38.13387981817984 10.873304728071961 0 0 1
3831 1 12.600829003280486 46.344970973504594 24.406826914915758 0 1 -1
2159 1 6.6257691353537576 42.75542675355329 10.786892412319808 0 0 0
3566 1 3.040465731002569 40.59572978394026 14.207013025948541 0 -1 0
2158 1 10.96012806480029 37.152391220790385 15.506901181203206 0 1 0
3621 1 11.062173512731459 41.91174390117179 9.680709407223588 0 -1 0
3226 1 13.64735102349363 38.426689110220785 6.632940964198423 0 -1 1
2989 1 5.6598353757634055 46.69279538851814 11.699798404236212 0 0 1
4495 1 9.20383666563761 44.687843377697384 12.843142119963225 0 0 0
1344 1 15.861925816500264 43.564187123704514 10.280653738990125 1 0 1
2898 1 13.366788913393142 41.586400862013136 12.293025759337636 0 0 1
3476 1 0.2750853183223907 37.53915590330317 21.156444517745594 1 0 0
2344 1 0.9844660465253775 50.22516894177719 12.805220275808926 1 0 1
416 1 10.17218126898793 45.2074137753029 10.171105690378006 0 1 0
773 1 17.21202227186721 26.805210442541966 21.54314947689816 0 0 1
2834 1 6.550890747813634 47.78255049054045 9.299876281704341 1 0 0
1365 1 16.840099016964672 50.77465273730709 16.035975375484597 0 -2 1
2959 1 11.68695316372324 47.7121222610943 9.235257898498253 0 -1 1
4391 1 9.182811942297075 50.77776110096044 11.737205944165911 1 -1 -1
3196 1 14.228572288144585 48.5177868642775 10.123152393289349 0 -2 0
3202 1 11.444570634670018 49.848183235678576 7.595395254460215 0 -1 0
1653 1 1.097956398230986 13.3946635778809 23.877666645603632 -2 0 0
3232 1 16.961133596038845 0.8380248943143298 3.8920528410590585 0 0 1
3151 1 7.05507122481391 1.9550182384441355 12.578300279379272 0 0 0
1980 1 12.861778924331482 1.3839241089332743 13.356960509285303 0 0 -1
3903 1 15.691339497110366 10.819250515595993 17.5105010948539 0 1 1
3388 1 14.260632862418474 49.88757450403541 16.65433490045743 0 0 0
1798 1 2.3147043747746037 3.41325261475492 20.480385678273112 1 0 -1
2226 1 7.341874237169527 6.348261399462678 13.680043150307826 0 0 0
218 1 7.196789708018095 1.6543919548327832 15.355365542925025 0 1 0
2626 1 9.843126397788986 5.108383862808653 14.820308847453166 0 0 1
271 1 15.50475089765232 1.775932100361612 13.629802778619732 0 1 0
2768 1 13.45198167964176 5.402901459655773 12.576116117132827 1 0 1
4540 1 15.972808524040438 47.67690468052789 21.958435148215273 1 0 1
3567 1 2.5181403933347375 4.951352290698096 14.173928512738613 1 0 0
3271 1 7.823932832880504 8.028149218034072 11.547159343960448 1 0 -1
4434 1 2.932812587291512 12.804545995265565 14.421817349428986 1 2 1
454 1 3.5775607017891424 7.401552128827646 13.294003117712464 0 1 -2
2829 1 5.576450639679402 11.741261358844222 13.7734895427592 1 1 1
1331 1 7.9571154075396775 8.10746774342749 15.817349836786125 0 -1 0
996 1 14.007860516797141 8.109348646477496 12.000855123063763 -1 -1 0
561 1 7.510685410949431 13.360719649644222 12.438505472193693 0 1 1
2126 1 7.914400068000527 15.398477415241842 14.379593066379254 -1 1 -1
4125 1 12.196609431234364 12.933583956762046 14.874346577297231 0 0 0
2390 1 1.709708367258242 15.348896884425004 15.322676987119536 1 -1 0
2933 1 1.5416974049097187 16.29415630646963 12.371035881179907 0 0 1
249 1 4.226993646503727 16.896508869987592 11.48831708281513 1 0 -1
1510 1 12.83747989261245 17.055129367037257 13.521698245539971 0 -1 0
3072 1 12.285824879177703 14.985787731612717 10.912131990261344 0 0 0
1609 1 15.589565768005599 16.903971537837023 12.44273329634019 0 1 -1
1075 1 1.8485540321347167 20.80660454045489 13.209710215032521 0 1 1
1248 1 11.529396670852782 20.334872878728376 12.56758059036836 0 1 0
1461 1 13.973413775921816 19.745058627415315 14.063501288969942 1 1 1
3809 1 13.938610749079466 16.059880854439662 16.845774159368553 1 1 -2
1112 1 16.568556712883836 17.14379225321465 15.769772146059346 0 1 1
1434 1 10.329690056558432 9.102228280315378 23.596406373903054 0 0 2
762 1 2.1090238120542706 33.304496031176654 2.323185315318262 0 0 1
52 1 7.612246702814561 20.018958361422758 14.360387795353388 0 2 0
1295 1 9.79726849914208 24.027068728857884 14.838368732630554 0 0 1
2470 1 15.37250001110609 22.279791004114017 14.443049589539918 1 -1 1
3707 1 16.253639147306163 22.148174044222824 17.25560218288592 2 0 0
3524 1 0.20225937949611406 27.121260626704736 22.182894299986234 1 -1 -2
4378 1 16.013544421733904 8.39721526303412 4.15043190599188 1 0 2
470 1 15.690799519284209 44.29676800912756 23.706514449277073 -1 0 0
2345 1 3.2785548833338733 27.336666883735177 15.760715911606868 0 1 2
3353 1 8.640224589889545 26.83977292823952 12.713682258254549 0 0 0
739 1 11.083946063332283 25.288723877207932 12.665587658603732 0 0 -1
255 1 6.005072434373837 28.481976176674724 12.512106046697149 0 -1 0
175 1 0.7753954652555607 29.246170975812998 14.978606050815843 0 0 0
3193 1 8.317056810127454 28.449449920488817 14.890591444266787 1 0 0