LAMMPS data file via write_data, version 29 Oct 2020, timestep = 200000

4608 atoms
1 atom types

-0.06513698974809401 57.335646989748035 xlo xhi
-0.057899546443248795 50.96501954644481 ylo yhi
-0.057899546443248795 50.96501954644481 zlo zhi

Masses

1 18.015

Atoms # atomic

5 1 1.3596242393178044 1.575226815083999 1.585008891891568 0 0 0
12 1 9.442495056412884 3.1131116975798214 0.1334112368017245 0 0 0
10 1 6.568845674788686 3.3272902145212666 3.150938688926838 0 0 0
98 1 0.05107940546754719 28.647808859094955 3.2913781707406096 0 0 0
13 1 7.8196100428810205 1.6732724733549538 1.550900092934569 0 0 0
313 1 0.1807805418999872 31.794445638454626 6.494874212363325 0 0 0
137 1 12.778669700167017 31.509419576460434 0.15994917946312553 0 0 0
21 1 13.986314128808493 1.395825521341893 1.364824457083725 0 0 0
19 1 15.674374658899717 50.85400135604317 3.2027984392117124 0 -1 0
129 1 6.30941350152764 31.366796268751774 0.07369404803953852 0 0 0
8 1 4.76840589932602 4.676128976462791 1.9866159796068175 0 0 0
16 1 11.129056870002552 4.807712784516054 1.667854578764168 0 0 0
65 1 12.631920487976693 12.5778592021067 -0.056882383447404324 0 0 0
24 1 17.398812315656425 4.404026628641576 1.628401984167483 0 0 0
796 1 3.1184418659133333 9.487835516976606 25.227115381135263 0 0 0
554 1 0.09569884278567192 47.92964466336261 15.925841199488126 0 0 0
29 1 1.6077469666120408 8.005132210837752 1.466205732000313 0 0 0
932 1 15.668306471165538 41.55906766959097 25.238353491060916 0 0 0
37 1 8.107921588672847 8.304841155365123 1.7513560054344128 0 0 0
876 1 9.575501281386797 28.34055353667304 25.416047915346933 0 0 0
45 1 14.130816736079273 7.608713896961943 1.9808764327885666 0 0 0
43 1 15.676732021701843 5.850983271035205 3.4504203819665404 0 0 0
84 1 9.495562806447476 22.226913104413804 0.003536086695424101 0 0 0
32 1 4.6001393400578765 11.439278280254566 1.4928626868840664 0 0 0
241 1 0.1797050394210194 12.848359631125964 6.720581943988084 0 0 0
697 1 0.031149261830260053 31.768265934586264 18.913801456713138 0 0 0
40 1 11.435637633570058 11.109538263799818 1.7711883741277747 0 0 0
48 1 17.636300535000668 11.051241371992825 1.7310567051785937 0 0 0
766 1 14.129774871088149 49.65422547791438 24.134179490950057 0 0 0
53 1 1.0882903407381295 14.40775444037184 1.7451506903501226 0 0 0
146 1 0.5445801687855938 41.24617347279228 2.9801785744804317 0 0 0
61 1 8.08417507664638 14.398315301674664 1.683424036863151 0 0 0
69 1 14.174076482619515 13.930532312783145 1.9914358116965043 0 0 0
67 1 16.094904888524585 12.611229335083687 3.362708907882672 0 0 0
56 1 4.625058802048082 17.583987822926673 1.8306825242642168 0 0 0
64 1 11.526810867065727 17.08074192736039 1.7173373486594086 0 0 0
66 1 13.107566161737765 15.866495424496826 3.4355075541947087 0 0 0
72 1 17.67651036239259 17.416372392606167 1.3737149369087336 0 0 0
587 1 9.661621143026892 50.8765661898113 22.46347457512861 0 -1 0
602 1 -0.04257526966472369 9.304586444784194 22.02587556560517 0 0 0
77 1 1.5698500244985774 20.71188804987279 1.1643119676256464 0 0 0
2 1 0.023407148570596212 3.238410725867583 3.542380140433912 0 0 0
83 1 9.911018157946796 18.892037098140488 2.9872927435260292 0 0 0
85 1 7.998580632627656 20.48636614953039 1.3912615155559003 0 0 0
93 1 14.56714492372888 20.616071947034335 1.471378978640476 0 0 0
91 1 16.107702182292638 18.961774859303695 3.11328428178742 0 0 0
99 1 3.125050436530318 25.454865297398836 2.9276121732548237 0 0 0
80 1 4.900916842263703 23.680136428676814 1.8147590207847841 0 0 0
82 1 6.484172107629703 21.920853021931865 3.5271446840839444 0 0 0
88 1 11.314871911511494 23.747736494308466 1.5723894699942835 0 0 0
90 1 12.675621921044392 21.99347300695009 2.8270776550308088 0 0 0
96 1 17.33708053018095 23.838674180096007 1.6355820424384 0 0 0
101 1 1.656361273475576 26.999143453598897 1.4359287130588707 0 0 0
109 1 7.771343286560801 26.689377260523177 1.6883321932733253 0 0 0
117 1 14.239818089604226 27.115907764981067 1.3237233848971401 0 0 0
36 1 9.807378507815194 9.737986578825888 0.17086145063254032 0 0 0
505 1 0.08927192290273916 31.827458030876116 12.742927442680992 0 0 0
104 1 4.979845952464046 29.98037207790337 1.7374174117526513 0 0 0
266 1 0.17836144505847074 22.514070043054996 9.451444478563051 0 0 0
112 1 11.20269662481291 30.277751554624174 1.788994748540989 0 0 0
114 1 12.905263137911087 28.495126261945014 3.268300840589191 0 0 0
108 1 9.653403947820708 28.40117226499156 0.5328369281280322 0 0 0
120 1 17.912155018792163 30.20003290085456 1.3881012618840969 0 0 0
125 1 1.755017995672308 33.22041329186207 1.462837975440322 0 0 0
758 1 7.827212884705294 49.217139930055936 24.093819275328443 0 0 0
579 1 3.372104047524838 0.001180988917350058 22.244773045038965 0 0 0
529 1 0.020723472159314207 38.262264524691645 12.453008343274075 0 0 0
133 1 8.021231464013997 33.28208252401133 1.200322825498945 0 0 0
141 1 14.240308673927084 33.11537241258722 1.683570452667657 0 0 0
625 1 0.16889190925868525 12.753089548070205 19.245781410500676 0 0 0
170 1 0.058222827549166384 47.919145611633354 2.8597080571834033 0 0 0
750 1 1.7870098316840557 49.455341446001086 23.885557308185362 0 0 0
128 1 5.218306711165789 36.43203249064052 1.6527097512966953 0 0 0
130 1 6.805737156312383 34.7523850025909 3.21208292381511 0 0 0
265 1 0.10300509516365594 19.384107516574492 6.319626889960132 0 0 0
155 1 9.483513211217415 38.21397384914451 3.073574847350007 0 0 0
136 1 10.991636311703777 36.441109530886195 1.6654186752204234 0 0 0
916 1 3.1468940090023527 41.1871929053641 25.177120628723927 0 0 0
458 1 -0.00511709165610906 22.188402697990174 16.12352784246003 0 0 0
144 1 17.372452803010592 36.40835331701008 1.6406461624872661 0 0 0
163 1 16.146002520708436 38.06207457001841 3.4036140956916254 0 0 0
149 1 1.837122258086919 39.637253540801424 1.33856478770043 0 0 0
157 1 7.830802113577327 39.665549940099694 1.8284816967498019 0 0 0
165 1 14.792593090475064 39.751984019451115 1.87228032919199 0 0 0
650 1 0.025662104142398334 22.222489253066097 22.52255542146479 0 0 0
338 1 -0.017810843562658003 41.51498696838998 9.192624973633317 0 0 0
152 1 4.714025349193362 42.838884012547354 1.4216065043141246 0 0 0
160 1 11.217481364433814 42.884081925650975 1.5380502783086059 0 0 0
179 1 9.533876465570081 44.752141909149245 3.1968244156083765 0 0 0
26 1 0.0064939444176511235 9.489552388927201 3.3269602645158387 0 0 0
168 1 17.292977332465934 42.91452073111459 1.435281808412033 0 0 0
173 1 2.02144430727661 46.39801163757198 1.2928667983119322 0 0 0
74 1 0.19297985220469616 22.423645623995064 3.325642664599348 0 0 0
289 1 -0.06325434125663419 25.32972543659202 6.46472392986471 0 0 0
181 1 7.954503141054255 46.228389903494914 1.569210724501403 0 0 0
189 1 13.973502005821738 45.710562568633506 0.9911248755679734 0 0 0
187 1 15.68542766620706 44.60206309199225 2.862101987290104 0 0 0
721 1 0.24449910475328807 38.46926266998743 18.949938562705462 0 0 0
176 1 5.188583273091074 49.685077285766155 1.5189469604988275 0 0 0
184 1 10.540899568027664 49.27722225429251 1.325021144106595 0 0 0
186 1 12.629532029658218 47.81532270354609 2.7683372578572083 0 0 0
852 1 9.725175620158108 22.233508865032174 25.049184090399073 0 0 0
192 1 16.828061749658158 49.24675641985735 1.3015337133733373 0 0 0
3 1 3.0917964525277344 50.90671575899752 3.0062235882023365 0 -1 0
7 1 4.599223405568529 1.5613589379457355 4.575648913359965 0 0 0
15 1 10.775489473832124 1.4086393017047527 4.617938941669743 0 0 0
23 1 17.350543576233342 1.294953342159116 4.724531816353942 0 0 0
6 1 1.6224848526180857 4.921416516761884 4.707849319410853 0 0 0
225 1 6.095701964173866 6.3252314272566235 6.358402397395802 0 0 0
14 1 7.66859102313009 4.938207580289201 4.883081157662912 0 0 0
18 1 12.342845067662578 2.7617286790435247 2.883745283318116 0 0 0
212 1 15.836328081915784 2.776145586382851 6.326048733699917 0 0 0
22 1 13.933556121902885 4.328048495796746 4.856725554806019 0 0 0
27 1 3.2207829492062707 6.690946770305376 3.2369074044855193 0 0 0
31 1 4.821924379160742 8.098289149731292 4.734936538744819 0 0 0
35 1 9.281967385661535 6.340486230454017 3.306333649893472 0 0 0
39 1 10.837895317355358 7.838063954792242 5.0119655732858 0 0 0
47 1 17.269439313943664 7.853512378726848 4.569057573783317 0 0 0
626 1 0.26730806599070706 15.860919213220953 22.268056183655784 0 0 0
51 1 3.038045261435373 13.006035738697141 3.1487668546475973 0 0 0
30 1 1.6120171882966434 11.359634818463588 4.85755914455535 0 0 0
34 1 6.302057231818198 9.878112043347047 3.212565721125548 0 0 0
38 1 8.159091412701924 11.176021595282513 4.688028684186057 0 0 0
42 1 12.613672125875759 9.219235518064137 3.6345320501835343 0 0 0
46 1 14.109428724120077 10.996037051319759 4.832764674334923 0 0 0
236 1 16.0344859833643 9.660993544822643 6.4454519446745815 0 0 0
153 1 6.422897424218485 37.974598482569505 0.025170992214565632 0 0 0
55 1 4.673225795333729 14.315364338644846 4.742890998765115 0 0 0
59 1 9.841286043950936 12.918377424968766 3.2881558936496695 0 0 0
63 1 11.302116758457007 14.266489281336817 4.998429166653046 0 0 0
257 1 12.60004107245674 12.45814915247408 6.571332834356775 0 0 0
71 1 17.392606247606377 14.36987437286162 4.9213332047719005 0 0 0
54 1 1.4824173970011916 17.68508119854733 4.9010925892094335 0 0 0
58 1 6.419334191079928 15.802942385782385 3.277357582947021 0 0 0
62 1 8.249041788042334 17.1653402264091 4.776687537378921 0 0 0
252 1 9.714047157443014 15.873850501056378 6.5339026698155545 0 0 0
70 1 14.460181924372929 17.55446968974226 4.892178996178051 0 0 0
260 1 15.713615281358209 16.06402971354664 6.547690920277972 0 0 0
75 1 2.779124655431766 19.179573862131374 3.3156343654990206 0 0 0
79 1 4.743207914687791 20.346577059854386 4.958277520875243 0 0 0
273 1 6.2186388895189815 18.483817265355345 6.406075643774604 0 0 0
87 1 11.319417529959921 20.282162736579355 4.447416782959656 0 0 0
95 1 17.505906759442112 20.717651251427 4.447992935926566 0 0 0
78 1 1.4979909070679003 24.40196217773901 4.656418465597567 0 0 0
86 1 8.138617070223232 23.541125853961383 4.997487019549069 0 0 0
94 1 14.009210779032838 23.723770370399592 4.407380127802584 0 0 0
284 1 15.814214382952072 22.41299555298437 6.2962065926482165 0 0 0
115 1 15.71274249908857 25.354716332422083 3.066855124931173 0 0 0
767 1 17.491426312941122 46.11594307116627 23.997309093047363 0 0 0
103 1 4.810694535620729 26.775712518283456 4.707247979034992 0 0 0
107 1 9.680567452010308 25.057818895894016 3.2328321945707974 0 0 0
111 1 11.148624025711202 26.772760636699022 4.668477571288891 0 0 0
119 1 17.50587289346307 27.01868412437777 4.257832706886074 0 0 0
102 1 1.6192686017588063 30.34828180923406 4.759970763753657 0 0 0
131 1 9.553641242220305 32.134851815872466 3.3015264950098113 0 0 0
106 1 6.454212470514812 28.409531727316633 3.3848220891027845 0 0 0
110 1 8.293016397071698 29.988558065135756 4.849261937779888 0 0 0
118 1 14.516648642183055 30.253005700937017 4.620227075731601 0 0 0
308 1 16.123413395208296 28.705385531965312 6.2658355198359725 0 0 0
139 1 16.2064319019574 31.78406345581831 3.2271298611794568 0 0 0
123 1 3.408183006245979 31.858584783301417 3.0779357961570937 0 0 0
127 1 5.148742160078854 33.16748776647928 4.76072651326899 0 0 0
329 1 13.083293984258692 31.612590439092706 6.195863454573483 0 0 0
135 1 11.273900806136387 33.350780584609566 4.890323717178195 0 0 0
138 1 12.52720473958035 34.61482508456301 3.146997794267346 0 0 0
332 1 16.151148574406314 35.11965537298869 6.839878825514104 0 0 0
143 1 17.689075633842254 33.532471514304106 4.622026402335134 0 0 0
126 1 1.5645375507138426 36.62899817593235 4.804673055795493 0 0 0
780 1 9.58638222494669 3.4662095603807432 25.40533625552894 0 0 0
147 1 3.1779451615701806 37.8680122211791 3.0800227636211606 0 0 0
316 1 3.4419662166251905 34.892632287097754 6.416350526438771 0 0 0
134 1 8.237348732385009 36.406865291781074 4.539947607813716 0 0 0
353 1 13.09479700750553 38.14836067686531 6.534590623671415 0 0 0
142 1 14.340729399534121 36.44401792046726 4.640481474291202 0 0 0
28 1 3.347834166713796 9.682339382803198 0.0820640662501799 0 0 0
345 1 6.3008910961843645 37.744066687124075 6.409826299544747 0 0 0
151 1 4.539316667478174 39.29832531289125 4.904305461515824 0 0 0
159 1 11.265316905108728 39.784401863804206 4.928178039447406 0 0 0
162 1 12.881762179142942 41.44283526524414 3.353337209097812 0 0 0
167 1 17.606371957683663 39.908911208389284 4.619234541555551 0 0 0
150 1 1.8885201205781699 42.93944637904015 4.862798494334146 0 0 0
154 1 5.975323076706734 41.21250818402653 3.2541336631396898 0 0 0
171 1 3.6297358490043194 44.73156434764317 3.098504653137794 0 0 0
158 1 7.989318867008528 42.90026329506655 4.9280587084541345 0 0 0
377 1 12.555838829721758 44.72076371038425 6.440520784829203 0 0 0
166 1 14.325808047208367 43.19911797882148 4.904080605455537 0 0 0
175 1 5.038213546011605 46.43248034353128 4.844541158835147 0 0 0
183 1 11.373353364131226 46.26822131339681 4.733655598937816 0 0 0
191 1 17.41272490096126 45.99721844375175 4.322276329078921 0 0 0
174 1 1.6260109740888395 49.21333055440192 4.560011168976874 0 0 0
364 1 3.040133145543867 47.69782454617619 6.436627241568299 0 0 0
217 1 0.1646783786694092 6.322766578814662 6.598173147170315 0 0 0
178 1 6.446194193311582 47.995898915801305 3.1649255802466483 0 0 0
182 1 8.223042205441505 49.47086191938976 4.974904431748401 0 0 0
11 1 9.385339818184747 -0.03564936119882134 3.056928690406611 0 0 0
190 1 13.975907468215597 49.43049236647944 4.62273455035301 0 0 0
196 1 3.2259202369038595 3.363251155890389 6.164303512198203 0 0 0
197 1 1.35949656076203 1.640639463983775 7.683842895671866 0 0 0
202 1 6.475954114180124 3.2371770636663237 9.631617066287474 0 0 0
205 1 8.023033989067077 1.5170614867636882 8.004059325481853 0 0 0
204 1 9.444135573304466 3.23434446772445 6.294332032317616 0 0 0
209 1 12.718090253414065 0.13339814447171774 6.624287799562374 0 0 0
213 1 14.322299980041446 1.616922154425837 8.013083819061842 0 0 0
200 1 4.763617380607579 4.709830824193884 8.208761030161398 0 0 0
219 1 3.4873274496861946 6.711984127262461 9.693845247558254 0 0 0
208 1 11.109781591881546 4.623771178865189 8.013541028502296 0 0 0
216 1 17.505137277814356 4.337735337438532 8.091717199038893 0 0 0
433 1 0.0074908695362125854 12.633095178542558 12.82817367321125 0 0 0
221 1 1.7614482097039144 8.062224438166592 8.028732008797629 0 0 0
226 1 6.77791668029097 9.504333035151465 9.651440613414385 0 0 0
229 1 8.152330586982488 7.590139906875302 7.99898314553052 0 0 0
233 1 12.449890038537484 5.967102495289862 6.311698012177805 0 0 0
237 1 14.448404195234415 7.466771787296655 7.479399728935815 0 0 0
235 1 16.16625835163342 6.325670243523006 9.593273642692237 0 0 0
759 1 11.112481634000682 46.35818719062375 23.898076920806815 0 0 0
220 1 3.1946464294178334 9.801190494069836 6.367057860398262 0 0 0
224 1 4.882696996581759 10.959543081205863 8.133776316650996 0 0 0
243 1 3.3727438093976048 12.534834266808659 9.71767834977294 0 0 0
228 1 9.578529694306745 9.427251021953557 6.417409540834874 0 0 0
232 1 11.062952784679883 10.904902595872093 8.355531614717894 0 0 0
234 1 13.160015829192606 9.139211619292665 9.281152413537475 0 0 0
259 1 15.698010683075806 12.46369480161794 9.451910506524404 0 0 0
240 1 17.420610025602056 10.994717095797425 8.224986281778737 0 0 0
245 1 1.6808939419352882 14.406778229908625 8.214894181970893 0 0 0
249 1 6.234604229855823 12.636364033477523 6.26693903227787 0 0 0
253 1 7.858133920674181 14.217667552131315 7.821940472569863 0 0 0
261 1 14.177575362465612 14.36302489527762 8.059484839284636 0 0 0
161 1 13.026172940493403 38.438255447980595 0.7000805168336273 0 0 0
244 1 3.0715647868010696 15.869723889071762 6.302956318077692 0 0 0
248 1 4.678828474770245 17.13544710507848 8.14838103386858 0 0 0
250 1 6.371247728745187 15.75847104445393 9.619682526769292 0 0 0
275 1 9.192253768943475 19.006493641515334 9.532184830149202 0 0 0
256 1 11.081760294529895 17.43001284836425 8.20289021153495 0 0 0
258 1 12.826455959570858 15.805268513427226 9.907087868607265 0 0 0
264 1 17.1573367193791 17.411151047599624 8.138780498208407 0 0 0
269 1 1.62730176249612 20.946017056743422 7.939888988406731 0 0 0
268 1 3.0460711701615986 22.523901718407387 6.0301633006749285 0 0 0
386 1 0.19677058668698288 3.3068822365424153 16.180806068661227 0 0 0
267 1 2.884565004938691 18.939377173919507 9.414853231243155 0 0 0
277 1 7.671430996657261 20.348211711729576 7.682175040553049 0 0 0
281 1 12.68258328258824 18.8460404483232 6.262714186845837 0 0 0
285 1 14.205242091376897 20.51292174255397 7.93559984612171 0 0 0
283 1 15.668716176982581 19.177787305578214 9.770681842593234 0 0 0
242 1 -0.008309100278385849 16.014110088328106 9.825374921362585 0 0 0
291 1 3.3585468666441276 25.64295118069902 9.585275766602836 0 0 0
272 1 4.809588325463109 23.653490704548222 7.901737775973387 0 0 0
297 1 6.396490051965235 25.126100858464394 6.383835978554872 0 0 0
276 1 9.949593587543468 21.826233027744934 6.3996950510534765 0 0 0
280 1 11.421903114057693 23.54039130847979 7.858120844722537 0 0 0
299 1 9.377953945501067 24.853635824286478 9.082164410663799 0 0 0
282 1 12.90255106294673 22.12458155216252 9.835449338889244 0 0 0
288 1 17.121683083659107 24.302365662249258 7.723277057914921 0 0 0
293 1 1.5595334960516227 27.157296879082622 7.900805955200493 0 0 0
292 1 3.0590460040648684 28.609131997317455 6.2252598203065155 0 0 0
301 1 8.052212318110113 26.935195132469442 7.860718088644725 0 0 0
305 1 12.936870058761818 25.243945594720454 6.309687179030009 0 0 0
309 1 14.676451597606546 26.907833448490948 7.580241191857135 0 0 0
296 1 4.810171063643067 30.06656199557257 7.6705762104070105 0 0 0
300 1 9.864878190418844 28.50838335748508 6.47761858733204 0 0 0
304 1 11.43604652267014 30.027409472758134 7.889152709493203 0 0 0
331 1 15.953314384024981 31.64034675249864 9.500827684054935 0 0 0
312 1 17.790744386278238 30.31337775832884 7.878007930439582 0 0 0
751 1 4.511750573530651 46.01512365428901 24.020502765374754 0 0 0
317 1 1.7934116937031275 33.28233028546629 8.257181063044142 0 0 0
315 1 3.3814875773301893 31.469971862338223 9.567251442366086 0 0 0
321 1 6.676301481369456 31.633018702319664 6.42942921461477 0 0 0
325 1 7.9269977596850385 33.21020153598239 7.965345389771343 0 0 0
333 1 14.2891895361328 33.44765548061545 8.100017269576202 0 0 0
330 1 12.501526136958669 35.04480286253026 9.408108923756314 0 0 0
320 1 4.754374484883608 36.3430026490779 8.274114954773964 0 0 0
322 1 6.411206723789794 34.74357941216603 9.534414143713398 0 0 0
324 1 9.667849211132587 35.12842207113148 6.520282763779835 0 0 0
328 1 11.172433058773356 36.889190322391784 7.898866707414005 0 0 0
355 1 15.962004873557735 38.408083563590665 9.762136640177944 0 0 0
336 1 17.753002974652485 37.15460248895599 8.363473770980226 0 0 0
341 1 1.484203557705848 39.88349728330101 7.634507737355077 0 0 0
349 1 7.737544096165674 39.74291013643676 8.042866641423156 0 0 0
348 1 9.406969698359676 41.28594239345169 6.385867618528461 0 0 0
357 1 14.488874017757958 39.86585950341721 8.098087137951804 0 0 0
354 1 12.705151823845164 41.337620766075204 9.744228445680506 0 0 0
356 1 15.738685085824153 41.283826272770014 6.2546169259093585 0 0 0
122 1 0.06714335799781962 34.77610772940626 3.2901431402843992 0 0 0
340 1 3.397670788656527 41.61836825055329 6.39949404672154 0 0 0
344 1 4.5245497241812815 43.40662894620036 7.930812913042983 0 0 0
352 1 11.032275836658606 42.76922360016788 8.020374531590933 0 0 0
379 1 15.604293511262497 43.882400504912056 9.156249848451756 0 0 0
360 1 17.575362972139445 42.65437612837462 7.698326086964595 0 0 0
365 1 1.141841634459883 46.4271751815689 8.093132691853363 0 0 0
369 1 6.433616548134033 44.77027736134367 6.494316323900249 0 0 0
373 1 8.080898695181334 46.003928406063196 8.285508880333573 0 0 0
381 1 14.53829702976575 45.871983146231045 7.625464119436158 0 0 0
1801 1 18.58518904717196 18.815767134452386 6.197672966852015 0 0 0
195 1 2.8307010176943046 50.79826533786303 9.333711108540118 0 -1 0
201 1 6.4135333081886285 0.3530246913947934 6.299346049425699 0 0 0
368 1 4.740891467494161 49.39695148413574 7.855605962919052 0 0 0
372 1 9.90145695675236 48.002376745482664 6.490301550460891 0 0 0
376 1 11.204718511148949 49.27317107507146 8.289329019282844 0 0 0
380 1 15.967430305198167 47.75347349362063 5.865229941033612 0 0 0
384 1 17.450754561407877 49.10127535136259 7.6035091842933005 0 0 0
868 1 3.279823913042204 28.01974103686395 25.188321793853284 0 0 0
199 1 4.485451020382542 1.1855064549322176 10.857758594788562 0 0 0
203 1 9.451219211541781 50.90178139085358 9.81438683375092 0 -1 0
207 1 11.210716129609422 1.4291602795016378 11.122429913816093 0 0 0
211 1 16.22614935702328 50.786500179903584 9.171938026373025 0 -1 0
215 1 17.674927161851 1.7551878006507537 10.899325680521665 0 0 0
198 1 1.4715308422852449 5.123135407894524 10.919609841382991 0 0 0
388 1 2.876962043940356 3.142057660200831 12.342539470283366 0 0 0
746 1 0.18158126867280613 47.916884701686314 22.46515483982191 0 0 0
206 1 7.934482386930069 4.594187064818864 11.536121999397992 0 0 0
210 1 12.842438179201162 3.1996695899587446 9.548702359460854 0 0 0
425 1 13.027253468520758 6.412829375082974 12.925866884437877 0 0 0
214 1 14.365068179131292 4.774813671161517 11.147400203247578 0 0 0
763 1 15.641278721232766 44.73533120531704 22.411873551961335 0 0 0
223 1 4.952789490460892 8.25492904851099 11.573552849045766 0 0 0
227 1 9.574805766406966 6.036368837555156 9.941614945375559 0 0 0
231 1 11.501296429914419 7.754300708728873 10.918279168563792 0 0 0
428 1 15.790525135414132 9.51130749413888 12.591318586669074 0 0 0
239 1 17.682250451576788 8.05624768959458 11.00922158808672 0 0 0
742 1 13.983733921235343 42.90596617032368 23.663769794376243 0 0 0
222 1 1.4495197861720777 11.293072182124623 11.245255890030178 0 0 0
412 1 3.1547662008023916 9.755846955846117 12.933776826634709 0 0 0
230 1 7.967026458820209 11.416322252520022 11.347808776866211 0 0 0
420 1 9.603089031130018 9.437494402029568 12.717564238859266 0 0 0
238 1 14.37349030587397 10.839455489092085 10.92457556302789 0 0 0
745 1 0.19331949293113415 44.54134040785509 19.142075707326427 0 0 0
247 1 4.603250334488817 14.335402201463207 11.31725046620251 0 0 0
441 1 6.219401818890557 12.939034620925208 13.003295193892605 0 0 0
251 1 9.554824727355866 12.8012916703948 9.651176558286611 0 0 0
255 1 11.191010371166827 14.179745911576482 11.560489179135894 0 0 0
452 1 16.08905953466918 15.611709938710849 13.049890162699011 0 0 0
263 1 17.533584435896596 14.189265829271305 11.373443130319838 0 0 0
68 1 15.77559720213018 15.406226576740234 0.18328186561380302 0 0 0
246 1 1.6593455489052402 17.557699430646025 11.374117553145632 0 0 0
436 1 3.0337276076775574 15.955537179111062 12.805429421509272 0 0 0
254 1 7.908508303108954 17.336931455869838 11.182093786501568 0 0 0
473 1 12.712376501096593 19.202162357102857 13.047074766006284 0 0 0
262 1 14.21846417506869 17.293495266127938 11.639315782625657 0 0 0
649 1 0.0240974960008849 18.823093916839497 19.296392825216575 0 0 0
274 1 6.154840292748869 21.77223063922527 9.225486529566677 0 0 0
271 1 4.906606199090276 20.22106960722208 11.043675234984423 0 0 0
468 1 9.179543528107256 22.253945480317302 12.831670244940284 0 0 0
465 1 6.491703508997013 18.79607643352563 12.817799125926538 0 0 0
279 1 10.879563181720545 20.774295744699607 11.354573632227853 0 0 0
287 1 17.544221446221602 20.56380842210124 10.899771966731809 0 0 0
270 1 1.7530866854283333 23.901960225083343 10.860081555275215 0 0 0
278 1 7.483472503778203 23.570117031059056 10.897846962012476 0 0 0
286 1 14.868586601311051 23.66582389421187 11.167472484091244 0 0 0
476 1 16.230370659184537 22.03269998069797 12.742321295325558 0 0 0
290 1 0.17179934655337092 28.62148511176315 9.629115377364883 0 0 0
298 1 6.214469129431746 28.609344682257248 9.470221942300157 0 0 0
295 1 4.744408267886052 27.200177005683212 11.325385399866475 0 0 0
497 1 12.910671361546024 25.397094913157282 12.478146806178051 0 0 0
303 1 11.27211407933731 26.47492493094871 10.520482127090817 0 0 0
307 1 16.16084478408771 25.641155952397167 9.882648458121334 0 0 0
311 1 17.605229657879768 27.394516949296758 11.66987643864549 0 0 0
755 1 9.40325631430895 44.65723685191014 22.411108001073238 0 0 0
294 1 1.4238001939151173 30.2641809865253 11.128460280728502 0 0 0
513 1 6.6164327666684954 31.52100498308111 12.66980596825624 0 0 0
302 1 8.23697349924454 30.104809053263153 11.037730095830625 0 0 0
306 1 12.965433110506996 28.280134045008854 9.282109065203993 0 0 0
310 1 14.270308982518381 29.8177428779474 10.969481391591954 0 0 0
734 1 7.939921528734185 42.8471321630137 23.840320410611444 0 0 0
319 1 5.1722660961167435 33.08804211811601 11.03081493779077 0 0 0
516 1 9.769442625201522 35.13420126104093 12.705182661109422 0 0 0
323 1 9.887333746337857 31.6308748232456 9.333329542908668 0 0 0
327 1 11.226796018630441 33.2438086470367 11.08527352216328 0 0 0
521 1 12.999920548888074 31.67340092087769 12.96599155243794 0 0 0
335 1 17.324386862556697 33.39741671387593 11.482862734385364 0 0 0
318 1 1.765804318625044 36.478041532669735 10.956689682566676 0 0 0
508 1 3.669918941386781 34.76328404282404 12.64370564586464 0 0 0
326 1 7.983090575407994 36.81501879016052 11.035404984529979 0 0 0
347 1 9.70996136348707 38.27531771626039 9.549787160132738 0 0 0
334 1 14.28051508794178 36.721460354862174 10.985663615431312 0 0 0
339 1 2.9599512253876994 38.05541043503172 9.094545700980625 0 0 0
343 1 4.173726940940295 39.84931533239278 10.93019949959102 0 0 0
537 1 6.148727102945569 38.31058760427695 12.445073560799713 0 0 0
351 1 11.012845073717603 39.840810982542976 11.477683887156951 0 0 0
545 1 12.72827046143187 37.99098602197134 12.579326290416542 0 0 0
359 1 17.323634266395732 39.9425102748952 11.330050021198733 0 0 0
548 1 15.71316745734486 41.39088604519246 12.737222100945313 0 0 0
342 1 1.3888828199989958 43.01372421688431 10.874156936707104 0 0 0
346 1 5.8854229473873 41.58156326802319 9.480634796876377 0 0 0
350 1 7.891923607287002 42.977721534251 11.313969986392223 0 0 0
358 1 14.13580144187185 43.03726900234727 11.426823787458295 0 0 0
363 1 3.0659352682116148 45.08612932457069 9.700429426478934 0 0 0
367 1 5.050112375440715 46.30698214617888 11.683808732296713 0 0 0
370 1 6.455397009962668 47.82144154074419 9.749114987666086 0 0 0
371 1 9.715198944275544 44.58917128534554 9.773655749464194 0 0 0
375 1 11.270146862187858 46.39594780358448 11.256184920468382 0 0 0
383 1 17.418453546541446 46.086008196643775 10.534671763565962 0 0 0
726 1 1.437626197999175 43.06127438740138 23.894125600490717 0 0 0
366 1 1.5933417318929906 49.695740973958976 11.652083531092448 0 0 0
564 1 9.753703009114242 47.85835909939419 13.116691387314383 0 0 0
374 1 7.948533758723832 49.3009112344817 11.450031083300495 0 0 0
378 1 13.254439245203002 47.75107511718508 9.578940603237367 0 0 0
382 1 14.506969655897048 49.68624170786683 10.787203241637041 0 0 0
389 1 1.5680492602242986 1.934799679106364 14.484157015686595 0 0 0
394 1 6.319524186607599 3.178296515696177 15.720869427109443 0 0 0
393 1 6.255575728944944 50.86759569098596 12.696260032773736 0 -1 0
397 1 8.112164686944478 1.6292228376956301 14.554363611452093 0 0 0
401 1 13.185470334087773 -0.007078437981377306 12.753861524225558 0 0 0
405 1 14.295360725670688 2.0338496366124303 14.25199997618704 0 0 0
218 1 -0.008906533809816791 9.573003259460998 9.802194981469254 0 0 0
392 1 4.484027356834531 4.550156073911503 14.203362201815224 0 0 0
396 1 9.856077141565457 3.003593129535429 12.837864505668662 0 0 0
400 1 11.098481991156463 4.811761019306687 14.357017348891024 0 0 0
402 1 12.559667896267834 3.3211640075177935 16.13475757300202 0 0 0
404 1 16.225938532250442 3.2635250521125894 12.502331955584536 0 0 0
427 1 16.086526626406823 5.8730740213470165 16.009926416521566 0 0 0
408 1 17.82629851901582 4.865398401703939 14.295810988332109 0 0 0
49 1 0.061544461551989116 12.658299232412729 0.15671796222199652 0 0 0
413 1 1.293429126333939 8.031106151362511 14.17451733854853 0 0 0
411 1 3.015582889426378 6.400759755438341 15.721892603660487 0 0 0
417 1 6.138678472249759 6.171587591774524 12.783327205408538 0 0 0
421 1 7.827192837498679 7.818034073193141 14.17333994545331 0 0 0
419 1 9.255736800402799 6.343613782341929 15.882534679996212 0 0 0
418 1 6.548908848228285 9.636926702959556 15.734503359753164 0 0 0
426 1 12.44603336181257 9.374141034241775 16.03793157983106 0 0 0
429 1 14.609714280197897 7.798606336167187 14.66847428348024 0 0 0
710 1 7.905484537544153 36.48255179816806 23.554325737669423 0 0 0
416 1 4.844137549066086 11.400167418961928 14.60934732473187 0 0 0
424 1 11.000882134175606 10.976492331062328 14.519357091109404 0 0 0
449 1 12.735561133510002 12.275242524443936 12.880643132631606 0 0 0
432 1 17.291687525553954 11.240948721691467 14.214337228922004 0 0 0
743 1 17.65190161751582 40.026419201035324 23.69069718007806 0 0 0
437 1 1.544975366606061 14.157073446113154 14.559199286892738 0 0 0
435 1 3.05267209281277 12.868808771102511 16.101088972580584 0 0 0
445 1 7.754639468243999 15.021643958591763 14.316107780414272 0 0 0
443 1 9.786484442021274 13.429139106549398 15.53757687304283 0 0 0
450 1 12.517269755325648 16.036186223570187 16.17314594357425 0 0 0
453 1 14.033049976687474 13.930320671824386 14.633035882470452 0 0 0
451 1 15.752725034411636 12.56336372637276 16.01675015517223 0 0 0
361 1 0.07343065665815915 44.57683318547872 6.197105431261096 0 0 0
459 1 2.9553393792379428 19.141337373101397 15.972092124270187 0 0 0
440 1 4.547325463621702 17.766201827780048 14.217416942441607 0 0 0
444 1 9.515581886373516 16.128683550880243 12.60819229476144 0 0 0
442 1 6.158329138589875 16.78882648891997 15.917903960472623 0 0 0
448 1 11.14391636960422 17.742107676446558 14.478488821852624 0 0 0
467 1 9.189756252415302 19.530982320392262 15.784362697220487 0 0 0
456 1 17.378823561207128 17.477930304069044 14.248582079030701 0 0 0
461 1 1.4591188123617655 20.731382380415223 14.388132103400146 0 0 0