LAMMPS data file via write_data, version 29 Oct 2020, timestep = 100000

8552 atoms
1 atom types

-0.28815025206682776 104.51517452497657 xlo xhi
-0.20795246657010225 51.23087155945985 ylo yhi
-0.20795246657010225 51.23087155945985 zlo zhi

Masses

1 18.015

Atoms # atomic

715 1 4.746737807700635 50.21181862089978 25.131944950619356 0 -1 0
783 1 5.944723241436767 3.2062465008312224 0.8260383962850444 0 0 0
35 1 4.415190172521934 1.9305309853311199 2.634590359581869 0 0 0
36 1 11.346440552838017 1.425134200256144 2.520760742969085 0 0 0
771 1 12.976945626065522 2.9428081441003453 0.8301993742286486 0 0 0
38 1 17.52242406604747 1.7621991611487462 2.1756696777302116 0 0 0
2143 1 18.8488672035567 3.1342081643362345 0.258330414830216 0 0 0
819 1 23.629234870541552 1.7361288402242556 2.171595590881526 0 0 0
821 1 30.39033958040064 1.9327126641102557 2.581795572870163 0 0 0
1409 1 28.79424051398402 0.36885156863989643 0.8937992078443329 0 0 0
1392 1 34.549155965288 0.46358941875592763 1.0126860551962593 0 0 0
41 1 1.3469233321830683 5.071799960713109 1.9653717132699957 0 0 0
44 1 7.803130546347566 4.845314172351649 2.193291251031676 0 0 0
45 1 14.399769097243443 4.975574336699762 2.273751138788104 0 0 0
823 1 20.507761413756402 5.277729384392417 1.8208650637298884 0 0 0
826 1 26.96026454596099 4.957767522593914 2.431584960521516 0 0 0
2752 1 25.366927568192636 3.390370415708341 0.4692872458652353 0 0 0
2776 1 32.0044052971523 3.3355122279282647 0.5363078981428326 0 0 0
828 1 33.2977855009636 5.130287698568853 2.346971630060249 0 0 0
779 1 3.0083566011437695 6.732439109997318 0.9309610142030713 0 0 0
48 1 4.692227239073223 8.052734730701646 2.618598798525038 0 0 0
23 1 9.306510871208326 6.593300282159604 0.7996346380506116 0 0 0
50 1 11.133595763217185 8.120623721237296 2.3751933523037847 0 0 0
776 1 15.583187057409612 6.570288235749072 0.7544721777124271 0 0 0
52 1 17.181543499569905 8.211950077684216 2.4386560118807714 0 0 0
830 1 24.09024769315759 8.173706905738813 1.961770805535683 0 0 0
2497 1 22.421929347895166 6.701382034991473 0.23016813174570844 0 0 0
831 1 30.231513850768213 8.061230297411663 2.4163848343582823 0 0 0
2229 1 28.517481697503467 6.439242938768331 0.4013181249993576 0 0 0
53 1 1.4338043330831998 11.385927300797277 2.2381493576056743 0 0 0
1935 1 6.042232303698131 10.010582346520144 0.5111583863254406 0 0 0
54 1 7.574921980390625 11.07483715682636 2.4916316185950493 0 0 0
772 1 12.722661690764047 9.623974201911384 0.8055381110568804 0 0 0
55 1 14.071043257465712 11.503190666686137 2.125464460181341 0 0 0
773 1 18.831437770938308 9.66209790908964 0.7861055239998431 0 0 0
834 1 20.505504700418186 11.409932314915666 1.9089618334193297 0 0 0
1396 1 25.737971819783592 10.161612052395922 0.7770523528278116 0 0 0
835 1 27.123377583573326 11.561162972775614 2.5920041189706144 0 0 0
1344 1 31.59873128002445 9.958133749687176 1.0318037098365762 0 0 0
836 1 33.6707746770552 11.486361517915254 2.3378080314407628 0 0 0
784 1 3.1435961292083827 13.030052596142365 0.7581390838885178 0 0 0
58 1 4.7714936948861535 14.379897794283883 2.5409266289123633 0 0 0
62 1 9.465026630810184 12.793948429437174 1.3311977286867094 0 0 0
60 1 11.020941035654824 14.678548280666593 2.592724408934652 0 0 0
63 1 17.759075875457306 14.600497454814803 2.1901174903314247 0 0 0
2174 1 15.803011453965961 13.242203877985649 0.35193501889926293 0 0 0
838 1 23.681924097525627 14.730808908266388 2.215134626811148 0 0 0
2726 1 22.158096524715777 13.162965240196563 0.40422487304152 0 0 0
2783 1 28.70551275825107 13.318191451580441 0.5061813714415472 0 0 0
840 1 30.216012883180056 14.855359964999746 2.512188863772053 0 0 0
64 1 1.5328827173551247 17.63378705094256 2.265173631059471 0 0 0
770 1 -0.24004197708701594 15.868082575034272 0.908583553911428 0 0 0
10 1 6.106743859378949 15.772247607716938 0.8700924568289605 0 0 0
68 1 7.82587818813181 17.695719859418347 2.001536482734072 0 0 0
7 1 12.603649871760132 15.915480492133874 0.9567162455209941 0 0 0
69 1 14.071535938562453 17.52829722349589 2.4868495261535064 0 0 0
842 1 20.74526712275107 17.92346366803189 2.3767956643769454 0 0 0
2777 1 19.12086757271956 16.42254772199676 0.3512564017571467 0 0 0
1238 1 25.69411966836548 16.31235525037037 0.7433198490295906 0 0 0
844 1 27.03117337253286 18.20262799569809 2.296044119650274 0 0 0
1398 1 31.452461358699907 16.48230033484697 0.7645920469396962 0 0 0
846 1 33.21098410875325 18.069307243416407 2.422326644595824 0 0 0
775 1 3.435926762983076 19.30099858036261 0.9258325492194102 0 0 0
73 1 5.010973642712973 20.859132815796215 2.4558569251300058 0 0 0
1469 1 9.150633221942101 19.52737271147463 0.48701136088004415 0 0 0
77 1 10.808978643826665 20.868248651608955 2.468620167412507 0 0 0
737 1 15.720291251476521 19.093912430932697 0.984300702599137 0 0 0
80 1 17.217066954657184 20.835352436597404 2.4437417761451847 0 0 0
1404 1 22.438881038972664 19.126780120523765 0.7493433179288752 0 0 0
849 1 23.989112154522537 21.11484228476005 1.9472446663755147 0 0 0
2748 1 28.69064763253553 19.778862663900394 0.4111467347676594 0 0 0
82 1 1.615337896087279 24.07805308613258 2.1403692956279796 0 0 0
1719 1 -0.21567120597300035 22.299851776530318 0.32745446284762214 0 0 0
127 1 6.2207128160875484 22.408291785502026 0.8213620118673224 0 0 0
83 1 7.634634936389199 24.10647042517041 2.632380125658318 0 0 0
228 1 12.852210949075106 22.873930436031493 1.4991561219905225 0 0 0
84 1 14.626180836868777 24.19327392662099 2.6763659548961067 0 0 0
853 1 20.485348566238635 24.26843968518501 1.9305508568723297 0 0 0
1791 1 18.785042820774624 22.413896094199682 0.44499965459330926 0 0 0
2766 1 25.35291716187729 22.753976992941222 0.3210092852259162 0 0 0
851 1 29.990226147025677 21.430178976784703 2.3820297159720347 0 0 0
1233 1 31.98405308934216 22.75061005581502 1.0077729142048395 0 0 0
87 1 4.504536965615397 27.29336743180348 2.2237659352695904 0 0 0
1506 1 3.2047359336352277 25.572626695639507 0.21407660432677833 0 0 0
506 1 9.232979266389469 25.499818543237218 0.8125100896080069 0 0 0
88 1 11.035788965738616 27.338758522271082 2.340707393783416 0 0 0
91 1 17.137251803336692 27.369327424192914 2.237499688067135 0 0 0
1457 1 15.910112735099933 25.287862348540052 0.15682933205641392 0 0 0
2238 1 22.007150002761758 25.97909295764281 0.2801489034448904 0 0 0
855 1 26.73566286583201 24.572542610624648 2.074617713132685 0 0 0
2453 1 28.615956448789195 26.041416982713056 0.5138034143553656 0 0 0
858 1 33.35145017400139 24.7904033819112 2.3689177422801446 0 0 0
758 1 -0.13051823385321812 29.100599250205683 0.9770011584361742 0 0 0
2164 1 5.963564460682825 28.994246812282764 0.5247311831701953 0 0 0
96 1 13.803588929982851 30.177319636478707 1.791444413885532 0 0 0
2173 1 18.708806006745046 28.87039420371068 0.22585497748248312 0 0 0
861 1 23.51791723906862 27.60164218909283 2.1455834620565093 0 0 0
2781 1 25.178075361163 29.164457574232724 0.33655297133960893 0 0 0
863 1 30.270512840191163 27.91078908964679 2.217249641798719 0 0 0
2774 1 32.0714989841395 29.451311677865707 0.4710805070720365 0 0 0
92 1 1.8004477437768367 30.86770688534411 2.094475991530229 0 0 0
2176 1 3.4176512879073986 32.53439171402458 0.46468834262279146 0 0 0
95 1 7.758864666125305 30.697360182395293 2.3720010207481455 0 0 0
2105 1 9.083876287284353 32.19562874139767 0.23644818765152442 0 0 0
1830 1 15.238221962615338 32.05446569220234 0.3984764086095136 0 0 0
864 1 20.4165091434846 30.535699390850816 2.1547059355772222 0 0 0
1394 1 21.930005945077312 32.19168439530847 0.9007535614805136 0 0 0
865 1 26.72685411284556 30.819624210217114 2.131038798000271 0 0 0
1406 1 28.428990306692388 32.396196669877625 0.8613760586376566 0 0 0
867 1 33.52087310914422 30.80160246564985 2.3317393767301278 0 0 0
40 1 -0.2723935207154362 45.05456719945148 22.91609832012476 0 -1 0
99 1 4.981123165686317 34.16882156021477 2.3215224277651965 0 0 0
1960 1 6.267641493841168 36.0398992325667 0.16584345652882942 0 -1 0
100 1 10.356315436484527 33.75922334292393 2.126767766056041 0 0 0
1462 1 12.12844078679523 35.14785418151236 0.37701238812802496 0 -1 0
103 1 16.67034915604013 33.72862729650977 2.1031799492714778 0 0 0
781 1 18.457747997836293 35.72665727776851 0.8410442735685217 0 -1 0
868 1 23.53136171121271 34.12482020423373 2.4580062624973222 0 0 0
971 1 25.134696009926063 35.91592581170201 0.808842171911508 0 -1 0
871 1 30.268697431147537 33.96768861802616 2.416349278124787 0 0 0
2778 1 31.75513078469624 35.65429861729237 0.4797233302075389 0 -1 0
1 1 1.1357990350828924 37.29217203250376 2.3878667100251274 0 -1 0
778 1 3.041967358050799 38.950017357771955 1.1862613987268829 0 -1 0
5 1 7.623395030414638 37.39063674114277 2.3536121289396825 0 -1 0
2 1 9.253216307864308 38.83662988556182 0.9300648788212309 0 -1 0
8 1 13.816455812405376 37.11200397173545 2.1667411997020722 0 -1 0
2172 1 15.865228314524959 38.773813898214215 0.43789438632466493 0 -1 0
791 1 20.478901048954047 37.3290832801669 2.101099890889886 0 -1 0
2775 1 21.978690041113705 39.48024689042026 0.37719032427365706 0 -1 0
793 1 26.44209278377552 37.35757266521959 2.647068963122095 0 -1 0
852 1 28.400266788405215 38.78342799406269 0.9635562844254337 0 -1 0
794 1 33.35691492046691 37.43052945679051 2.1213074401778917 0 -1 0
86 1 -0.2475232506406052 25.963812008142163 10.027997993085945 0 0 0
11 1 4.559149940007704 40.40632755169682 2.7911902796404675 0 -1 0
738 1 6.313347629123469 42.07108625075439 1.1708336236350023 0 -1 0
12 1 10.946986542110917 40.53847375327207 2.4710664820878896 0 -1 0
786 1 12.752350302525322 41.99564278566366 0.8139482693868278 0 -1 0
14 1 17.243539128726724 40.13306222949288 2.431445265804525 0 -1 0
767 1 18.82131220969417 41.965437138017236 1.0520694860045101 0 -1 0
795 1 23.599213849083796 40.864402143542534 2.301247225600194 0 -1 0
2266 1 25.226130904728585 42.14218006747319 0.19104736281949314 0 -1 0
798 1 30.139914937628955 40.24168962173074 2.627107859758666 0 -1 0
847 1 31.613753356938492 41.74095105769334 0.7459410071475266 0 -1 0
17 1 1.3849822470733624 43.74955905537365 2.268555781521661 0 -1 0
175 1 3.1325066370933463 45.4339346659486 0.8784982487734427 0 -1 0
19 1 7.912938829234282 44.050548965787286 2.55492479660189 0 -1 0
56 1 9.6196592831377 45.48981969991728 0.9676751560964834 0 -1 0
21 1 13.961576028570622 43.35144643658573 2.785426201810488 0 -1 0
610 1 15.488949437686511 45.027840257774855 1.1236748459288262 0 -1 0
801 1 20.67653872347325 43.614100822039134 2.5906541761353408 0 -1 0
1402 1 22.40782775443547 45.36009809635215 0.7797750994023777 0 -1 0
803 1 26.7790199463176 43.675269941026414 2.21401160963471 0 -1 0
1412 1 28.521398535695326 45.32730421664718 0.7731129246175071 0 -1 0
804 1 32.85353069673653 43.55511972920601 2.6458361284291936 0 -1 0
1010 1 34.10567278522835 45.39793399308766 0.9775867391968827 0 -1 0
411 1 -0.16782877834189147 48.42261386582554 0.953471217951618 0 -1 0
24 1 4.390164203931393 47.19838277802805 2.2953266691072556 0 -1 0
27 1 11.254877641943827 46.86723344189804 2.5748419294911753 0 -1 0
13 1 12.456273448610931 48.341830032183836 0.7389579373802855 0 -1 0
28 1 17.48204238053116 46.8086873872618 2.534538736469056 0 -1 0
1401 1 18.99374034303635 48.502587644790424 0.8280850079172914 0 -1 0
809 1 24.003034513243655 47.17748031735286 2.3000019604597677 0 -1 0
810 1 29.953862245999957 46.9050028712025 2.4667436549538717 0 -1 0
30 1 0.863305446497602 50.179546302874726 2.548692959797002 0 -1 0
744 1 2.8970559006239327 0.11658295004972319 0.9965442745503428 0 0 0
785 1 6.294342307570802 48.662579739370045 1.0121376201608754 0 -1 0
32 1 7.889090823835259 50.17006682098845 2.486702484563096 0 -1 0
1805 1 9.374936966143483 0.06938176948204161 0.220993624456937 0 0 0
33 1 14.00502066869044 49.70028451222032 2.796030711851484 0 -1 0
332 1 15.61338634042536 51.18228594198824 0.9801486563398971 0 -1 0
812 1 20.550078702042324 50.11161648479114 2.348008157715088 0 -1 0
2213 1 22.11830302114837 -0.04665465231394125 0.39470196557759174 0 0 0
813 1 27.01178855145055 50.13412361214114 2.65107168081024 0 -1 0
2780 1 25.657278016696484 48.87111695476561 0.4403700577068721 0 -1 0
1407 1 31.45169273967723 48.66822093538548 0.930881994000335 0 -1 0
817 1 33.16996182548252 50.14236016402059 2.5976308617624335 0 -1 0
133 1 1.2591170147604323 2.0320564373645515 5.7181234581182725 0 0 0
135 1 8.054662180977438 1.510094075217966 5.593186695005651 0 0 0
137 1 14.292348934510912 1.9008866906752742 5.709171768097542 0 0 0
37 1 12.933952047623444 0.20569796790896616 4.2462744644667785 0 0 0
897 1 20.497619893163083 2.0541220775001663 5.57887938542932 0 0 0
845 1 18.972415687169086 0.27529236121571876 3.9482577251710325 0 0 0
899 1 27.03175253027121 2.076171041144024 5.470448773704582 0 0 0
820 1 25.288308549435186 0.20224025969185777 4.024865558210283 0 0 0
901 1 33.7082024551779 1.532946669688719 5.697228991448131 0 0 0
139 1 2.5613664426573117 3.532936611741083 4.125888933820273 0 0 0
140 1 4.533844258354432 4.704927619509941 5.7755528000629806 0 0 0
43 1 9.723741892541796 3.244170906164994 3.7961439689571614 0 0 0
142 1 11.138160809788314 4.640237987298527 5.2625086265531875 0 0 0
46 1 15.946910748193151 3.314206728812951 3.9226739991966806 0 0 0
143 1 17.351091297687223 5.07758779437964 5.263087242016443 0 0 0
902 1 22.236936452845004 3.6702510798414556 3.9167598005483155 0 0 0
903 1 23.706408545650806 5.244569240521654 5.5562181775451105 0 0 0
827 1 28.74367222625338 3.5409211998392616 3.8759828036914437 0 0 0
905 1 30.3434231091455 5.109753702246311 5.674564190532947 0 0 0
93 1 -0.0358316285071445 6.790873643000161 4.135940008720319 0 0 0
144 1 1.2747570865213622 8.77764558675434 5.4724035892559355 0 0 0
49 1 6.282249389510632 6.285932088820858 4.338303254463053 0 0 0
145 1 7.943765504282924 7.913130020219597 5.8149298814236134 0 0 0
51 1 12.500161663041215 6.3588624540426775 3.63524411590487 0 0 0
146 1 13.839450323664648 8.096555165327194 5.222300853415246 0 0 0
907 1 19.20491070791691 6.899925411114562 4.035763689640431 0 0 0
908 1 20.823021329650544 8.795512306375288 5.369590809689117 0 0 0
904 1 25.52995901466337 6.812796498585731 3.8285805212271233 0 0 0
910 1 27.28661621513251 8.34242686533468 5.6476200739648545 0 0 0
833 1 32.03706618320582 7.004903825760192 3.9508694467273893 0 0 0
912 1 33.63965146816799 8.587487491248266 5.490057899433554 0 0 0
47 1 2.908770721920358 9.835048848972994 3.7362083219662736 0 0 0
150 1 4.601619319324522 11.161541414316822 5.523450349705591 0 0 0
151 1 9.492306232710465 9.436305458091429 4.042732863690677 0 0 0
152 1 10.966637328486472 11.1585769162936 5.484514235961582 0 0 0
148 1 15.55026299431539 9.73447184402623 3.8760464025970682 0 0 0
153 1 17.351057286964636 11.405551489044726 5.072114261903614 0 0 0
914 1 22.357370175101668 9.992367421605364 3.530591615550116 0 0 0
915 1 23.757982001572156 11.769969653115641 5.296293604423108 0 0 0
832 1 28.94473172001459 9.986235042925722 4.039997695282108 0 0 0
916 1 30.32146038641696 11.79494651843224 5.831679879335553 0 0 0
4 1 -0.17833856242019205 13.041639156454831 4.10152906728806 0 0 0
154 1 1.396553126067697 14.74937998390504 5.576398473339856 0 0 0
156 1 6.252161703921573 12.80234362037906 4.195372368030436 0 0 0
157 1 8.09882473893148 14.388118768694072 5.666071280780493 0 0 0
61 1 12.730784374020732 12.888303988863267 4.078353103868744 0 0 0
158 1 14.349056992929732 14.653696662387862 5.436057516199672 0 0 0
1061 1 19.224831711591364 12.941419248689124 3.5710446500119954 0 0 0
918 1 20.355777810577134 14.612409084893972 5.369185601864937 0 0 0
839 1 25.605742834889973 13.435178791629573 3.999034343488918 0 0 0
920 1 27.17610865499934 15.24297854995057 5.3925529242520005 0 0 0
922 1 31.956893202147107 13.067339871175225 4.113006036612658 0 0 0
923 1 33.48769208662563 14.649276440018802 5.629870962485137 0 0 0
161 1 3.19311340955017 16.266138042551816 3.8871744329762556 0 0 0
162 1 4.941111770446508 17.580635320124365 5.5771574529535615 0 0 0
155 1 9.364837536125519 16.54358584950456 4.111720765828912 0 0 0
164 1 11.092449545990249 17.76471153778603 5.7073085595743 0 0 0
160 1 16.046062441928 16.19129820846361 4.037006158338823 0 0 0
167 1 17.535043041881096 17.94717902049078 5.43786453318424 0 0 0
843 1 22.131542684847847 16.178890580567046 4.060471212167183 0 0 0
924 1 23.669658770098913 18.29975537933426 5.466023620508579 0 0 0
926 1 28.836933722454184 16.915648315086457 3.7999894748645184 0 0 0
282 1 -0.16220595202849092 19.196130577674136 4.10028875827135 0 0 0
168 1 1.3415881527106468 21.056940338903914 5.621291824448285 0 0 0
74 1 6.605188817786227 19.17230645914279 4.0218949098692685 0 0 0
172 1 8.042919148815287 20.833858051500865 5.3554349311954805 0 0 0
165 1 12.351110141662824 19.034158605501908 3.956531604337516 0 0 0
174 1 14.172385865652839 20.871169471743347 5.456398482724833 0 0 0
1011 1 19.05905504069852 19.577894722634365 3.71176131768807 0 0 0
928 1 20.44369448419471 21.17917939266663 5.602170905068173 0 0 0
850 1 25.327479250898314 19.753288317837978 3.859390507125192 0 0 0
927 1 30.410815572743324 18.360980769746302 5.871663292831298 0 0 0
932 1 31.594968008870747 19.807212076042727 3.8812427837270205 0 0 0
170 1 2.961891520754636 22.301249970925777 3.8892703202078778 0 0 0
177 1 4.329081573248951 23.737676267829485 5.721350062346822 0 0 0
76 1 9.294409775611793 22.64869025026756 3.882794845330335 0 0 0
178 1 11.083828957087908 24.225830325908188 5.7453246724613605 0 0 0
81 1 15.985374783516125 22.49614174862535 4.2142446922734464 0 0 0
180 1 17.451985887491173 24.350871827524674 5.435060739899569 0 0 0
854 1 21.86965425666869 22.644343576691632 3.367005598549466 0 0 0
935 1 23.35773596865386 24.096272548504466 5.3022580829124255 0 0 0
930 1 26.948109206367644 21.417219109142092 5.582762745439799 0 0 0
857 1 28.205253556081498 23.0805944582893 4.057450804350759 0 0 0
933 1 32.86271446297389 21.837697431402926 5.3688492177533425 0 0 0
31 1 0.31727143938966473 25.693849594821756 3.7889993937193096 0 0 0
181 1 1.6669554347331308 27.394359605155273 5.679665693022774 0 0 0
182 1 5.771225521095208 25.660040419505503 4.064125375436868 0 0 0
184 1 7.793829195636935 27.355009051392805 5.745204831443715 0 0 0
179 1 12.707182971381883 25.891351926242475 4.163752920613006 0 0 0
733 1 18.84603452044065 25.59328772845257 3.4555149313976328 0 0 0
939 1 20.399216362006733 27.150538214449597 5.071704260676872 0 0 0
862 1 25.065487910447434 25.936354761700457 3.7149130123962615 0 0 0
938 1 30.006517154577587 24.52878836311322 5.467967485537341 0 0 0
856 1 31.826564748151874 26.20777081392951 3.8753167070626597 0 0 0
183 1 3.4156131764444595 29.194137144893656 3.9078312019282313 0 0 0
89 1 9.344988284169768 29.21480265557362 4.006571186296895 0 0 0
97 1 15.52283141693988 29.064082396618417 3.6704181433119913 0 0 0
186 1 14.157400738975925 27.65514104989495 5.721124245244362 0 0 0
860 1 21.864899695115902 29.07480298147621 3.724213020990835 0 0 0
946 1 23.509488170378475 30.320956527256264 5.213854803392004 0 0 0
941 1 27.01941817001784 27.71282195544674 5.40639678114324 0 0 0
866 1 28.44950209505055 29.257404781357444 3.5316920626545056 0 0 0
944 1 33.33682591681338 27.53716036153973 5.706516248212938 0 0 0
71 1 -0.17116460911761777 32.39534223603047 3.6680139814698203 0 0 0
187 1 4.830110753448014 30.902322911682518 5.661330325070783 0 0 0
193 1 6.244109156337929 32.472423586349635 3.9745360142636867 0 0 0
188 1 11.192327167488603 30.73736183305301 5.549970836644433 0 0 0
101 1 12.453874781942949 32.29107558542505 3.5762526603420213 0 0 0
757 1 18.70789781326308 32.107350219450225 3.371227108766062 0 0 0
189 1 17.257511176879067 30.465200688230667 5.136833318257449 0 0 0
870 1 24.844072054031987 32.39849218281191 3.6930265395024744 0 0 0
949 1 29.837699461791676 30.954219193386397 5.405977655877734 0 0 0
873 1 31.663804499855726 32.26304926198742 3.9472786776858273 0 0 0
190 1 1.4033243155187718 33.69505856781015 5.3755842446791595 0 0 0
104 1 2.8753746092966006 35.39568135645524 3.8151557246862193 0 -1 0
194 1 8.028551475306218 33.95369063031836 5.792250774900109 0 0 0
195 1 9.195816786268638 35.674410918468496 3.866077542164832 0 -1 0
196 1 13.80600467340263 33.9131485366115 5.438575707849516 0 0 0
9 1 15.511731168716356 35.342741650410076 4.012570743073156 0 -1 0
951 1 20.269997671888763 33.499151786176554 5.497122090541074 0 0 0
869 1 21.68699541457274 35.74441940993486 4.173797467833881 0 -1 0
953 1 26.57438878995451 33.65000830035683 5.359266091263521 0 0 0
872 1 28.347074966746053 35.30132060345143 3.929566576721185 0 -1 0
954 1 33.342835497326206 34.02208890657114 5.27973570922601 0 0 0
42 1 -0.20612909145257635 38.96246444601542 4.353603827654453 0 -1 0
105 1 4.389244354708285 37.278244883602056 5.391288825295809 0 -1 0
3 1 6.367284854280188 39.051723808527285 3.9604893425106695 0 -1 0
111 1 12.165962510444329 38.48374504444804 3.69215394349935 0 -1 0
106 1 10.591907987260864 37.124872518613614 5.433759602577155 0 -1 0
107 1 17.195064087124017 37.01070066153957 5.540808058713493 0 -1 0
698 1 18.860836930280048 38.60280892622488 3.990403598851101 0 -1 0
876 1 23.37348490784104 37.25540101304557 5.273359866100241 0 -1 0
792 1 24.763587380472398 39.04058727848053 3.772243071364609 0 -1 0
877 1 29.88887908401892 37.0884777156476 5.29927906188045 0 -1 0
799 1 31.675997559527676 38.708944876971955 4.112424371949672 0 -1 0
108 1 1.3997831232889066 40.65266345901023 5.524054260229305 0 -1 0
114 1 3.0049123985037873 42.429756743047534 4.046825491186487 0 -1 0
110 1 7.471730550406518 40.66952628809439 5.700035045121521 0 -1 0
116 1 9.092002536569428 42.07779832332635 4.116548466650542 0 -1 0
113 1 13.763472316042957 40.05675936360933 5.673566797551171 0 -1 0
22 1 15.514098606963806 41.58620321216202 4.261251030154816 0 -1 0
880 1 20.388299148900366 40.19577223357517 5.367207646139244 0 -1 0
796 1 22.031629887471667 41.954769245291715 4.0920060124017805 0 -1 0
797 1 28.23753756755074 42.0577283813912 3.9186618767313597 0 -1 0
881 1 26.116545210577563 40.489904217771496 5.312462604417675 0 -1 0
882 1 33.03858899063821 40.27787121555653 5.837722500159862 0 -1 0
806 1 34.50310598859432 41.87990040913708 3.9535348734206552 0 -1 0
90 1 -0.22311458319673394 45.24032369412299 4.137263240102127 0 -1 0
115 1 4.6128971595853345 43.8431141500879 5.551257251229935 0 -1 0
117 1 10.654580555411844 43.58177674410747 5.829470316975067 0 -1 0
124 1 12.437947092409956 44.968851480065396 4.446149597696372 0 -1 0
118 1 17.113613182549667 43.59729119511435 5.384669314117315 0 -1 0
815 1 19.02869714311704 45.32447858442531 4.120471579796415 0 -1 0
884 1 23.544630271344307 43.87892189996643 5.6269774663037 0 -1 0
885 1 25.35371845692381 45.47512445503152 3.9125136156886935 0 -1 0
887 1 29.646074324977928 43.72853584374977 5.679472948652775 0 -1 0
811 1 31.49132652546368 45.191218472157956 4.124158632414034 0 -1 0
121 1 1.389270719825896 47.118398917462386 5.674403950090445 0 -1 0
122 1 6.099356148730776 45.63054406528198 4.022379770671493 0 -1 0
123 1 7.964327354773829 46.934000925327055 5.504148910958034 0 -1 0
125 1 13.94009660354582 46.753247121502426 5.649503507488751 0 -1 0
34 1 15.934058758370465 48.375342790204044 4.173164674346237 0 -1 0
894 1 21.91987083936995 48.47042026490578 3.9039150857984612 0 -1 0
889 1 20.575049788002882 46.84864823969224 5.43534635810597 0 -1 0
891 1 26.68400903187232 47.049759245589684 6.04295962497309 0 -1 0
814 1 28.344009410646958 48.360007416601476 4.321365037572559 0 -1 0
893 1 33.512276570971814 46.755067853012676 5.359552351647506 0 -1 0
120 1 2.8213936838459217 48.77183660937301 3.9583082257402635 0 -1 0
128 1 4.463563033120694 50.08676132281468 5.5592457088742195 0 -1 0
134 1 6.217134353573294 0.1418733014153486 4.087448555041034 0 0 0
129 1 9.653711741198203 48.68380364112909 4.098293018078615 0 -1 0
130 1 11.120786094219326 50.03767737190205 5.815876055295271 0 -1 0
132 1 17.237306535739055 50.141504334709396 5.7384505827375385 0 -1 0
895 1 23.50130500975998 50.27664496484752 5.466342303110278 0 -1 0
896 1 30.157809556140727 50.172391179805686 5.708884478907021 0 -1 0
816 1 31.916001710325652 0.17944594919872137 4.088926421412661 0 0 0
229 1 2.855056472765317 0.20894023104571158 7.125978798666207 0 0 0
141 1 6.015581273693117 2.834206328389711 7.22953885975177 0 0 0
230 1 4.4691896585934385 1.4800731897031805 8.979290920381144 0 0 0
233 1 10.899487819518558 1.775897916664556 9.034033072066038 0 0 0
136 1 9.52592903150479 0.21308448030507593 7.357912222705881 0 0 0
241 1 12.507152777673234 3.1979776651541654 7.085564671241527 0 0 0
138 1 15.551139506884285 0.4040765250057401 7.37175940460413 0 0 0
292 1 18.434986473408195 3.16757496214416 7.020245462934617 0 0 0
235 1 17.001031457811266 1.7569554999437542 8.969649351716274 0 0 0
979 1 23.330544784418244 2.148924789496804 8.908497099221378 0 0 0
898 1 21.97912952545291 0.564024916553844 7.12807560268887 0 0 0
980 1 30.183746996002807 2.0343306618593644 9.316764009326794 0 0 0
900 1 28.87146757409821 0.6533414680211644 7.207407502693331 0 0 0
906 1 31.782619028895546 3.141876236097006 7.17339311576406 0 0 0
75 1 -0.12619094061870129 3.738344449749135 7.142720621120561 0 0 0
236 1 1.4046206207982235 5.306929642657894 8.769907773060318 0 0 0
240 1 7.474582662073913 4.706569257941367 8.511092347318115 0 0 0
248 1 9.762482194794115 6.190907685667004 7.223130996167789 0 0 0
242 1 14.036319480284412 4.8719832648534815 8.765600298840518 0 0 0
983 1 20.17173138441081 5.0844871073491005 8.515732135929236 0 0 0
984 1 25.14195682661295 3.86866103497513 7.4340981620866025 0 0 0
985 1 26.916146698534355 5.487411973426028 8.719112079782194 0 0 0
986 1 33.300612219176266 5.075613013121912 8.794484201938818 0 0 0
237 1 2.8294538955697295 6.8915582352568965 6.852019854935479 0 0 0
246 1 4.600508381188389 8.02597512187218 8.731593501090382 0 0 0
249 1 11.241084420642874 7.912392335265761 8.687790149641243 0 0 0
147 1 15.652168572346849 6.780178053235493 7.119200224688357 0 0 0
252 1 16.965225437278075 8.677623392481314 8.552370036054239 0 0 0
982 1 21.916471310947063 6.6064791606794175 7.1147826253173845 0 0 0
988 1 23.787612073219403 8.28491880373254 8.447421948317636 0 0 0
989 1 28.866104119998532 6.785832434135157 7.056485986991687 0 0 0
990 1 29.99588048842389 8.556383851031018 8.613102763954702 0 0 0
253 1 1.3365627105542088 11.544756679221921 8.73065769768526 0 0 0
247 1 6.194192577856809 9.504879260014446 7.207204141471924 0 0 0
255 1 7.856991455417493 11.321705662439841 8.69039849426917 0 0 0
256 1 12.762526383889995 9.623227668548566 7.132738427539252 0 0 0
257 1 14.509542951440967 11.294227033724937 8.408722830001219 0 0 0
764 1 18.74966266427795 9.902162188687631 7.057718403692081 0 0 0
992 1 20.327856576716105 11.539056311146101 8.68253596174615 0 0 0
909 1 25.354547593659024 9.853345442057924 6.799880258786038 0 0 0
994 1 26.852501654317976 11.467173196274107 8.53131679075654 0 0 0
911 1 31.951810871085463 9.80329810708175 6.995331405182925 0 0 0
995 1 33.201892979328434 11.334106020869791 8.95693838101791 0 0 0
254 1 2.8424841843399586 13.002796988498066 7.04795022350806 0 0 0
258 1 4.6010936100104125 14.466456090495436 8.499443943390618 0 0 0
259 1 9.67740472127605 12.901617745665774 7.301387580202543 0 0 0
260 1 11.255288278649182 14.427136228510095 8.718954645622505 0 0 0
159 1 15.962689111349135 13.099461913918736 7.088699344912065 0 0 0
262 1 17.637146329908237 14.714326751938057 8.707762233417014 0 0 0
919 1 21.845805080857666 13.245672123297773 6.960770044098711 0 0 0
996 1 23.865386685965976 15.127947063458663 8.282868796511705 0 0 0
997 1 28.479073775013248 13.451041266744479 7.301812010315139 0 0 0
999 1 29.96029142405046 15.19762118127468 8.572722344890806 0 0 0
6 1 -0.04808307906529477 16.201724764889416 7.318716956343326 0 0 0
264 1 1.5714405113139158 17.69596867981323 9.088555964459506 0 0 0
266 1 6.475199930512207 16.039607884721278 7.25299224452204 0 0 0
267 1 7.731241725851744 17.623531649683386 8.795472975922284 0 0 0
163 1 12.909576130060545 16.019092310425695 7.01842821674129 0 0 0
268 1 14.12062571918033 17.862000480284383 8.930720447770149 0 0 0
825 1 19.05969755367923 16.288969629558288 6.978107033529563 0 0 0
1000 1 20.253772387117067 17.96942038151929 8.694321196436269 0 0 0
1002 1 25.456955246890292 16.644580924175926 6.741070130838192 0 0 0
1003 1 26.529023764641508 18.22304648569938 8.629606576185799 0 0 0
921 1 31.885993417201426 16.254450330823303 7.045598062710276 0 0 0
1005 1 33.307207186526156 18.303163159548898 8.687058972747147 0 0 0
171 1 3.2270410104817207 19.313153165156848 7.239857657602239 0 0 0
270 1 4.545058554838767 20.76972245776189 9.105562232199501 0 0 0
272 1 9.479533633652565 19.549950722482997 7.344234104743899 0 0 0
273 1 10.990548122138518 21.31824455515396 8.728710161489547 0 0 0
166 1 15.990542831616207 19.541146555184582 7.6651961305564456 0 0 0
925 1 21.896234388167432 19.492995291179632 7.438450659734324 0 0 0
1008 1 23.53150020222755 21.100782990753974 8.776241307401406 0 0 0
931 1 28.322182758072856 19.650750860342725 7.498324414793091 0 0 0
1006 1 34.366923972873124 19.93936502652022 6.965374762767345 0 0 0
276 1 1.2609108095746413 24.325349282485845 8.463221312498936 0 0 0
176 1 6.098185028994824 22.176774689583077 7.233305545948589 0 0 0
277 1 7.54097833114384 24.18416126153353 8.873325555952265 0 0 0
173 1 12.921128317606872 22.58279664513116 7.358603116899174 0 0 0
279 1 14.321163658847377 24.307636118151994 8.928782066699242 0 0 0
275 1 17.599243610248294 21.584791102046772 9.195302970924805 0 0 0
1391 1 18.961208347561012 22.889991071626106 7.107510176148856 0 0 0
1012 1 20.784439265199605 24.30123272726567 8.650947250560558 0 0 0
937 1 25.007446327511275 22.72944599035384 7.1408781454834935 0 0 0
1009 1 30.01643903489937 21.50586573582303 9.091169313694984 0 0 0
1017 1 31.353479843156425 23.080315312628915 7.12664278605654 0 0 0
283 1 3.1825562623970987 26.06763514530499 7.222929132737116 0 0 0
278 1 9.217539113262934 25.733788489155366 7.209244464741601 0 0 0