
# Set production fixes - Nose/Hoover
#
fix                 2 all nph iso ${PRES} ${PRES} ${PCOUPL}
fix                 2 all nph iso -500 ${PRES} ${PCOUPL}
fix                 2 all nph iso -500 -500 ${PCOUPL}
fix                 2 all nph iso -500 -500 10000.0
fix                 3 all temp/csvr ${TEMP} ${TEMP} ${TCOUPL} 837492
fix                 3 all temp/csvr 293 ${TEMP} ${TCOUPL} 837492
fix                 3 all temp/csvr 293 293 ${TCOUPL} 837492
fix                 3 all temp/csvr 293 293 5000.0 837492

# Define Order parameter
#
compute             2 all orientorder/atom nnn NULL cutoff 3.5
thermo              200
thermo_style        custom step temp press vol etotal ke pe c_1[4]

# Run 1ns simulation
dump		    1 all custom 400 prod.${NAME}.dump id type x y z vx vy vz c_2[*]
dump		    1 all custom 400 prod.ice_293K_-500atm_ML.dump id type x y z vx vy vz c_2[*]
run                 200000
Neighbor list info ...
  update every 1 steps, delay 0 steps, check yes
  max neighbors/atom: 2000, page size: 100000
  master list distance cutoff = 6.0032907
  ghost atom cutoff = 6.0032907
  binsize = 3.0016454, bins = 20 17 17
  2 neighbor lists, perpetual/occasional/extra = 1 1 0
  (1) pair sw, perpetual
      attributes: full, newton on
      pair build: full/bin/atomonly
      stencil: full/bin/3d
      bin: standard
  (2) compute orientorder/atom, occasional, copy from (1)
      attributes: full, newton on
      pair build: copy
      stencil: none
      bin: none
Per MPI rank memory allocation (min/avg/max) = 5.820 | 5.820 | 5.820 Mbytes
Step Temp Press Volume TotEng KinEng PotEng c_1[4] 
       0    292.71558   -494.98143    149233.22   -47495.508    4019.7436   -51515.252   0.14661455 
     200    292.02739   -496.15971    149239.06   -47485.787     4010.293    -51496.08   0.15646479 
     400    295.61198   -506.95804    149252.43   -47479.958    4059.5187   -51539.477   0.15324181 
     600    293.95239   -509.61184    149269.78   -47517.755    4036.7282   -51554.483   0.14747625 
     800    291.72676   -508.89818    149252.41   -47533.704    4006.1645   -51539.868   0.15195338 
    1000    289.63284   -511.94943    149237.31   -47546.865    3977.4096   -51524.275   0.15087165 
    1200    292.48701   -496.69933    149221.26   -47573.076    4016.6047   -51589.681   0.14505349 
    1400    292.10235   -510.73843    149238.46   -47563.707    4011.3224    -51575.03   0.14550463 
    1600    290.95184   -472.91211    149210.66   -47566.904    3995.5229   -51562.427   0.14921724 
    1800    289.95369   -523.99476    149187.18   -47573.286    3981.8157   -51555.102   0.15350749 
    2000    294.71729   -452.60307    149198.64   -47526.929    4047.2322   -51574.161   0.14436491 
    2200    290.84989   -519.27866     149229.2   -47494.015    3994.1228   -51488.138    0.1524638 
    2400    291.23416   -502.65767     149257.2   -47512.533    3999.3999   -51511.932   0.15237197 
    2600    290.22254   -506.82886    149224.47   -47558.009    3985.5076   -51543.516   0.15225737 
    2800    289.12512    -489.7685    149182.59   -47576.128    3970.4372   -51546.565   0.15083412 
    3000    293.73713   -492.76757    149235.72   -47588.234    4033.7721   -51622.006   0.14402938 
    3200    283.71855    -555.5263    149285.39   -47531.929    3896.1911   -51428.121   0.14723215 
    3400    291.11832   -510.61075    149250.88   -47573.762    3997.8091   -51571.571   0.14288701 
    3600    288.41464   -477.33157    149172.15   -47602.509    3960.6806    -51563.19   0.14630682 
    3800    292.89743   -456.47743    149196.81   -47528.022    4022.2408   -51550.263   0.15468452 
    4000    291.15302   -581.76086    149340.74   -47521.297    3998.2856   -51519.583   0.15152209 
    4200    290.53264   -540.91077    149302.23   -47537.415    3989.7662   -51527.181   0.14258267 
    4400    293.60027   -426.97825    149140.73   -47526.285    4031.8926   -51558.177   0.14624584 
    4600    300.03164   -445.67171    149204.48   -47506.796    4120.2121   -51627.008    0.1479165 
    4800    291.65345   -589.44064    149377.48   -47494.183    4005.1578   -51499.341   0.15700117 
    5000     294.1996   -504.04203    149262.09   -47474.332     4040.123   -51514.455   0.14945945 
    5200    294.60375   -360.64218    149095.01    -47477.56     4045.673   -51523.233   0.14464168 
    5400    292.59462    -527.8727    149259.35   -47437.435    4018.0825   -51455.518   0.15133118 
    5600    293.85731   -561.92136    149410.69   -47419.675    4035.4225   -51455.098   0.14826446 
    5800    297.80269   -480.45692    149233.01   -47409.948    4089.6028   -51499.551   0.15547191 
    6000    295.13667   -446.68701    149138.12   -47396.975    4052.9914   -51449.967   0.16116447 
    6200    294.08226   -547.12174    149365.86   -47388.515    4038.5117   -51427.027   0.15257963 
    6400    301.96979     -564.676    149442.38   -47356.008    4146.8279   -51502.836   0.14314241 
    6600    294.26065   -416.75762     149191.1       -47398    4040.9614   -51438.961   0.14963718 
    6800    295.81044   -395.54387    149138.04   -47438.998     4062.244   -51501.242   0.15290201 
    7000    292.75082   -607.37493    149367.98   -47440.648    4020.2275   -51460.875   0.15598397 
    7200    295.40579   -556.95251    149340.74   -47387.605    4056.6871   -51444.292   0.15327731 
    7400    293.54177   -373.54892    149108.09   -47373.656    4031.0893   -51404.746   0.15201801 
    7600    294.25201   -447.98239    149201.14   -47408.161    4040.8427   -51449.003   0.15646664 
    7800     295.0415   -550.60598    149400.09   -47434.542    4051.6845   -51486.227   0.14850764 
    8000    296.16527   -500.40984    149280.14   -47401.594    4067.1168   -51468.711   0.15733705 
    8200    296.35766   -381.81026    149068.95   -47440.321    4069.7588   -51510.079   0.15596055 
    8400    299.35772   -459.63788    149234.62   -47465.368    4110.9574   -51576.326   0.14679882 
    8600    293.32365   -601.88938    149441.47   -47420.677     4028.094   -51448.771   0.15259365 
    8800    295.96307   -458.43025    149248.14   -47351.968    4064.3401   -51416.308   0.15610505 
    9000    294.94052   -414.45782    149100.43   -47332.116    4050.2978   -51382.414   0.16529474 
    9200    292.10906   -567.37789    149344.95   -47316.016    4011.4144    -51327.43   0.16186662 
    9400    292.66837    -666.2666     149510.2   -47364.076    4019.0953   -51383.171   0.15975899 
    9600    299.71684   -442.15251    149217.99    -47357.15    4115.8891   -51473.039   0.15811932 
    9800    297.57606   -351.55495    149092.18   -47375.916    4086.4906   -51462.406   0.15402873 
   10000    299.09602   -564.05551    149445.54   -47369.923    4107.3635   -51477.287   0.15321141 
   10200     298.4427   -688.07862    149554.14   -47360.865    4098.3918   -51459.257   0.15946528 
   10400    299.40714   -345.31528    149117.28   -47350.965    4111.6361   -51462.601   0.15507084 
   10600    295.54488   -308.84617     149032.3   -47333.491    4058.5972   -51392.088   0.15236345 
   10800     295.7671   -657.99258    149503.18   -47362.535    4061.6488   -51424.184   0.15036596 
   11000    295.06434   -690.76774    149516.03   -47404.022    4051.9981    -51456.02   0.15173377 
   11200    296.79543    -351.2458    149003.42   -47425.572    4075.7705   -51501.343   0.15706126 
   11400    293.14397   -326.01534    149064.87   -47452.487    4025.6265   -51478.114   0.15471477 
   11600    295.41867   -739.24502    149598.07   -47419.164     4056.864   -51476.028   0.15699202 
   11800    296.13851   -624.73963     149442.3   -47493.942    4066.7493   -51560.692   0.15427545 
   12000     294.1826   -208.19216     148878.9   -47497.995    4039.8896   -51537.884   0.14797394 
   12200    290.26565   -407.80164    149133.43   -47476.167    3986.0996   -51462.267   0.15751601 
   12400    293.68557   -802.04232    149686.38   -47439.263     4033.064   -51472.327   0.16034396 
   12600    297.26006   -528.69374    149342.29   -47453.359    4082.1511    -51535.51   0.15275865 
   12800     296.4973   -198.03047    148806.68   -47468.113    4071.6765   -51539.789   0.15449912 
   13000    290.55244   -481.78407    149216.88   -47446.356     3990.038   -51436.394   0.15571278 
   13200    301.31667   -796.86106    149691.32   -47413.153    4137.8588   -51551.012   0.15933638 
   13400    297.34981    -491.1445    149227.71   -47437.004    4083.3836   -51520.388   0.15799374 
   13600    296.78175   -203.15095    148827.48   -47429.373    4075.5826   -51504.956    0.1574975 
   13800    296.36744   -552.93225    149296.04   -47419.848    4069.8932   -51489.741   0.15663037 
   14000    296.77023     -780.784    149618.01   -47437.035    4075.4244    -51512.46   0.15546089 
   14200    294.73846   -423.98408    149131.08   -47467.685     4047.523   -51515.208   0.15307257 
   14400    299.55959    -233.3889    148881.04   -47494.184    4113.7296   -51607.914   0.14831205 
   14600    293.70759   -601.09305    149367.22   -47487.305    4033.3664   -51520.671    0.1523214 
   14800    291.28301   -730.29142    149544.42   -47466.047    4000.0707   -51466.118   0.15494358 
   15000    287.96351   -353.49944    149056.05   -47522.931    3954.4854   -51477.416   0.15016833 
   15200    289.14559   -321.76217     148960.9   -47578.137    3970.7184   -51548.855   0.14716122 
   15400    287.96159   -683.03202    149402.57   -47590.987    3954.4591   -51545.446   0.15781446 
   15600    288.58032   -648.62488    149397.78   -47627.379    3962.9558   -51590.335    0.1503998 
   15800    288.69413   -330.83761    148992.51    -47581.38    3964.5187   -51545.899   0.14957805 
   16000    288.54828   -394.93266    149069.64   -47567.622    3962.5158   -51530.138   0.15066268 
   16200    288.53628   -649.56823    149427.38   -47512.969    3962.3509   -51475.319   0.15513403 
   16400    287.37315    -584.4924    149338.74   -47508.456    3946.3782   -51454.834   0.15553068 
   16600     293.9397   -391.92846    149066.01    -47528.64     4036.554   -51565.194   0.15269131 
   16800    293.63325   -424.83781    149146.42   -47481.954    4032.3456   -51514.299   0.15463644 
   17000    293.98668   -590.69527    149349.54   -47503.545    4037.1991   -51540.744      0.15239 
   17200     289.6898   -546.61645    149259.41   -47486.011    3978.1917   -51464.203   0.15297929 
   17400    291.51786   -479.28124    149134.15   -47533.841    4003.2957   -51537.136    0.1525213 
   17600     292.7534   -521.11746    149213.56   -47571.604     4020.263   -51591.867   0.15284404 
   17800    291.67297   -545.92343    149297.96   -47588.929    4005.4259   -51594.355   0.14781355 
   18000      289.965   -513.53075    149220.41   -47623.732     3981.971   -51605.703   0.14530231 
   18200    286.99435   -448.07565    149152.52   -47649.308    3941.1763   -51590.484    0.1442412 
   18400     289.8936   -474.67922     149220.6   -47670.649    3980.9905   -51651.639   0.14381147 
   18600    287.77088   -525.51975    149270.86   -47625.949      3951.84   -51577.789   0.14667531 
   18800    293.05091   -481.92456    149223.65   -47560.777    4024.3485   -51585.126   0.14651445 
   19000    290.78006   -491.45053    149218.26   -47590.052    3993.1639   -51583.216   0.14769699 
   19200     294.2025     -488.885    149257.55   -47563.607    4040.1629    -51603.77   0.15008024 
   19400    292.12654   -513.33208    149277.43   -47553.914    4011.6546   -51565.569   0.14540627 
   19600    289.59177   -522.84418    149245.85   -47583.597    3976.8456   -51560.443   0.14638029 
   19800    285.32591   -446.45444     149211.5   -47579.483    3918.2642   -51497.747   0.15163718 
   20000     288.5146   -495.37976    149249.52   -47569.916    3962.0532   -51531.969   0.15674903 
   20200    291.57995   -506.90779    149266.19   -47596.327    4004.1485   -51600.476   0.14887859 
   20400    291.09169   -479.25396    149207.97    -47575.05    3997.4433   -51572.494   0.15112839 
   20600    288.22509   -464.93038    149174.61   -47571.157    3958.0775   -51529.235   0.15553262 
   20800    288.66383   -546.37842    149249.28   -47573.366    3964.1026   -51537.468   0.15528587 
   21000    293.72044   -513.61323    149263.81   -47568.227    4033.5429    -51601.77   0.15454276 
   21200     294.7857   -451.13532    149176.46   -47558.706    4048.1717   -51606.878     0.153696 
   21400    289.32885   -490.76622    149179.16    -47553.29     3973.235   -51526.525   0.15206808 
   21600    293.44527   -526.57311     149261.1    -47508.17    4029.7641   -51537.934   0.14641928 
   21800    298.08515   -523.23655    149278.49   -47458.573    4093.4817   -51552.055   0.15157171 
   22000    290.56846   -487.02677    149226.19    -47464.96    3990.2581   -51455.218    0.1596663 
   22200    296.17448   -447.32478    149177.31   -47423.408    4067.2433   -51490.651   0.15899859 
   22400    299.21561   -495.51898    149274.64   -47399.761    4109.0059   -51508.767   0.15238778 
   22600    293.27947   -543.31509    149355.19    -47406.42    4027.4873   -51433.907   0.15580984 
   22800    294.54672   -478.68991    149265.68   -47444.085    4044.8899   -51488.975   0.15163698 
   23000    295.60291   -448.15558    149154.68   -47463.697    4059.3941   -51523.091   0.14943088 
   23200    294.71318   -534.52037    149284.05    -47456.22    4047.1758   -51503.396   0.15465078 
   23400    290.17099   -609.41183    149415.76   -47463.913    3984.7998   -51448.713   0.15797075 
   23600    292.65885   -427.57123    149232.91   -47482.215    4018.9646   -51501.179   0.14472968 
   23800     293.2807   -382.23326    149095.71   -47420.951    4027.5042   -51448.455   0.14701177 
   24000     289.6281   -566.38108    149326.17    -47457.54    3977.3445   -51434.885   0.15403332 
   24200     293.8355   -655.07319    149450.72    -47439.56     4035.123   -51474.683   0.15875506 
   24400    293.94003   -445.16348    149180.05    -47447.41    4036.5585   -51483.968   0.15567265 
   24600    297.65997   -366.61569    149086.78   -47448.518    4087.6429   -51536.161   0.15154292 
   24800    297.96363   -551.69677    149422.97   -47368.678    4091.8129   -51460.491   0.15167687 
   25000    302.71351   -670.88337    149552.13   -47367.119    4157.0411    -51524.16   0.14879663 
   25200    294.67653   -419.19996    149205.62   -47393.373    4046.6726   -51440.045   0.14985928 
   25400    298.12348   -333.20173    149085.32   -47458.536    4094.0082   -51552.544   0.14779848 
   25600    294.13083    -610.5523    149427.93   -47479.558    4039.1787   -51518.736   0.15214036 
   25800    294.37597   -687.68932    149474.14   -47455.636    4042.5451   -51498.181   0.15222867 
   26000    294.22731   -381.70763    149107.93   -47436.126    4040.5036    -51476.63   0.14667096 
   26200     300.7848   -365.60627    149112.66   -47483.945    4130.5549     -51614.5   0.14385321 
   26400    288.94773   -645.18941     149447.5   -47504.097    3968.0012   -51472.098   0.15575621 
   26600    289.90347   -608.12447     149375.1   -47513.591    3981.1261   -51494.717   0.15629337 
   26800    298.71495   -339.90433    149039.93   -47521.654    4102.1306   -51623.784   0.14414377 
   27000    292.63691     -418.231    149159.78   -47520.213    4018.6633   -51538.877   0.14237955 
   27200    288.80274   -681.96002    149443.04   -47511.567    3966.0102   -51477.577   0.14916461 
   27400    290.69325   -525.99975    149232.43   -47477.478    3991.9718   -51469.449   0.14977333 
   27600    290.68464    -259.6838    148972.95   -47483.864    3991.8535   -51475.717   0.14746783 
   27800    291.64297    -529.8503    149263.54   -47478.358    4005.0139   -51483.372   0.15336503 
   28000    291.63192   -673.09145    149490.86   -47463.482    4004.8622   -51468.344   0.15283864 
   28200    292.39037   -474.03581    149145.29   -47485.281    4015.2776   -51500.558   0.14920006 
   28400    288.83732   -288.89676    148963.86   -47480.997    3966.4851   -51447.483   0.14901627 
   28600    294.29515   -617.98423    149358.03   -47500.296    4041.4352   -51541.731   0.15394775 
   28800    291.65939   -717.71891    149470.46   -47509.591    4005.2394    -51514.83   0.15369993 
   29000    293.68502   -340.36098    148999.42   -47549.437    4033.0566   -51582.494   0.14504511 
   29200    288.73745     -337.232    148938.04   -47585.995    3965.1136   -51551.109   0.14729217 
   29400    291.79805   -710.12378    149446.47   -47582.698    4007.1435   -51589.841    0.1480667 
   29600    291.43506   -677.04402     149458.2   -47542.306    4002.1588   -51544.465   0.14542092 
   29800    291.94778   -305.29447    148958.38   -47467.877    4009.1997   -51477.077   0.15278451 
   30000    292.20292    -405.8935    149077.03   -47458.108    4012.7035   -51470.811   0.15332568 
   30200    290.92874   -769.25781    149597.02   -47462.586    3995.2056   -51457.792   0.15158321 
   30400    285.81403   -589.27979    149363.44    -47516.69    3924.9675   -51441.658    0.1472686 
   30600    297.75967   -181.67541    148844.67   -47468.516     4089.012   -51557.528   0.14399182 
   30800    291.93579   -484.58788    149211.03   -47435.113    4009.0351   -51444.148   0.15412377 
   31000     287.8025   -860.33095     149754.7   -47415.378    3952.2743   -51367.652   0.15623143 
   31200    297.84169   -458.22127    149260.78   -47422.866    4090.1384   -51513.004   0.14583306 
   31400    297.40408   -119.97859    148771.01   -47423.681    4084.1289    -51507.81   0.14592147 
   31600    294.14625   -600.20692    149392.89   -47484.087    4039.3904   -51523.477   0.14629352 
   31800    290.89176   -913.46739    149787.35   -47450.043    3994.6979   -51444.741   0.15376567 
   32000    295.42685   -307.92214    149077.07   -47425.847    4056.9764   -51482.824   0.14866273 
   32200    290.55948   -165.73597    148819.74    -47462.69    3990.1347   -51452.825   0.15021556 
   32400    297.99475   -735.16637     149580.9   -47453.896    4092.2402   -51546.136   0.14972855 
   32600    291.76718   -807.75185    149698.41   -47436.718    4006.7197   -51443.438   0.15002821 
   32800    297.93112   -245.14627    148884.33   -47440.633    4091.3665   -51531.999   0.14722412 
   33000    289.50545    -236.4709    148882.96   -47429.734    3975.6601   -51405.395   0.15702498 
   33200    297.66654   -767.27516    149660.36   -47417.038    4087.7331   -51504.771   0.15690805 
   33400    292.33001   -690.38836    149539.66    -47376.52    4014.4487   -51390.969   0.15360579 
   33600    302.40225   -212.37623    148903.62   -47313.177    4152.7667   -51465.944   0.14886022 
   33800    295.98706   -394.34363    149142.96   -47347.488    4064.6694   -51412.157   0.15268372 
   34000    296.86252   -723.82354    149647.49   -47365.043    4076.6918   -51441.735   0.15580279 
   34200    291.35298   -553.01005     149380.3   -47398.175    4001.0315   -51399.207   0.15196288 
   34400    292.74296   -314.26717    148978.99   -47468.366    4020.1196   -51488.486   0.15064036 
   34600    294.47601   -444.52985    149206.32    -47441.27    4043.9189   -51485.188   0.14891774 
   34800    293.30239   -689.46025    149518.45   -47480.054    4027.8021   -51507.856   0.14695184 
   35000    291.17772   -521.62068    149263.51   -47506.954    3998.6248   -51505.579   0.14972254 
   35200    294.34329    -308.2563    149011.59   -47497.012    4042.0962   -51539.108   0.15173892 
   35400    293.74107   -485.99462     149249.6    -47457.02    4033.8263   -51490.846   0.15027189 
   35600    296.49985   -681.91301    149467.91   -47449.547    4071.7115   -51521.258   0.14650262 
   35800    296.47609   -514.70214    149267.84   -47451.002    4071.3851   -51522.387   0.14815756 
   36000    291.61257   -387.93346     149090.2   -47453.188    4004.5964   -51457.784   0.15398105 
   36200    293.13206   -534.64202    149267.55   -47468.283    4025.4629   -51493.746   0.14923192 
   36400    293.89987   -609.13096    149419.71   -47493.985     4036.007   -51529.992   0.14864035 
   36600    295.61568   -490.04567    149254.39   -47470.143    4059.5695   -51529.712   0.15019484 
   36800    291.09497   -404.42608    149126.19   -47515.214    3997.4884   -51512.702   0.14614251 
   37000    287.97516   -498.14716    149290.72   -47502.601    3954.6454   -51457.247   0.14428081 
   37200    298.02594   -616.81183    149414.25   -47463.301    4092.6686    -51555.97   0.14766636 
   37400    291.06924   -472.28615    149251.25   -47456.046     3997.135   -51453.181   0.15147893 
   37600    291.50405   -420.45034    149165.46   -47484.598    4003.1062   -51487.705   0.14725104 
   37800    292.56441   -550.16076    149337.48   -47448.071    4017.6677   -51465.738   0.14343335 
   38000    290.04421   -557.01971    149374.53   -47501.926    3983.0587   -51484.985   0.15016233 
   38200    290.42201   -440.32975    149165.25   -47497.547    3988.2469   -51485.794   0.14791763 
   38400    295.35971   -425.93786    149128.96   -47464.059    4056.0544   -51520.113   0.14771036 
   38600    289.85667   -614.27245    149375.55   -47458.482    3980.4833   -51438.965   0.15454919 
   38800    292.85488     -627.829    149380.92   -47510.357    4021.6566   -51532.014   0.15329913 
   39000    292.87115   -402.42788    149111.13     -47540.1      4021.88    -51561.98   0.14585901 
   39200    289.02698   -439.51467    149125.47   -47561.445    3969.0895   -51530.534   0.14480799 
   39400    290.52027   -631.94751    149418.29   -47548.844    3989.5963    -51538.44   0.15281767 
   39600    288.25986   -591.83495    149353.16   -47620.219    3958.5551   -51578.774   0.15143207 
   39800    287.59585   -341.00551    149041.29   -47610.888    3949.4365   -51560.325   0.14309929 
   40000    290.12155   -456.43653    149176.94   -47623.733    3984.1208   -51607.854   0.14022691 
   40200     288.1856   -679.14985     149506.9   -47595.888    3957.5352   -51553.423   0.14195212 
   40400    291.91474   -511.80388    149310.16   -47592.116     4008.746   -51600.862   0.14456552 
   40600    286.02404   -286.75258    148970.01   -47622.587    3927.8515   -51550.438   0.14603537 
   40800     288.8721   -481.48271    149225.17   -47640.308    3966.9626    -51607.27   0.14529495 
   41000    285.92436   -796.32376    149607.21   -47591.884    3926.4825   -51518.367   0.15015135 
   41200    288.73462    -524.5612    149254.85   -47628.766    3965.0747   -51593.841   0.14373472 
   41400    289.39963   -217.92338    148848.88   -47595.721     3974.207   -51569.928   0.13980912 
   41600    289.17091   -548.70822    149322.19   -47588.697     3971.066   -51559.763    0.1454372 
   41800    286.55475    -838.2997     149693.7   -47582.428    3935.1395   -51517.567   0.15654356 
   42000    291.73182   -382.53195    149107.49   -47559.784     4006.234   -51566.018   0.14453045 
   42200    293.05876   -180.48293    148801.46   -47589.748    4024.4563   -51614.205    0.1359617 
   42400     290.5781   -681.64146    149503.32   -47637.037    3990.3905   -51627.427   0.14108198 
   42600    285.67781   -861.06982    149705.41   -47659.459    3923.0968   -51582.556   0.15244462 
   42800    283.04598   -226.99472    148891.09   -47666.182    3886.9549   -51553.137   0.14135143 
   43000    289.90884   -180.10965    148830.07   -47622.433    3981.1997   -51603.632   0.13912514 
   43200    291.16799   -844.03549    149663.27   -47619.307    3998.4912   -51617.798   0.14827305 
   43400    289.14469   -748.76948       149548   -47610.187    3970.7061   -51580.893   0.14678125 
   43600    287.85102   -136.82759    148745.43   -47609.965    3952.9405   -51562.906   0.14080398 
   43800    290.21861   -323.93598    148995.07    -47582.66    3985.4537   -51568.113   0.14588323 
   44000    288.26858   -886.99382    149710.98   -47594.581    3958.6748   -51553.255   0.15643627 
   44200    284.31471    -584.2268    149349.76   -47639.946    3904.3779   -51544.324   0.14653077 
   44400    285.21174   -118.22768    148736.24   -47618.045    3916.6964   -51534.741   0.14116293 
   44600     292.6053   -476.25275    149198.09    -47553.83    4018.2291   -51572.059   0.14840565 
   44800    290.60532   -796.04352    149701.88   -47511.978    3990.7643   -51502.743   0.15231687 
   45000    292.93294   -484.70271    149189.31   -47553.748    4022.7285   -51576.476   0.14772561 
   45200    291.23009   -157.38709    148795.73   -47575.795     3999.344   -51575.139    0.1411561 
   45400    287.57348   -622.83161    149326.33   -47623.141    3949.1292    -51572.27   0.15215569 
   45600    284.67073   -794.60831    149598.46   -47607.854     3909.267   -51517.121   0.14830344 
   45800    287.60815    -390.8854    149083.19   -47586.135    3949.6054    -51535.74   0.14114027 
   46000    286.64077   -286.57165    148916.44   -47584.184    3936.3207   -51520.505   0.14751946 
   46200    285.64003   -662.74323    149426.21   -47613.619     3922.578   -51536.197   0.15367426 
   46400    284.83412   -723.80845    149489.56   -47594.714    3911.5107   -51506.225   0.15224253 
   46600    292.34686   -313.75541    148981.51   -47596.358    4014.6801   -51611.038   0.13929671 
   46800    289.30153   -332.67336    148996.36   -47560.605    3972.8598   -51533.465   0.14987608 
   47000    294.90581   -696.40334    149496.47   -47536.544    4049.8212   -51586.365   0.14941464 
   47200    291.17244   -636.59093    149424.09   -47506.667    3998.5523   -51505.219   0.15198253 
   47400     298.1603   -272.88054       148994   -47439.657    4094.5137   -51534.171   0.14725782 
   47600    297.41736   -433.40224    149149.36   -47414.175    4084.3112   -51498.486   0.14978946 
   47800    296.07852     -726.746    149559.43   -47378.643    4065.9255   -51444.569   0.15241144 
   48000    296.58375   -564.81481    149350.75   -47383.891    4072.8636   -51456.755    0.1529892 
   48200    291.19346   -282.05807    148979.57   -47386.335    3998.8409   -51385.176   0.15647758 
   48400    291.83497   -497.61583    149233.63   -47365.267    4007.6505   -51372.918   0.16073202 
   48600    292.73259   -720.20943    149536.31   -47427.143    4019.9772    -51447.12   0.15281828 
   48800    293.12837   -489.75838    149226.76   -47371.175    4025.4123   -51396.587    0.1503979 
   49000    297.32894   -292.64691    148996.79   -47351.312     4083.097   -51434.409    0.1500793 
   49200    293.17934   -537.90126    149366.52   -47383.194    4026.1123   -51409.306   0.15760226 
   49400    293.24849   -699.07153    149526.16   -47391.326    4027.0618   -51418.388   0.15608151 
   49600    295.10144   -381.30401    149148.77   -47412.073    4052.5076    -51464.58   0.14585025 
   49800    294.21499   -345.12031    149056.67   -47392.738    4040.3343   -51433.072    0.1468134 
   50000    295.19028   -650.08723    149426.37   -47391.571    4053.7277   -51445.298   0.15571563 
   50200    293.79362   -640.97694     149437.3   -47427.624    4034.5479   -51462.172   0.15111048 
   50400    301.22834   -336.03504    149070.72   -47436.444    4136.6459   -51573.089   0.14965002 
   50600    294.35502   -400.75165    149117.81    -47457.02    4042.2573   -51499.277   0.15342573 
   50800     294.1489   -671.42373    149454.87   -47465.817    4039.4268   -51505.244   0.15183689 
   51000    295.06849   -530.87941     149350.4    -47400.01    4052.0552   -51452.065   0.14732455 
   51200    294.04048   -381.02769    149033.93   -47433.631    4037.9379   -51471.569   0.15247019 
   51400     299.3165    -441.2195    149180.28   -47397.199    4110.3913    -51507.59   0.15610264 
   51600    294.89334   -684.71959    149526.77   -47394.393    4049.6499   -51444.043   0.15460188 
   51800    294.18088   -570.39699    149340.55   -47392.346     4039.866   -51432.212   0.15636629 
   52000    299.67798   -275.39791    148994.43   -47355.431    4115.3554   -51470.786   0.15470027 
   52200    300.67095    -448.5633    149270.54   -47325.992    4128.9914   -51454.984   0.15171334 
   52400    297.78462   -768.35065    149640.83   -47303.301    4089.3547   -51392.656   0.15459986 
   52600    294.70139   -479.57117    149235.63   -47345.668    4047.0139   -51392.682   0.15445299 
   52800    298.13236   -204.30629    148845.87    -47367.93      4094.13    -51462.06    0.1580119 
   53000     294.9146   -570.06254       149400   -47370.296    4049.9418   -51420.238   0.15631075 
   53200    294.53004   -897.20312    149776.33   -47374.053    4044.6608   -51418.714   0.15313931 
   53400    298.57775   -301.23368    149005.55   -47409.408    4100.2464   -51509.654   0.14633341 
   53600     292.4403   -70.765747    148687.36   -47438.114    4015.9633   -51454.078   0.15256776 
   53800     293.5205   -803.48445    149633.66   -47408.555    4030.7972   -51439.352   0.15708651 
   54000    298.07931   -894.70508    149801.04   -47395.344    4093.4015   -51488.746   0.15780844 
   54200    299.00542   -166.26196    148774.72   -47411.217    4106.1194   -51517.337   0.15292085 
   54400    294.53075    -154.0513    148782.68   -47439.849    4044.6706    -51484.52   0.15235307 
   54600    296.13643   -866.37884    149772.19   -47426.331    4066.7208   -51493.052   0.14934939 
   54800    294.25694   -717.99795     149605.9   -47369.909    4040.9104   -51410.819   0.15774868 
   55000    289.77578   -91.177536    148758.53   -47377.789    3979.3725   -51357.162   0.15935082 
   55200    299.94821   -339.38708    149095.22   -47408.852    4119.0664   -51527.918   0.15028205 
   55400    295.57186   -856.76771    149765.34   -47425.724    4058.9677   -51484.691   0.15476668 
   55600    292.70907     -554.829    149289.62   -47466.784    4019.6542   -51486.438    0.1538402 
   55800    296.55015   -112.76106    148745.93   -47442.695    4072.4022   -51515.097   0.15188376 
   56000    294.32764   -515.03739    149270.81   -47426.123    4041.8814   -51468.004   0.15658819 
   56200    292.16143   -823.87998    149680.86   -47454.947    4012.1336    -51467.08   0.15594682 
   56400    297.53702   -461.32054    149161.08   -47462.878    4085.9545   -51548.832   0.15073272 
   56600    288.68018   -257.95338     148868.8   -47467.626    3964.3271   -51431.953   0.15129382 
   56800    291.83093    -571.6609    149324.39    -47414.38     4007.595   -51421.976   0.15538264 
   57000    292.49831   -733.46989    149532.23   -47419.194    4016.7599   -51435.954   0.15337674 
   57200    295.36955   -400.68683    149117.41   -47452.471    4056.1895   -51508.661   0.15039853 
   57400    290.93969   -323.02392    148985.33   -47472.354     3995.356    -51467.71   0.15180821 
   57600    295.46603   -619.85313    149362.84   -47459.355    4057.5144    -51516.87   0.15287123 
   57800    290.86847    -629.0304    149402.49   -47471.551     3994.378   -51465.929   0.15365639 
   58000    292.68613   -380.89679    149032.26   -47488.286    4019.3392   -51507.626   0.15145163 
   58200    288.59795   -376.45727    149043.95   -47527.356    3963.1979   -51490.554    0.1508238 
   58400     291.6868   -593.35641     149396.9   -47516.566    4005.6158   -51522.181   0.14728477 
   58600    296.73555   -596.82054    149388.63   -47495.548    4074.9481   -51570.496   0.14744379 
   58800    290.73354   -356.34123    149054.06   -47530.953    3992.5251   -51523.478   0.15242974 
   59000    289.42942   -385.14815    149115.71   -47555.502    3974.6161   -51530.118   0.14573067 
   59200    289.77326    -690.0794    149452.54   -47552.323     3979.338   -51531.661   0.15016491 
   59400    290.91265   -602.50452     149343.7   -47495.859    3994.9846   -51490.844   0.15529052 
   59600    293.49397   -361.52053    149068.43   -47494.323    4030.4329   -51524.756   0.15312157 
   59800    294.54451   -431.46163    149191.04   -47478.965    4044.8596   -51523.825   0.14839572 
   60000    290.38373   -676.94904    149465.06   -47463.927    3987.7213   -51451.648   0.15529204 
   60200    293.53706   -557.03834     149352.1   -47437.625    4031.0247    -51468.65   0.15403437 
   60400    291.87529   -382.16985    149103.54   -47407.357    4008.2042   -51415.561   0.15277216 
   60600    296.58156   -487.66938    149245.48   -47449.042    4072.8336   -51521.875   0.14908948 
   60800    295.24184   -667.93622    149456.48   -47385.373    4054.4356   -51439.809   0.15762207 
   61000     295.6225   -472.79114    149258.84   -47427.717    4059.6632    -51487.38   0.14609626 
   61200    292.35393   -338.40368    149099.48   -47432.286    4014.7772   -51447.063   0.14820737 
   61400    295.20813   -544.62584    149353.36   -47429.394    4053.9727   -51483.366    0.1530391 
   61600    295.76692   -600.11855    149468.43   -47419.775    4061.6464   -51481.422   0.15354638 
   61800    295.31404   -419.52206    149206.75   -47422.629    4055.4272   -51478.056   0.14615691 
   62000    294.33945   -393.66223    149125.65   -47448.373    4042.0435   -51490.417   0.14663272 
   62200    295.38995   -557.27264    149405.49    -47458.42    4056.4696    -51514.89   0.15052378 
   62400    291.72458    -622.9019    149474.44   -47416.998    4006.1347   -51423.133   0.15559492 
   62600    296.24774   -364.89305    149146.33   -47440.775    4068.2493   -51509.025   0.14613226 
   62800    294.13168   -337.39944    149113.14   -47417.861    4039.1904   -51457.052   0.14795018 
   63000    295.81849   -701.33751    149520.49   -47382.852    4062.3546   -51445.207   0.14987647 
   63200    295.52624    -654.6947     149471.1   -47387.172    4058.3412   -51445.514    0.1555567 
   63400     299.5019   -215.47711    148940.23   -47346.617    4112.9373   -51459.554   0.15680504 
   63600    299.66853   -391.78976    149128.27   -47327.035    4115.2256   -51442.261   0.15648873 
   63800     296.1052    -900.9652    149775.62   -47349.724    4066.2919   -51416.016   0.15834949 
   64000     295.8823    -600.4044    149417.37   -47345.744    4063.2309   -51408.975    0.1565247 
   64200    298.58006   -106.84104    148736.77   -47350.897    4100.2781   -51451.175    0.1501746 
   64400    303.37904   -457.60956    149217.61   -47336.977    4166.1806   -51503.158   0.15323264 
   64600     297.6868   -960.90532    149844.27   -47384.945    4088.0114   -51472.957   0.16116997 
   64800    301.01066   -472.96847    149192.09    -47401.95    4133.6565   -51535.606   0.15074439 
   65000    297.24332   -59.977006    148670.78   -47393.217    4081.9213   -51475.138   0.14738514 
   65200    299.12082   -587.24922    149405.57   -47417.663    4107.7041   -51525.367   0.14560253 
   65400     291.4043   -930.61205    149777.47   -47437.398    4001.7363   -51439.134   0.16176516 
   65600     293.6746    -336.2176    148993.55   -47469.746    4032.9134    -51502.66   0.15326576 
   65800    293.35822   -137.48131    148754.33   -47444.669    4028.5687   -51473.238   0.15363712 
   66000    293.14502   -749.39842    149507.48   -47438.629     4025.641    -51464.27   0.15760324 
   66200    294.85106   -776.62649     149591.7   -47462.955    4049.0693   -51512.024   0.15199696 
   66400    292.63753    -252.2373    148884.46    -47462.95    4018.6718   -51481.622   0.15133888 
   66600    291.79648   -291.86814    148939.85   -47475.779     4007.122   -51482.901   0.15333208 
   66800    293.53817   -755.42202    149574.44    -47453.12    4031.0398    -51484.16   0.15851007 
   67000    291.24378   -701.30087     149446.4   -47483.772    3999.5319   -51483.304   0.15430502 
   67200    294.42628   -235.90089    148878.83    -47507.86    4043.2359   -51551.096   0.14607255 
   67400    291.86478   -385.25948    149086.85    -47540.63      4008.06    -51548.69   0.14924633 
   67600    292.66964   -765.51401    149583.25   -47492.187    4019.1127   -51511.299    0.1543672 
   67800    294.39238   -599.53669    149341.26   -47441.152    4042.7704   -51483.922   0.15382298 
   68000     293.5319   -226.98453    148925.24   -47438.189    4030.9538   -51469.142   0.15394897 
   68200    294.07993   -472.13905     149197.3   -47511.967    4038.4797   -51550.446   0.15328157 
   68400    292.18603   -719.04741    149526.16   -47450.855    4012.4715   -51463.327   0.14970891 
   68600    293.49692   -489.62352     149230.3    -47438.16    4030.4734   -51468.633   0.14707692 
   68800    291.95074    -301.9793    149005.85   -47407.001    4009.2404   -51416.241   0.14948243 
   69000    294.22609   -532.98028    149352.03   -47451.306    4040.4869   -51491.793   0.15076516 
   69200    293.62326   -676.14084    149490.23   -47454.709    4032.2084   -51486.918   0.15472787 
   69400    289.31666   -408.11275    149110.75   -47497.474    3973.0676   -51470.542   0.14251449 
   69600    288.47172    -317.7021    149043.88   -47511.729    3961.4645   -51473.194     0.146958 
   69800    294.33227   -625.40007    149445.51   -47475.938    4041.9449   -51517.883   0.14909123 
   70000    292.58661   -619.19865    149465.61   -47434.899    4017.9726   -51452.872   0.15663074 
   70200    292.87189   -377.64808    149089.52   -47420.915    4021.8902   -51442.805   0.15575307 
   70400    296.04479   -381.22979    149119.11   -47436.879    4065.4622   -51502.341   0.15077756 
   70600    296.50058   -624.99256    149449.59   -47405.459    4071.7215    -51477.18   0.15224107 
   70800    294.50639   -552.82487     149362.1   -47430.558    4044.3361   -51474.894   0.14867176 
   71000    296.00723   -354.50648    149054.67   -47478.903    4064.9465    -51543.85   0.14840255 
   71200    290.26733   -483.52055    149163.12   -47486.238    3986.1228   -51472.361   0.15549529 
   71400    291.14027    -671.4193    149447.35   -47450.649    3998.1104   -51448.759    0.1566896 
   71600    294.94923   -496.96346    149282.34   -47429.684    4050.4174   -51480.101   0.15028824 
   71800    295.32969   -352.54693    149027.14   -47451.864    4055.6421   -51507.506   0.15138851 
   72000    293.22448   -474.13657    149208.72   -47475.948    4026.7321    -51502.68   0.14958676 
   72200    293.54248   -638.47528    149416.81    -47509.76    4031.0991   -51540.859   0.15007682 
   72400    289.14897     -487.678    149222.02   -47491.575    3970.7648    -51462.34   0.15181189 
   72600    294.37254   -357.69228    149067.12   -47460.102     4042.498     -51502.6   0.14821382 
   72800     292.8386   -527.18728     149332.2   -47535.877    4021.4329   -51557.309   0.14719808 
   73000    291.56121   -651.20513    149477.66   -47532.093    4003.8911   -51535.984   0.14213813 
   73200    291.58729   -425.87901    149158.58   -47548.679    4004.2492   -51552.928    0.1426142 
   73400    286.29969   -359.60147    149004.42   -47544.274    3931.6368   -51475.911   0.15031803 
   73600    288.98649   -538.90446    149352.16    -47524.38    3968.5336   -51492.914   0.14838679 
   73800    287.58438   -713.90857    149494.86   -47517.747     3949.279   -51467.026   0.15101544 
   74000    288.36205   -463.42077    149096.36    -47569.05    3959.9583   -51529.008   0.14864826 
   74200    291.66029   -283.18539     148942.3   -47565.757    4005.2518   -51571.009   0.14415054 
   74400    291.10171   -619.47841    149420.48   -47524.938     3997.581   -51522.519   0.14667935 
   74600    291.48295   -721.25227    149551.02   -47546.331    4002.8164   -51549.148   0.14881509 
   74800    298.12657   -288.40814       148985   -47560.661    4094.0506   -51654.711   0.14376638 
   75000    291.09718   -277.95409    148963.81   -47524.052    3997.5187   -51521.571   0.14360541 
   75200    293.61698   -757.90547    149611.83   -47504.829    4032.1222   -51536.951   0.14181444 
   75400    290.97667   -706.86654    149548.72   -47492.564    3995.8638   -51488.428   0.15046126 
   75600    295.91908   -185.91905    148845.72   -47476.419    4063.7359   -51540.155   0.14862444 
   75800    297.32667   -330.88847    149052.37   -47454.115    4083.0658   -51537.181   0.14775336 
   76000    296.69191   -841.32472    149786.68   -47432.171    4074.3489   -51506.519   0.15088283 
   76200     291.0224   -642.53327    149455.33   -47460.057    3996.4918   -51456.549   0.15434473 
   76400    296.31187   -85.923296    148710.54   -47432.933      4069.13   -51502.063   0.14922554 
   76600     293.6645    -412.8241    149136.23   -47418.007    4032.7747   -51450.781   0.14883381 
   76800    297.30942   -900.99931    149808.46   -47410.375    4082.8289   -51493.204   0.15743098 
   77000    297.07115   -537.26759     149285.7   -47417.449    4079.5569   -51497.006   0.15293968 
   77200    292.45987   -132.91226    148724.19   -47466.935     4016.232   -51483.167   0.15005612 
   77400    293.27011   -576.75083    149320.58    -47455.83    4027.3587   -51483.189   0.14800848 
   77600    299.41994   -830.11722    149761.72   -47466.725    4111.8119   -51578.537   0.14892006 
   77800    292.45156   -418.14624    149107.02   -47484.569    4016.1179   -51500.686   0.14869658 
   78000    291.89015   -134.85671    148807.09   -47486.902    4008.4083   -51495.311    0.1480527 
   78200    286.58873   -679.77338    149451.11   -47478.154    3935.6061    -51413.76   0.15952518 
   78400    294.98237   -770.93543    149627.92   -47497.073    4050.8725   -51547.946   0.14951726 
   78600    291.74103     -345.723    149065.41   -47520.195    4006.3606   -51526.555   0.14538226 
   78800    295.60278   -306.95319    148987.73   -47507.382    4059.3923   -51566.774   0.14557019 
   79000    292.92178   -646.60109    149479.59   -47485.988    4022.5753   -51508.563   0.14871485 
   79200    287.86622   -683.94222    149470.89   -47496.319    3953.1494   -51449.468   0.15360576 
   79400    298.11631   -326.67899    149063.34    -47452.79    4093.9096   -51546.699   0.14419572 
   79600    286.87363   -417.57443    149160.73   -47442.582    3939.5185   -51382.101    0.1485646 
   79800    291.62493   -690.33221    149505.25   -47466.731    4004.7661   -51471.497   0.14564109 
   80000     293.3868   -549.03626    149310.78   -47439.885    4028.9612   -51468.846    0.1494828 
   80200    293.97869   -335.98595    149022.36   -47406.626    4037.0894   -51443.715   0.15477335 
   80400    295.98501   -495.47501    149275.12   -47374.186    4064.6414   -51438.827   0.15215266 
   80600    300.40128    -635.9667    149516.12   -47393.613    4125.2882   -51518.902   0.14472605 
   80800    299.15591   -442.89212    149259.79   -47337.925     4108.186   -51446.111   0.14630669 
   81000    297.38552   -350.37152    149067.76   -47392.735     4083.874   -51476.609   0.15111162 
   81200    299.17326   -550.75119    149331.96   -47370.669    4108.4242   -51479.094   0.15313179 
   81400    296.59101   -657.27447    149464.81   -47345.556    4072.9633   -51418.519   0.15711589 
   81600    297.33672   -429.41897     149180.6   -47368.319    4083.2039   -51451.523   0.14675364 
   81800    296.28847   -324.08061    149096.14   -47374.277    4068.8087   -51443.086   0.14369283 
   82000    295.00866   -581.99188    149420.88   -47337.132    4051.2335   -51388.365   0.14750917 
   82200    299.24619   -630.26714    149468.46   -47381.931    4109.4259   -51491.357   0.15443314 
   82400    295.10164   -396.02611    149121.23   -47386.565    4052.5104   -51439.075   0.15286702 
   82600    296.26246   -368.93778    149114.86   -47432.056    4068.4515   -51500.508   0.14771873 
   82800    293.21476   -631.37208    149429.11   -47469.736    4026.5986   -51496.334    0.1494524 
   83000    298.73154   -561.87549    149382.42   -47453.937    4102.3584   -51556.295   0.14571709 
   83200    293.96497   -351.99233    149100.44    -47476.94     4036.901   -51513.841   0.14834508 
   83400    293.82848    -492.4907    149196.43     -47496.7    4035.0266   -51531.726   0.14983378 
   83600    294.20523   -615.43334    149458.84   -47511.759    4040.2004    -51551.96   0.14792458 
   83800    297.98561   -524.12945    149352.99   -47462.345    4092.1148    -51554.46   0.14115649 
   84000    293.36983   -406.45335    149139.34   -47494.403    4028.7282   -51523.131    0.1458427 
   84200    290.12337    -485.6172    149291.16   -47481.164    3984.1458    -51465.31   0.14835122 
   84400    294.72207   -633.75178    149470.01   -47483.824    4047.2979   -51531.122   0.14505973 
   84600    294.75085   -448.96232    149232.52   -47482.194    4047.6931   -51529.887   0.14329341 
   84800    295.04457   -364.91471    149091.94   -47492.412    4051.7267   -51544.139   0.14275631 
   85000    294.65818    -580.6983    149328.07   -47454.215    4046.4206   -51500.636   0.15013245 
   85200    292.25912   -664.31676    149412.94   -47421.531    4013.4752   -51435.006   0.15045726 
   85400    290.94906   -448.70382    149137.86   -47409.786    3995.4847   -51405.271   0.15278254 
   85600    293.94987   -351.00291    149090.33   -47407.323    4036.6935   -51444.017   0.15103983 
   85800    296.90043   -622.51828    149413.01   -47419.928    4077.2124   -51497.141   0.15100068 
   86000    304.50021   -582.35551    149439.77   -47372.188    4181.5771   -51553.765   0.14843845 
   86200    294.01405   -336.63209    149116.12   -47384.817    4037.5749   -51422.392   0.14743059 
   86400    294.48044   -430.37381    149189.42   -47378.919    4043.9798   -51422.899   0.15000188 
   86600    294.45031   -665.48107    149535.33   -47374.639     4043.566   -51418.205   0.15393729 
   86800    294.06657   -568.77741    149385.36   -47406.583    4038.2962   -51444.879   0.15358865 
   87000    289.72318   -320.70713    149025.98   -47430.442    3978.6501   -51409.092   0.15053691 
   87200     301.6864   -439.88424     149246.7   -47399.951    4142.9363   -51542.887   0.14540293 
   87400    295.30681   -713.61186    149590.79    -47359.38    4055.3279   -51414.708   0.14892423 
   87600    296.32362   -501.71464     149315.3   -47429.575    4069.2913   -51498.866   0.14577192 
   87800     295.5353   -248.36282    148988.61   -47438.991    4058.4657   -51497.456   0.14476183 
   88000    297.93528   -511.24731    149356.23   -47388.411    4091.4236   -51479.834    0.1493306 
   88200    295.29214   -823.79145    149694.07   -47397.346    4055.1265   -51452.473   0.15445932 
   88400    298.06253   -448.12715    149236.39   -47386.707    4093.1711   -51479.878   0.14318403 
   88600    297.10578   -226.96541    148946.63   -47403.431    4080.0324   -51483.464   0.14309903 
   88800    299.72771   -586.95915    149439.77   -47391.308    4116.0383   -51507.347   0.14499422 
   89000    292.17724   -766.86227    149641.69   -47408.864    4012.3508   -51421.215   0.15219212 
   89200    293.10021   -372.62969    149058.06   -47386.473    4025.0256   -51411.498   0.14820361 
   89400    295.19239   -250.58557    148908.75   -47360.072    4053.7567   -51413.829   0.14566599 
   89600    295.80312   -679.99995     149515.7    -47378.41    4062.1435   -51440.553   0.15163185 
   89800    295.51222   -756.74588    149580.33   -47413.195    4058.1488   -51471.343   0.15125926 
   90000    292.61404   -259.98014    148957.06   -47433.875    4018.3492   -51452.224    0.1459992 
   90200    296.49944   -281.00585    149007.55   -47480.124    4071.7058    -51551.83   0.14198898 
   90400    289.72645   -786.08307    149615.32   -47494.756    3978.6952   -51473.451   0.15101133 
   90600     289.2315   -652.74864    149465.15   -47486.946    3971.8981   -51458.844   0.14745259 
   90800    294.13558   -191.09508    148901.04   -47515.689    4039.2438   -51554.933    0.1383662 
   91000    290.21198   -392.37598    149083.16   -47516.153    3985.3627   -51501.516   0.14517479 
   91200    294.43213   -780.64525    149580.72   -47526.002    4043.3163   -51569.318   0.14612499 
   91400    295.63167   -587.42384    149323.29   -47518.352    4059.7891   -51578.141   0.14378858 
   91600    289.42993   -259.37068    148881.03   -47523.651    3974.6231   -51498.274    0.1456413 
   91800    292.44907   -479.79696    149212.26   -47499.355    4016.0838   -51515.439   0.14420096 
   92000     292.9889   -788.88264    149598.77   -47510.525     4023.497   -51534.022   0.14785188 
   92200     291.3744   -500.53301    149197.39   -47536.177    4001.3257   -51537.503   0.14215065 
   92400    290.79935   -193.36963    148845.26     -47517.3    3993.4288   -51510.729   0.14722486 
   92600    289.48346   -562.22494    149297.56   -47572.401    3975.3582    -51547.76   0.14656344 
   92800    294.56755   -744.28976    149556.66   -47537.811     4045.176   -51582.987   0.14407318 
   93000    298.66501    -389.1137    149104.69   -47468.557    4101.4447   -51570.001   0.14514666 
   93200    296.97914   -291.14825    148972.47   -47469.235    4078.2934   -51547.528   0.14319212 
   93400    291.24628   -633.82833    149416.62   -47468.298    3999.5663   -51467.865    0.1470852 
   93600    293.06689   -671.86084    149493.38   -47450.692     4024.568    -51475.26   0.14835155 
   93800    297.09753   -349.87356    149102.33   -47444.752    4079.9191   -51524.671   0.14762618 
   94000    294.10414   -385.56284    149107.15   -47446.024    4038.8122   -51484.837   0.14673371 
   94200    293.31477   -630.20848    149445.99    -47526.08    4027.9721   -51554.053   0.14288726 
   94400    292.43115   -582.14559    149370.47   -47511.157    4015.8377   -51526.994   0.14549758 
   94600    290.69369   -387.99944    149077.51   -47510.689    3991.9778   -51502.667   0.14870253 
   94800    286.57387    -460.7766    149218.22   -47562.673    3935.4021   -51498.075   0.14359673 
   95000    288.59163   -666.59343    149473.92   -47567.154     3963.111   -51530.265   0.14536122 
   95200    294.13101   -498.99027    149256.58    -47575.22    4039.1812   -51614.401    0.1429506 
   95400    293.70139   -329.71367    149043.66   -47588.266    4033.2813   -51621.547   0.13840446 
   95600    290.89122   -552.08468    149273.49   -47549.088    3994.6904   -51543.778   0.14617865 
   95800    291.36823   -650.66169    149445.49    -47510.65    4001.2409   -51511.891   0.14498521 
   96000    295.27574   -470.73925    149240.77   -47504.453    4054.9012   -51559.354   0.14375901 
   96200    291.40193   -428.78019     149130.1   -47548.281    4001.7038   -51549.985   0.14532321 
   96400    295.99966   -532.71474    149311.64   -47540.255    4064.8425   -51605.098   0.14195892 
   96600     292.0657    -579.3494    149388.53   -47551.933     4010.819   -51562.752   0.13962103 
   96800    284.84406    -441.3174    149210.89     -47605.7    3911.6472   -51517.347   0.14380225 
   97000    286.17848   -432.52069    149150.65   -47590.514    3929.9723   -51520.487   0.14449146 
   97200    293.83007   -585.07924     149326.9   -47577.753    4035.0485   -51612.801   0.14286816 
   97400    293.18616   -601.69261    149375.36   -47530.683    4026.2059   -51556.889    0.1453956 
   97600    297.53399   -405.99367    149203.91   -47504.293    4085.9128   -51590.206   0.14013016 
   97800    294.32548   -405.67024    149186.08   -47499.009    4041.8517   -51540.861   0.14497746 
   98000    293.74863   -548.23566     149381.3   -47468.505    4033.9301   -51502.435   0.14142913 
   98200    296.70107   -595.89396     149415.2   -47479.051    4074.4747   -51553.526   0.14183356 
   98400    295.34798   -469.37024    149196.64   -47409.192    4055.8933   -51465.086   0.15121449 
   98600    296.73692   -403.75392    149157.95   -47457.241     4074.967   -51532.208   0.14302497 
   98800     296.0177   -552.39088    149400.42   -47417.431    4065.0902   -51482.521   0.14878137 
   99000    303.81409   -587.07428    149475.63   -47420.911    4172.1548   -51593.066   0.14601843 
   99200    292.02467   -471.35287    149243.75   -47487.777    4010.2556   -51498.033   0.14569482 
   99400    284.97316   -435.18852    149165.54   -47581.208    3913.4201   -51494.628    0.1376862 
   99600    288.25854   -555.16091    149345.63   -47605.042    3958.5369   -51563.578   0.14096991 
   99800    288.31667   -623.08927    149391.24   -47576.346    3959.3352   -51535.681   0.14812538 
  100000    290.38284   -393.44103     149189.9   -47578.164     3987.709   -51565.873   0.14089542 
  100200    290.17387   -407.60279    149164.28   -47535.458    3984.8394   -51520.297   0.13723643 
  100400    292.20652   -546.92969    149389.48   -47530.899    4012.7529   -51543.652   0.14171582 
  100600    289.20011   -551.33221    149398.53   -47477.852    3971.4671   -51449.319   0.14812389 
  100800    294.63744   -408.55142    149157.26   -47509.087    4046.1357   -51555.223   0.14290494 
  101000    291.65503   -445.97699    149184.62   -47489.715    4005.1795   -51494.895   0.14861208 
  101200    295.58886   -686.20822    149439.67   -47468.389    4059.2013   -51527.591   0.14830398 
  101400    297.39965   -567.12275    149347.82   -47476.213     4084.068   -51560.281   0.14352863 
  101600    292.95223    -350.6449    149033.27   -47493.918    4022.9934   -51516.912   0.13948791 
  101800    296.41889   -445.74711    149212.34   -47459.677    4070.5997   -51530.276   0.14554778 
  102000     294.3691   -741.89455    149585.44   -47456.719    4042.4508    -51499.17   0.15248526 
  102200    294.83988   -517.75188    149321.36   -47450.801    4048.9157   -51499.717    0.1434639 
  102400     296.7996   -210.88752    148913.61   -47395.266    4075.8278   -51471.093   0.14215538 
  102600    297.11998   -527.00538    149295.77   -47406.766    4080.2274   -51486.993   0.14832099 
  102800    295.40283   -847.66678     149697.1   -47413.661    4056.6466   -51470.307   0.15587101 
  103000    296.71019    -419.4147    149172.89   -47411.886       4074.6   -51486.486   0.14860466 
  103200    297.64094    -189.1879    148850.88    -47394.52    4087.3815   -51481.901    0.1485679 
  103400    292.81115   -644.48139    149485.11    -47419.39     4021.056   -51440.446   0.14874931 
  103600    294.88037   -815.98204    149725.11   -47419.965    4049.4717   -51469.436   0.14641312 
  103800    295.01869    -292.7504    149059.48   -47430.239    4051.3712    -51481.61   0.13860574 
  104000    289.62909    -228.0605     148919.7   -47439.851    3977.3582   -51417.209   0.14498315 
  104200    291.53141   -760.52632    149577.36   -47449.272    4003.4819   -51452.754   0.15298527 
  104400    292.13904   -768.33945    149603.33   -47464.498    4011.8262   -51476.324   0.15287391 
  104600    297.06598   -248.23346    148958.96   -47465.536    4079.4859   -51545.022   0.14175583 
  104800    293.97789   -284.79999    149045.42   -47455.987    4037.0784   -51493.065   0.14054389 
  105000     293.3033   -765.97712    149674.29   -47480.576    4027.8146    -51508.39   0.14396004 
  105200    296.12566   -645.76131    149510.64   -47482.992    4066.5728   -51549.565   0.14216804 
  105400    290.20921   -235.22996    148951.88    -47477.67    3985.3246   -51462.995   0.14194789 
  105600    292.09182   -435.68847    149187.51   -47476.173    4011.1777    -51487.35   0.14478261 
  105800    294.88143   -756.87876    149648.93   -47488.745    4049.4863   -51538.231   0.14179641 
  106000    297.22711   -526.95886    149305.54    -47472.29    4081.6986   -51553.988   0.13930661 
  106200    292.94984   -184.16299    148885.79   -47450.416    4022.9606   -51473.377   0.14219873 
  106400    288.03099   -530.03149    149286.38    -47459.97    3955.4121   -51415.382   0.15583906 
  106600    293.18611   -779.85851     149624.5   -47458.558    4026.2052   -51484.764   0.15322681 
  106800     297.0782   -468.05512    149204.57   -47456.064    4079.6537   -51535.718   0.14671869 
  107000    293.25429   -222.03633    148963.48    -47413.18    4027.1415   -51440.322   0.14338648 
  107200    295.61365   -583.12371    149401.63   -47399.871    4059.5416   -51459.413   0.14894845 
  107400     294.7338   -711.90902    149556.01   -47405.571    4047.4591    -51453.03   0.15140612 
  107600    293.84765    -389.5609    149143.13   -47385.883    4035.2899   -51421.173   0.14721737 
  107800    296.76048   -313.94576    149058.81   -47408.937    4075.2905   -51484.228   0.14915391 
  108000    293.27613   -602.68421    149414.81   -47382.147    4027.4414   -51409.588   0.15002152 
  108200    295.72223   -658.59573    149435.69   -47416.679    4061.0327   -51477.712   0.14829348 
  108400    292.79257   -446.30042     149141.5    -47414.23    4020.8008   -51435.031   0.15270207 
  108600    297.08962   -370.70921    149152.03    -47385.16    4079.8105   -51464.971     0.147441 
  108800    295.40518    -568.7454    149375.19   -47405.566    4056.6787   -51462.245   0.14669587 
  109000    293.31236   -532.72031    149361.97   -47445.131    4027.9389    -51473.07   0.14244894 
  109200    292.14145   -413.64129     149188.1   -47447.522    4011.8593   -51459.382   0.14599584 
  109400    298.28956   -458.88604     149248.4   -47432.873    4096.2889   -51529.162    0.1440093 
  109600    297.81748    -581.7826    149438.03   -47392.966    4089.8059   -51482.772   0.14260703 
  109800    297.01371   -549.77642    149368.82    -47445.35    4078.7681   -51524.118   0.14804351 
  110000     296.6289   -441.93699    149211.99   -47385.315    4073.4836   -51458.799   0.15169354 
  110200    300.29663   -472.75242    149293.07    -47372.08    4123.8511   -51495.931   0.14669033 
  110400    291.81007   -640.12198    149422.64   -47422.002    4007.3086    -51429.31   0.15082197 
  110600    295.41759   -531.67528    149262.98   -47496.144    4056.8492   -51552.993   0.14807332 
  110800    294.82099   -375.80802    149098.76   -47493.642    4048.6564   -51542.298   0.14566277 
  111000    296.84251   -462.24196    149274.44   -47494.036     4076.417   -51570.453   0.14191184 
  111200    291.84222   -645.58111    149428.77   -47481.042    4007.7502   -51488.793   0.14994459 
  111400    289.85955   -469.19132    149208.94   -47536.391    3980.5229   -51516.914   0.14976048 
  111600    288.37518   -383.92591    149060.95   -47590.882    3960.1387    -51551.02    0.1453872 
  111800    289.07343   -558.87354    149270.85   -47622.189    3969.7274   -51591.917   0.14700458 
  112000    289.63814   -646.88297    149381.44   -47612.663    3977.4824   -51590.146   0.14949835 
  112200    290.92635   -436.29706     149137.2   -47572.296    3995.1729   -51567.469   0.14899521 
  112400    291.55169   -425.54116    149086.12   -47540.185    4003.7603   -51543.945   0.14416518 
  112600    297.26405   -560.23861    149307.64   -47513.496    4082.2059   -51595.702   0.14454027 
  112800    291.30906   -645.24234     149316.9   -47528.897    4000.4284   -51529.326   0.14990207 
  113000    288.20922   -403.21511    149071.18   -47507.909    3957.8596   -51465.768   0.15179637 
  113200    290.74069   -455.55238    149119.63   -47543.519    3992.6232   -51536.143   0.14642814 
  113400     293.8608   -549.45609    149333.77   -47521.917    4035.4704   -51557.388   0.14269635 
  113600    294.26742   -523.75388    149287.37   -47526.545    4041.0543   -51567.599   0.15182087 
  113800     289.9381   -426.22046    149096.82   -47510.335    3981.6016   -51491.937   0.15314806 
  114000    294.27838   -462.66023    149196.14   -47495.147    4041.2048   -51536.352   0.14668978 
  114200    292.97231   -591.91921    149405.52   -47506.501    4023.2691    -51529.77   0.14301242 
  114400    299.52603   -532.90606     149318.9   -47448.745    4113.2687   -51562.014    0.1454625 
  114600    294.98823   -388.37478    149122.29   -47423.198    4050.9529   -51474.151   0.14960046 
  114800     294.3636   -493.80059    149280.62   -47407.941    4042.3751   -51450.316   0.14680873 
  115000    291.01299    -632.2478    149497.47   -47434.701    3996.3626   -51431.063   0.15207361 
  115200    294.59548   -495.84493    149304.83   -47451.777    4045.5595   -51497.336   0.15253752 
  115400    296.26849   -380.25951    149077.48   -47467.781    4068.5343   -51536.315    0.1495573 
  115600    296.23935   -492.57731    149270.93   -47448.752    4068.1341   -51516.886   0.14721115 
  115800    291.67591   -670.86313    149452.84   -47462.083    4005.4662   -51467.549   0.15675074 
  116000    293.73165   -459.77986    149199.69   -47448.907    4033.6969   -51482.604   0.15313056 
  116200    293.44787   -322.63168    149048.86    -47467.72    4029.7999    -51497.52   0.14325312 
  116400    294.96872   -584.59406    149301.77   -47507.726    4050.6851   -51558.412   0.14420365 
  116600    289.38968   -594.41322    149349.58    -47517.81    3974.0704    -51491.88   0.14952207 
  116800    296.91078    -396.5961    149085.12   -47476.603    4077.3545   -51553.958   0.14682313 
  117000    291.95538   -404.82742    149118.26   -47483.169    4009.3041   -51492.473   0.14654852 
  117200    290.58427   -655.38449    149442.06   -47469.927    3990.4751   -51460.402   0.15348117 
  117400    287.63499   -605.10607    149360.27    -47496.48    3949.9739   -51446.454   0.15432398 
  117600    290.75805   -325.30985    148996.18   -47479.752    3992.8616   -51472.614   0.14737956 
  117800    295.36689   -395.85715    149141.08   -47439.416    4056.1529   -51495.569   0.14879745 
  118000    294.53693    -647.7818    149539.38   -47427.127    4044.7555   -51471.882   0.15682956 
  118200    297.87387   -587.02494    149356.87   -47463.312    4090.5803   -51553.892   0.14650864 
  118400    293.03303   -246.75628    148937.89   -47516.274     4024.103   -51540.377   0.14037504 
  118600     288.2818   -433.13513     149175.7   -47542.715    3958.8564   -51501.571   0.14659502 
  118800    286.63346   -764.80488    149544.45   -47589.808    3936.2203   -51526.029   0.15244316 
  119000     291.5976   -463.77036    149182.28   -47590.896    4004.3909   -51595.287    0.1443477 
  119200    288.96588   -242.63233    148844.56   -47594.409    3968.2505    -51562.66   0.14535838 
  119400    289.48125    -575.6151    149282.81   -47618.967    3975.3278   -51594.295   0.15183326 
  119600    287.71386   -760.17897    149543.86    -47553.97     3951.057   -51505.027   0.15678334 
  119800    294.71095   -394.03274    149082.11   -47554.799    4047.1452   -51601.945   0.14167345 
  120000    292.73279   -266.53868    148896.97   -47574.233      4019.98   -51594.213   0.14362771 
  120200    293.62801   -642.24676    149378.84    -47543.87    4032.2736   -51576.144   0.14630182 
  120400    286.61556   -720.77157    149465.85    -47588.07    3935.9745   -51524.045   0.14921929 
  120600     289.3811   -296.88108    148920.38   -47584.994    3973.9526   -51558.947   0.14569758 
  120800     292.6854   -310.83391    148946.78   -47577.007    4019.3292   -51596.336   0.14061363 
  121000    287.18315   -745.50265    149520.71   -47556.135    3943.7689   -51499.904   0.14888691 
  121200    286.79666   -651.26538    149449.08   -47554.781    3938.4615   -51493.242   0.15063508 
  121400      291.523   -222.34224    148925.43   -47557.787    4003.3663   -51561.154   0.14101659 
  121600    289.58387   -396.75585     149087.4   -47549.033    3976.7371    -51525.77   0.14789424 
  121800     288.9834   -761.35751    149596.72    -47542.99    3968.4911   -51511.481   0.14941841 
  122000    287.96122   -620.82367    149366.33    -47521.98    3954.4539   -51476.434    0.1464485 
  122200     291.4923   -208.96585    148882.35   -47493.334    4002.9448   -51496.278   0.14535004 
  122400    294.77884   -466.68487    149198.63   -47447.154    4048.0775   -51495.231   0.15242135 
  122600    293.99671   -804.37797    149638.28   -47362.337    4037.3369   -51399.674   0.16354535 
  122800     299.0744   -454.77162    149260.62   -47365.752    4107.0666   -51472.819   0.14446143 
  123000    296.06144   -225.34493     148887.7   -47415.566    4065.6909   -51481.257    0.1485217 
  123200    295.65973   -558.88973     149306.3   -47437.521    4060.1745   -51497.695   0.15978335 
  123400    287.40238   -741.61577    149586.88   -47518.123    3946.7796   -51464.903   0.15452835 
  123600    294.36681   -378.88142    149124.02   -47469.469    4042.4192   -51511.888   0.14625087 
  123800    290.10562   -297.61278     148923.1   -47493.061     3983.902   -51476.963   0.15341173 
  124000    297.11848   -593.07561     149388.2   -47473.556    4080.2069   -51553.763   0.15408785 
  124200    291.06559   -786.96747    149556.09    -47454.33    3997.0849   -51451.415   0.15387198 
  124400    294.61893   -361.52725    149083.06   -47471.112    4045.8816   -51516.993    0.1455279 
  124600    292.53793   -345.03509    149005.24   -47491.648     4017.304   -51508.952    0.1497133 
  124800    290.46478   -653.57542    149481.16   -47491.986    3988.8343    -51480.82   0.14913039 
  125000    288.71867   -683.59489    149441.18   -47500.406    3964.8557   -51465.262   0.15068265 
  125200    292.63842    -298.2906    148959.47    -47494.68     4018.684   -51513.364   0.15374133 
  125400    292.59254   -391.72452    149037.94   -47563.344     4018.054   -51581.398   0.15184801 
  125600    290.15035   -696.04541    149443.47   -47553.524    3984.5164   -51538.041   0.14727899 
  125800       292.88   -563.73959    149312.74   -47544.894    4022.0015   -51566.896   0.14565024 
  126000     290.3415   -290.41004    148968.92   -47514.427    3987.1414   -51501.568    0.1493979 
  126200    292.41687   -428.87709    149148.63   -47493.767    4015.6415   -51509.409   0.15153824 
  126400     288.7366   -647.82193    149439.97   -47519.625    3965.1019   -51484.727   0.14935294 
  126600    289.76999   -502.28153     149254.9   -47547.329     3979.293   -51526.622   0.14636529 
  126800    287.27945   -369.43945    149031.37   -47520.526    3945.0914   -51465.617   0.14975885 
  127000    291.22444   -503.48419    149226.36   -47537.165    3999.2664   -51536.431   0.14647653 
  127200    288.93412   -631.23434    149378.46   -47569.388    3967.8144   -51537.202   0.14902542 
  127400    293.62146   -478.95649     149193.1   -47570.283    4032.1836   -51602.467   0.15073172 
  127600    287.92821   -416.83812    149088.31   -47564.769    3954.0005    -51518.77   0.15260009 
  127800    291.48467   -550.50316    149255.84   -47553.904      4002.84   -51556.744   0.14859337 
  128000     289.4831   -570.05681    149334.78   -47549.188    3975.3533   -51524.541   0.14961324 
  128200    292.89067   -506.36001    149203.29    -47516.16     4022.148   -51538.308   0.15185848 
  128400    289.50271   -476.19688    149154.01   -47543.931    3975.6226   -51519.553   0.15057712 
  128600    286.89885   -508.04983     149244.4   -47573.904    3939.8648   -51513.769   0.14473582 
  128800    294.36718   -491.84419    149252.61   -47610.412    4042.4244   -51652.836   0.13914525 
  129000    285.99971   -497.19009    149155.79   -47644.753    3927.5173    -51572.27    0.1467846 
  129200    290.60174   -432.09192    149152.81   -47602.108    3990.7152   -51592.823   0.14505526 
  129400    291.13509   -551.17942    149262.38   -47600.809    3998.0394   -51598.849   0.14523246 
  129600    289.03279   -528.35264     149253.4   -47600.582    3969.1693   -51569.751   0.14655855 
  129800    290.34202   -483.20641    149175.18   -47614.212    3987.1485    -51601.36   0.14560555 
  130000    286.81189   -479.13264    149213.35   -47622.971    3938.6707   -51561.641   0.14355079 
  130200    290.79235   -564.65543    149284.65   -47642.165    3993.3327   -51635.498   0.14336016 
  130400    287.98947   -524.50055    149223.37   -47625.504    3954.8419   -51580.346   0.14511853 
  130600    284.93081   -440.71511    149161.71   -47582.015    3912.8385   -51494.854   0.14424559 
  130800    289.65734   -537.93597    149245.64   -47603.481    3977.7461   -51581.227   0.14160639 
  131000    295.39016   -567.22158    149270.51   -47623.103    4056.4725   -51679.575   0.14170197 
  131200    284.41328   -471.75126     149170.8   -47595.475    3905.7315   -51501.207   0.14814673 
  131400    292.59074   -468.38809     149172.2    -47597.64    4018.0292   -51615.669   0.14350915 
  131600    288.70648   -553.15839    149273.16   -47589.945    3964.6883   -51554.633   0.14289473 
  131800    286.66262   -502.70909    149280.65    -47561.51    3936.6208    -51498.13   0.14723355 
  132000    295.67276   -449.47418    149206.72   -47507.385    4060.3533   -51567.739    0.1496271 
  132200    289.31709   -523.03739    149273.59   -47514.185    3973.0735   -51487.259   0.14932108 
  132400    291.94943   -558.69956    149369.17   -47517.276    4009.2223   -51526.498   0.14417231 
  132600    291.29256   -452.87053    149292.78   -47494.275    4000.2018   -51494.476   0.14289318 
  132800    295.54884   -454.03759    149246.48    -47465.91    4058.6516   -51524.561    0.1450477 
  133000    294.37456   -540.14372    149360.74   -47459.465    4042.5256   -51501.991   0.14286952 
  133200    295.94108    -541.4228     149358.3   -47407.338    4064.0381   -51471.376   0.14818408 
  133400    297.29041   -388.87733    149186.18   -47393.355    4082.5679   -51475.923   0.14589274 
  133600    300.53905    -440.9088    149194.91   -47406.551    4127.1801   -51533.731   0.14100661 
  133800     295.9831   -593.54231    149377.19   -47424.732    4064.6152   -51489.348   0.14596467 
  134000    294.84649   -536.77464    149341.02   -47373.704    4049.0066    -51422.71   0.15287026 
  134200    294.13366   -406.48148    149148.04   -47389.662    4039.2175   -51428.879   0.15112332 
  134400    290.11261   -450.43304    149213.49    -47387.31    3983.9981   -51371.308   0.14423503 
  134600    298.58574   -652.03435     149458.3    -47403.22    4100.3561   -51503.576   0.14249704 
  134800    297.67549   -573.60527    149344.88   -47447.303     4087.856   -51535.159   0.14710699 
  135000    293.79684   -381.90144    149077.66   -47504.825    4034.5922   -51539.417   0.14323701 
  135200    290.58714   -430.98166    149233.08   -47513.337    3990.5146   -51503.851    0.1413712 
  135400    287.57549    -714.4188    149532.81   -47532.456    3949.1568   -51481.613   0.14886844 
  135600    292.25479   -490.87826    149280.46   -47498.193    4013.4158   -51511.608   0.14692465 
  135800    286.86957   -334.45067    148976.89    -47572.48    3939.4627   -51511.943   0.14600679 
  136000    290.60604   -461.50743    149239.18   -47602.441    3990.7742   -51593.215   0.13854707 
  136200    286.10337    -738.0346    149520.82   -47610.597    3928.9408   -51539.538   0.14815553 
  136400    287.61379   -517.52058    149227.49   -47566.461    3949.6828   -51516.144   0.15289042 
  136600    291.36923   -314.43651    149004.07   -47511.296    4001.2547    -51512.55   0.14568139 
  136800     295.3023   -585.33006    149401.18   -47519.946     4055.266   -51575.212   0.14099542 
  137000    291.35367   -737.42623    149590.01   -47521.962     4001.041   -51523.003   0.14350625 
  137200    291.77068   -362.23723    149099.34   -47558.326    4006.7677   -51565.094   0.14236349 
  137400    292.12018   -261.25663    148942.22   -47516.789    4011.5673   -51528.356   0.14130201 
  137600    293.93421   -684.47989    149495.29   -47505.445    4036.4786   -51541.923   0.14852915 
  137800    297.63283   -672.67647    149559.43   -47477.658    4087.2702   -51564.929   0.14989593 
  138000    293.96824    -308.3816    148986.74    -47478.62    4036.9459   -51515.566    0.1468937 
  138200    289.29469   -306.12405    148977.82   -47529.764     3972.766    -51502.53   0.14260083 
  138400    296.69178   -760.80013    149544.38   -47511.294    4074.3471   -51585.641    0.1507275 
  138600    290.28966   -667.45814    149452.45   -47523.731    3986.4294    -51510.16   0.15262768 
  138800    298.45855   -209.88959    148911.94   -47478.175    4098.6094   -51576.785   0.14153569 
  139000    294.89704   -407.99388    149132.45   -47465.011    4049.7006   -51514.712   0.13922556 
  139200     297.0219   -786.72147     149635.3   -47460.992    4078.8805   -51539.872   0.14416254 
  139400    292.30801    -563.1672    149296.03   -47490.783    4014.1466    -51504.93   0.15007689 
  139600    292.95216   -151.88757    148858.85   -47474.536    4022.9924   -51497.528   0.14449412 
  139800    294.17673   -478.81293    149320.77   -47432.918     4039.809   -51472.727   0.14690532 
  140000    295.82455    -826.4855    149734.63     -47395.4    4062.4378   -51457.837   0.15487019 
  140200    296.71173   -417.40057    149235.55   -47440.637     4074.621   -51515.258   0.14536481 
  140400    295.48091   -207.01141    148911.33   -47469.149    4057.7187   -51526.868   0.14255822 
  140600     294.7717   -614.57776    149431.52   -47467.043    4047.9794   -51515.022   0.15133689 
  140800    292.83556   -795.86617    149658.06   -47456.877    4021.3913   -51478.268   0.15489868 
  141000    292.65091   -405.72286    149117.29    -47499.55    4018.8555   -51518.405   0.14337722 
  141200    296.69885   -263.97305    148977.32   -47451.831    4074.4442   -51526.275   0.13806021 
  141400    297.46161   -614.17961    149478.96   -47454.391    4084.9189    -51539.31   0.14578536 
  141600    294.82358    -684.2617    149513.12   -47435.959     4048.692   -51484.651   0.15032908 
  141800    292.61386   -318.42419    149039.77   -47492.823    4018.3467    -51511.17   0.14524747 
  142000    292.08254   -353.14013    149079.27   -47508.623    4011.0503   -51519.674   0.14539744 
  142200    292.46096   -700.99936    149479.48   -47503.373    4016.2471    -51519.62   0.15002929 
  142400    293.32211   -598.39216    149372.05   -47506.647    4028.0728    -51534.72   0.14719922 
  142600    294.75462   -283.91484    148999.05   -47499.295    4047.7449    -51547.04    0.1400413 
  142800    292.25011   -449.88982    149145.31   -47504.189    4013.3514   -51517.541   0.14910109 
  143000    291.37489   -676.33706    149456.68   -47564.296    4001.3324   -51565.629   0.14834523 
  143200    288.68706   -536.12829     149266.5   -47531.383    3964.4216   -51495.804   0.14285599 
  143400    292.97045   -297.88533    149035.43   -47496.709    4023.2436   -51519.953    0.1425914 
  143600    292.61476   -545.88353    149262.51    -47484.21    4018.3591   -51502.569   0.15293738 
  143800    294.07824   -607.92176    149424.73   -47494.686    4038.4564   -51533.143   0.14568468 
  144000    291.64275   -472.66017     149229.3   -47482.364    4005.0109   -51487.375   0.14814777 
  144200    294.50134   -364.39395    149119.27   -47455.543    4044.2668   -51499.809   0.14970284 
  144400    289.02927   -590.05268    149358.25   -47455.121     3969.121   -51424.242   0.15760372 
  144600    295.60391   -591.83055    149415.13   -47427.889    4059.4079   -51487.297   0.14774369 
  144800    297.15691   -425.66001    149206.34   -47399.354    4080.7346   -51480.088   0.14274784 
  145000    294.38174   -412.35279    149203.91   -47445.231    4042.6243   -51487.855    0.1452606 
  145200    290.27306   -600.72151    149373.94   -47474.961    3986.2015   -51461.162   0.15118038 
  145400    293.94971   -536.82541    149345.12   -47480.052    4036.6914   -51516.744   0.14389404 
  145600     293.5825   -429.60095    149201.98   -47500.105    4031.6486   -51531.753   0.13937698 
  145800    295.56357   -503.31653    149231.02   -47516.815    4058.8538   -51575.669   0.14374885 
  146000     290.8604   -557.93609    149311.85   -47503.292    3994.2671   -51497.559   0.15054176 
  146200    293.73683   -483.35878     149251.3   -47535.328    4033.7681   -51569.096   0.14639067 
  146400    293.53844   -457.64713    149174.18   -47488.045    4031.0436   -51519.089   0.14403711 
  146600    291.45158   -533.82135    149267.81   -47450.457    4002.3856   -51452.842    0.1466059 
  146800    297.26548   -531.61774    149354.59   -47406.667    4082.2256   -51488.893   0.14466867 
  147000    297.61648   -459.47233    149293.68   -47421.403    4087.0456   -51508.448   0.13964257 
  147200    292.36327   -449.87341    149243.27   -47388.992    4014.9055   -51403.897    0.1507199 
  147400    293.13934   -530.09635    149290.84   -47454.116     4025.563   -51479.678   0.15058742 
  147600    294.61312   -503.28498    149295.68   -47466.381    4045.8017   -51512.183   0.14285087 
  147800     295.5723   -492.06467    149264.16    -47508.23    4058.9738   -51567.204    0.1424333 
  148000    292.47631   -501.14667    149239.52   -47472.468    4016.4578   -51488.926   0.15439444 
  148200    290.90096   -529.46032    149269.78   -47513.446    3994.8241    -51508.27   0.15363777 
  148400    290.27154   -514.42621    149243.74   -47562.411    3986.1806   -51548.591   0.14738664 
  148600    292.36766   -441.51948    149157.34   -47531.913    4014.9657   -51546.879   0.14843354 
  148800    292.07048   -478.24578    149218.33   -47534.973    4010.8847   -51545.858   0.14982271 
  149000    291.20578    -625.4392    149357.82   -47539.955    3999.0101   -51538.965   0.15222623 
  149200    291.89408   -476.80794    149221.44   -47545.593    4008.4623   -51554.055   0.14622755 
  149400    287.87431   -349.77168    149028.02   -47568.774    3953.2604   -51522.034   0.14642104 
  149600    287.71624    -542.0702    149253.59   -47567.655    3951.0898   -51518.745   0.14964763 
  149800    288.57406   -654.36509    149431.88    -47551.55    3962.8698    -51514.42   0.14474386 
  150000    291.59749   -415.16229    149122.53   -47513.312    4004.3893   -51517.701   0.14515671 
  150200    290.15306   -348.54879    149009.02   -47459.293    3984.5536   -51443.846   0.15100375 
  150400     297.2568   -610.21897    149402.74   -47428.049    4082.1063   -51510.155    0.1508292 
  150600    289.95352   -675.24697    149492.08   -47478.378    3981.8134   -51460.191   0.14827051 
  150800    299.03858   -321.47827    149057.53   -47445.368    4106.5748   -51551.943   0.14221496 
  151000    291.91874   -334.94691    149027.23    -47485.82    4008.8009   -51494.621   0.14989562 
  151200    293.35745   -684.16931     149489.5   -47469.611    4028.5582   -51498.169   0.14932404 
  151400    294.91993   -663.06331    149482.87   -47382.417     4050.015   -51432.432   0.14799553 
  151600     296.5607   -290.13728    149042.77   -47370.906     4072.547   -51443.453   0.14375487 
  151800    295.24881   -434.42445    149143.58   -47384.996    4054.5314   -51439.528   0.15224268 
  152000    295.77147   -698.61185    149576.78   -47383.134    4061.7089   -51444.843   0.15401064 
  152200    292.52017    -594.1263    149388.14   -47404.791    4017.0601   -51421.851   0.15202683 
  152400     293.4727   -250.33219    148978.09   -47457.012    4030.1409   -51487.153   0.14633347 
  152600    297.23979   -500.81518    149249.86   -47425.815    4081.8728   -51507.687     0.151273 
  152800    295.30158   -711.06299    149627.25   -47352.605    4055.2561   -51407.861    0.1526003 
  153000    295.41546   -513.46025    149299.52   -47425.465    4056.8199   -51482.285   0.15520892 
  153200    293.86281   -228.14225    148957.61    -47366.91     4035.498   -51402.408   0.15409399 
  153400    294.05664   -577.85623     149357.9     -47419.8    4038.1599    -51457.96   0.14775245 
  153600    295.57832   -742.80576    149639.41   -47444.106    4059.0564   -51503.162   0.14211599 
  153800    293.32092   -392.66619    149131.28   -47477.591    4028.0564   -51505.647    0.1506098 
  154000    289.39112   -282.19647    148924.21   -47494.379    3974.0901   -51468.469   0.15476213 
  154200    295.26437   -678.12437    149519.04   -47437.908    4054.7451   -51492.653   0.14853806 
  154400    290.86179   -756.36825    149691.97   -47428.369    3994.2863   -51422.655   0.14721357 
  154600      295.806   -329.63803     149069.1   -47456.763    4062.1831   -51518.946   0.14704887 
  154800    294.45111   -240.51881    148954.82   -47473.736    4043.5769   -51517.313   0.15017295 
  155000    293.04073    -710.8401    149594.22    -47458.37    4024.2087   -51482.579   0.15061349 
[...]
  163200    293.34793   -447.33271     149191.9   -47532.174    4028.4274   -51560.602   0.14548373 
  163400    287.58807   -574.18314    149321.01   -47564.569    3949.3296   -51513.899    0.1525903 
  163600    293.15652   -530.57689    149232.71    -47513.95    4025.7989   -51539.749   0.15243826 
  163800    287.10828   -448.95979    149074.22   -47574.575    3942.7408   -51517.316   0.14783451 
  164000    291.65778    -474.7852    149157.55   -47590.751    4005.2172   -51595.969   0.14409115 
  164200    292.13006   -605.48636    149368.63   -47585.214     4011.703   -51596.917   0.14802379 
  164400    290.28611   -539.91391    149264.29   -47527.533    3986.3807   -51513.914   0.15163562 
  164600    296.80832   -350.13147    149025.72   -47508.827    4075.9475   -51584.775   0.14476272 
  164800    289.49581   -496.71546    149216.02   -47545.795    3975.5278   -51521.322   0.15094758 
  165000    288.12144   -723.33622    149476.43   -47517.837    3956.6542   -51474.491   0.15615317 
  165200    293.32408   -463.09657    149126.57    -47516.71    4028.0999    -51544.81   0.15261689 
  165400    287.53032   -273.25085    148845.51    -47547.32    3948.5365   -51495.856   0.15486112 
  165600    292.46604   -580.20854    149351.44   -47483.084    4016.3167   -51499.401   0.15404187 
  165800     293.0106   -819.79533    149646.38   -47503.951    4023.7949   -51527.746   0.15215248 
  166000    291.13959   -332.92145    149029.15   -47467.103    3998.1012   -51465.204   0.14762052 
  166200    294.30563   -177.02287    148845.95   -47499.847    4041.5792   -51541.426   0.14707224 
  166400    295.55009   -729.85743    149535.48   -47491.385    4058.6688   -51550.054   0.14904167 
  166600    295.24212   -735.56768    149601.41   -47483.796    4054.4396   -51538.236   0.14616678 
  166800    291.61178    -252.5019    148886.13    -47550.03    4004.5855   -51554.616   0.14626255 
  167000    292.17822   -287.68355     148910.8   -47551.488    4012.3643   -51563.852   0.15057316 
  167200    293.37522   -809.77217     149622.7   -47494.404    4028.8022   -51523.206   0.15523859 
  167400     289.9622   -692.35048     149479.7   -47540.824    3981.9326   -51522.756   0.14863437 
  167600    288.78432   -159.04412    148783.85   -47526.557    3965.7572   -51492.314   0.14632533 
  167800    290.13291   -358.33247    149025.14   -47596.124    3984.2768   -51580.401   0.14359641 
  168000    286.22981   -840.89487    149619.97   -47577.632    3930.6772   -51508.309   0.15404435 
  168200    292.18694   -570.00347    149286.34   -47577.283    4012.4841   -51589.767   0.14978157 
  168400    294.00905   -192.43566    148816.98   -47536.072    4037.5063   -51573.578   0.14396031 
  168600    293.15573   -549.11295    149234.64    -47545.98    4025.7881   -51571.768   0.14851902 
  168800    286.93962   -764.74285    149625.88   -47582.847    3940.4248   -51523.272   0.14802013 
  169000    287.43147   -443.24452    149173.95   -47572.034    3947.1791   -51519.213   0.14910125 
  169200    289.57265   -204.25166       148876    -47543.39     3976.583   -51519.973    0.1469889 
  169400    290.85324   -590.31256    149324.86   -47568.445    3994.1689   -51562.614   0.14715092 
  169600     288.9296    -711.9062    149500.61    -47575.76    3967.7523   -51543.512   0.14870748 
  169800    287.76099   -402.53338     149046.7   -47584.141    3951.7042   -51535.845   0.14889666 
  170000    288.87901   -327.45308    148927.86   -47624.851    3967.0576   -51591.908   0.14828053 
  170200    289.90804   -663.08941     149310.9    -47632.24    3981.1888   -51613.429   0.15288484 
  170400    287.92354   -612.47715    149349.81   -47600.437    3953.9365   -51554.374   0.14222378 
  170600    292.06036   -358.94938    149034.06    -47583.69    4010.7458   -51594.435   0.14445877 
  170800    287.86392   -415.13001    149086.65   -47607.967    3953.1178   -51561.085   0.14846244 
  171000    288.05379   -622.99418    149354.23   -47605.467    3955.7251   -51561.192   0.15263399 
  171200    285.13448   -575.21673    149271.44   -47632.529    3915.6354   -51548.164   0.14678847 
  171400    288.54464   -368.70614    149039.15   -47629.375    3962.4657    -51591.84   0.14901212 
  171600    290.97187   -429.56226    149138.56    -47593.85     3995.798   -51589.648   0.14905786 
  171800    289.87916   -636.00755    149357.09   -47569.533    3980.7922   -51550.325   0.15040409 
  172000    293.61123   -487.59163    149248.48   -47576.101    4032.0432   -51608.144    0.1423388 
  172200    292.84706   -337.13762    149054.12    -47583.56    4021.5491   -51605.109    0.1430373 
  172400    285.06162   -481.15697    149190.43   -47550.631    3914.6349   -51465.266    0.1504731 
  172600    291.74414   -613.90373    149376.62    -47533.92    4006.4032   -51540.323   0.14709702 
  172800    287.51082    -525.3375    149222.52   -47542.421    3948.2688   -51490.689   0.15081301 
  173000    289.47308   -372.25289    149044.33   -47562.678    3975.2157   -51537.894   0.15259296 
  173200    288.29235   -506.14065    149184.82   -47600.015    3959.0013   -51559.016   0.15034487 
  173400    285.44394   -597.61858    149343.62   -47584.367    3919.8851   -51504.252   0.14804678 
  173600    295.95519   -452.40219    149194.72   -47536.538    4064.2318    -51600.77   0.14791562 
  173800     290.3943   -416.98345    149101.78   -47537.624    3987.8663   -51525.491   0.15157597 
  174000    287.75641   -572.50216    149296.36   -47499.174    3951.6413   -51450.816   0.15032343 
  174200    292.21948   -543.80402    149351.34   -47493.338    4012.9308   -51506.269   0.14636358 
  174400    296.24666   -455.16523    149179.15   -47476.982    4068.2345   -51545.217   0.15069185 
  174600    296.23097   -456.10922    149139.21    -47490.08     4068.019   -51558.099   0.15408446 
  174800    293.37089   -600.27498     149293.5   -47451.387    4028.7427    -51480.13   0.15747383 
  175000    288.23269   -565.75325    149295.08   -47498.506    3958.1819   -51456.687    0.1594023 
  175200    291.00144   -394.42573    149133.85   -47495.895     3996.204   -51492.099   0.15534653 
  175400    291.45399   -401.94028     149155.3   -47506.149    4002.4188   -51508.568   0.14933126 
  175600    292.08424   -591.91477    149364.21   -47515.935    4011.0737   -51527.009   0.15230983 
  175800    291.25707   -554.20819       149312   -47499.418    3999.7145   -51499.132   0.15051127 
  176000    291.98401   -359.33121    149046.04   -47488.853    4009.6973    -51498.55   0.15079838 
  176200    297.32774   -421.05422    149139.05   -47437.328    4083.0805   -51520.408   0.14664769 
  176400    292.30773   -687.34712    149448.11   -47474.057    4014.1427   -51488.199   0.15137085 
  176600    297.61146   -521.36372    149249.65   -47455.245    4086.9768   -51542.222   0.15155148 
  176800    294.12808   -282.14538    148919.96   -47464.742    4039.1409   -51503.883   0.15145522 
  177000    292.69659   -499.08122    149268.21   -47478.194    4019.4829   -51497.677   0.14900575 
  177200    288.71171   -793.67793    149634.42   -47487.428    3964.7601   -51452.188   0.15163453 
  177400    285.96634   -442.07039    149178.65   -47581.359     3927.059   -51508.418   0.14946171 
  177600    290.70877   -192.41138    148809.81   -47548.437    3992.1849   -51540.622   0.14967675 
  177800    287.95475   -597.53314    149341.09   -47524.573     3954.365   -51478.938   0.15386252 
  178000    293.80842   -787.21218    149684.33    -47478.18    4034.7511   -51512.931   0.15196288 
  178200    294.54456   -392.89508    149079.55   -47518.747    4044.8602   -51563.607   0.15097238 
  178400    294.52194   -196.67518    148802.46   -47495.718    4044.5497   -51540.268   0.14947371 
  178600    294.15846   -691.51197    149472.82   -47508.559     4039.558   -51548.117   0.15205231 
  178800    292.78139   -792.61428    149638.91   -47474.026    4020.6473   -51494.673   0.15617087 
  179000     295.7889   -240.28354    148928.04   -47454.367    4061.9483   -51516.316    0.1512916 
  179200    293.87394   -273.87808    148913.62   -47480.353    4035.6509   -51516.003   0.15291877 
  179400    292.02065   -748.40414    149591.84   -47447.912    4010.2004   -51458.112   0.15215397 
  179600    298.16817   -658.76455    149469.44   -47455.553    4094.6218   -51550.174   0.15332095 
  179800    297.48483   -229.55487    148858.82   -47489.166    4085.2377   -51574.404   0.14750459 
  180000     293.0907   -384.77896    149060.31   -47455.863     4024.895   -51480.758    0.1507713 
  180200    292.61768   -752.81608    149618.68   -47411.277    4018.3991   -51429.676    0.1572409 
  180400    292.41423   -574.28193    149371.77   -47368.753    4015.6053   -51384.358   0.15711227 
  180600     290.8891   -237.13291    148899.34   -47461.349    3994.6613    -51456.01   0.14650961 
  180800    295.17873   -467.84297    149229.86   -47424.858     4053.569   -51478.427   0.14506426 
  181000    295.50802   -743.76047    149625.41   -47463.344     4058.091   -51521.435   0.14941864 
  181200    290.94755    -462.5819    149245.38   -47449.134    3995.4639   -51444.597   0.14674795 
  181400     291.6168   -277.95779    148950.79   -47491.484    4004.6544   -51496.139   0.14660611 
  181600    290.84557   -565.15079    149321.64   -47510.857    3994.0636   -51504.921   0.15094041 
  181800    292.42908    -725.0064    149514.18   -47480.488    4015.8092   -51496.297   0.15309562 
  182000    293.91429   -462.61981    149144.15   -47492.389    4036.2049   -51528.594   0.14718048 
  182200    293.14314   -357.17172    149033.67   -47508.911    4025.6151   -51534.526   0.14730049 
  182400    287.51345   -608.58024    149370.13    -47506.89    3948.3049   -51455.195    0.1575527 
  182600    303.17614   -610.20982    149416.96    -47470.52    4163.3942   -51633.914    0.1460629 
  182800    297.42808   -414.63051    149119.36   -47436.581    4084.4585   -51521.039    0.1453921 
  183000    291.98782   -415.07874    149122.97   -47437.337    4009.7495   -51447.087   0.14650549 
  183200    288.96305   -621.44082    149427.02   -47416.825    3968.2117   -51385.037   0.15426313 
  183400    292.48185   -544.75452       149388   -47425.235    4016.5339   -51441.769   0.15106123 
  183600    300.37535    -380.7682    149123.87   -47458.944     4124.932   -51583.877   0.14647917 
  183800    295.29903   -449.98024    149197.46   -47490.755    4055.2211   -51545.976   0.14513725 
  184000    293.02612   -619.79216    149374.55   -47501.971    4024.0082   -51525.979   0.14715835 
  184200    285.77216   -508.14704    149259.96   -47543.545    3924.3924   -51467.937   0.15070777 
  184400    290.08346   -399.98701    149087.31   -47555.351    3983.5977   -51538.948   0.14723432 
  184600    286.45539   -489.29957    149193.17   -47562.881    3933.7749   -51496.656   0.14428732 
  184800    288.01077    -619.6646    149349.13    -47549.08    3955.1343   -51504.214   0.14833428 
  185000    291.51676   -550.00263    149246.88   -47540.482    4003.2807   -51543.762   0.14898842 
  185200    292.59686   -406.33845    149097.25   -47599.639    4018.1133   -51617.752   0.14340362 
  185400    293.83909   -443.45251    149167.01   -47576.343    4035.1724   -51611.515   0.14385274 
  185600    288.56207   -560.59653    149305.95   -47578.546    3962.7051   -51541.251   0.14811127 
  185800    290.69492   -544.16029     149255.8   -47524.283    3991.9948   -51516.278   0.15036846 
  186000    292.46638   -407.91716    149164.66   -47510.476    4016.3215   -51526.798   0.14547641 
  186200    286.99228   -512.29868    149235.77   -47501.038    3941.1479   -51442.185   0.15477473 
  186400    297.82104   -557.49776    149335.59    -47450.86    4089.8548   -51540.715   0.14835124 
  186600    296.18729   -527.90856    149254.62   -47484.886    4067.4192   -51552.306   0.14328247 
  186800    293.41592   -457.09341    149164.67   -47512.527    4029.3611   -51541.888   0.14765871 
  187000    293.19974   -517.12061    149255.75   -47483.125    4026.3924   -51509.517    0.1533919 
  187200    285.14132   -566.93747    149316.76    -47500.63    3915.7294   -51416.359   0.15215695 
  187400    291.10131   -442.44713    149210.13   -47487.425    3997.5754       -51485   0.14714337 
  187600    288.62091   -495.57544    149188.49   -47528.617    3963.5132   -51492.131   0.15161338 
  187800    296.94585   -573.12345    149283.01     -47518.3    4077.8362   -51596.137   0.14979162 
  188000    296.10472   -487.03113    149287.43   -47491.178    4066.2853   -51557.464   0.14368746 
  188200    295.63268   -478.51119    149210.46   -47482.316     4059.803   -51542.119   0.15024377 
  188400    296.34429   -489.37182    149215.87   -47470.881    4069.5751   -51540.456    0.1481729 
  188600    296.89814   -542.03345    149280.63   -47476.585    4077.1811   -51553.766   0.14283873 
  188800    291.96632   -498.89313    149240.45     -47489.4    4009.4543   -51498.854   0.14529981 
  189000    293.31832   -454.62989    149193.31   -47483.545    4028.0207   -51511.566   0.15248845 
  189200    291.50814   -533.64708    149250.87   -47485.933    4003.1623   -51489.095   0.14944614 
  189400    294.35253   -517.41277    149271.39   -47447.692    4042.2232   -51489.915     0.146591 
  189600    291.35981    -509.6683     149215.5   -47462.919    4001.1254   -51464.045   0.14906461 
  189800    289.60264   -514.22261    149210.52   -47502.007    3976.9949   -51479.002   0.15292299 
  190000    288.27231   -554.94737    149259.85   -47531.945     3958.726   -51490.671   0.15308191 
  190200    286.88881   -506.41545    149206.91   -47506.016    3939.7269   -51445.743    0.1514955 
  190400    292.66592   -480.40634    149123.19   -47505.165    4019.0617   -51524.226   0.15454938 
  190600    292.04537   -450.07104    149178.36   -47447.131    4010.5399   -51457.671   0.14945661 
  190800    295.22806   -607.99784    149318.55   -47479.761    4054.2464   -51534.008    0.1493597 
  191000    292.52538   -557.42863    149224.35   -47492.976    4017.1316   -51510.107   0.15205841 
  191200    294.63333   -359.53223    149076.43    -47488.35    4046.0793   -51534.429   0.14626292 
  191400     287.6957   -502.06393    149214.77    -47511.91    3950.8077   -51462.718   0.15055021 
  191600    288.42679   -618.82041    149359.55   -47465.144    3960.8475   -51425.991   0.14954687 
  191800    294.31213   -493.39979    149180.89   -47501.355    4041.6684   -51543.024   0.14911541 
  192000    295.73337   -400.60569    149011.13   -47502.599    4061.1857   -51563.785   0.15158037 
  192200    296.36818   -508.40331    149248.34   -47470.937    4069.9033   -51540.841   0.15154885 
  192400    292.98957   -656.16884    149466.89   -47475.779    4023.5062   -51499.286   0.14934431 
  192600    294.93878   -433.97926    149162.96   -47509.271    4050.2738   -51559.545    0.1426369 
  192800    295.73813    -276.5203    148951.13   -47486.674     4061.251   -51547.925   0.14580855 
  193000    294.77006   -589.06242    149365.13   -47475.066    4047.9569   -51523.023   0.14801334 
  193200    301.14906   -706.80642    149580.93    -47425.83    4135.5571   -51561.387   0.14441448 
  193400    289.86932   -442.07767    149107.16    -47430.74    3980.6571   -51411.397   0.15151221 
  193600    297.08598   -215.47693       148926    -47445.79    4079.7605   -51525.551   0.14616418 
  193800    291.42907   -703.96581    149462.23   -47491.063    4002.0765    -51493.14   0.15408485 
  194000     289.3363   -785.56056    149533.11   -47515.086    3973.3373   -51488.423   0.15697158 
  194200    293.30491   -243.01725     148914.8   -47505.523    4027.8366   -51533.359   0.14654738 
  194400    292.05213   -265.99631    148954.95   -47486.764    4010.6327   -51497.397    0.1507574 
  194600    287.33465   -807.47289    149637.23   -47506.099    3945.8495   -51451.948   0.15295633 
  194800    289.59345   -716.44322    149479.02   -47491.932    3976.8686   -51468.801   0.15310643 
  195000    298.08512   -122.63671    148779.34   -47479.154    4093.4813   -51572.635    0.1413248 
  195200    294.29681   -354.44273    149113.56   -47464.728    4041.4579   -51506.186   0.13952954 
  195400    291.59336   -875.30603    149833.42    -47460.63    4004.3327   -51464.963   0.15127222 
  195600    295.76148   -567.38295    149378.85   -47470.497    4061.5716   -51532.068   0.14969773 
  195800    290.08526   -83.225833    148741.52   -47519.603    3983.6224   -51503.225   0.14656092 
  196000    290.77832   -502.45564    149296.94     -47488.4    3993.1399    -51481.54   0.14994013 
  196200    294.08685   -914.15441    149816.44   -47469.981    4038.5747   -51508.556   0.15273816 
  196400    289.41891   -437.59097    149192.17   -47474.861    3974.4717   -51449.333   0.15190772 
  196600    288.00904   -153.04275    148796.05   -47544.009    3955.1106   -51499.119   0.14414062 
  196800    290.51805   -628.42235    149385.06    -47532.97    3989.5659   -51522.536   0.15089474 
  197000    289.98534    -788.2687    149642.52   -47539.693    3982.2503   -51521.944   0.15248062 
  197200    293.34186   -357.18758     149068.6   -47600.265    4028.3441   -51628.609   0.13586662 
  197400    291.21308   -242.13309    148911.67   -47559.111    3999.1104   -51558.221    0.1420591 
  197600    291.34804   -635.48207    149467.15   -47467.749    4000.9637   -51468.712   0.15350237 
  197800    295.37536   -710.69358    149562.98   -47454.361    4056.2693    -51510.63   0.15955018 
  198000    291.09194   -376.07992    149075.08   -47487.494    3997.4468   -51484.941    0.1516557 
  198200    293.25857   -313.94401    149012.66   -47513.926    4027.2003   -51541.126   0.14663118 
  198400    294.95531    -640.4853    149431.06   -47437.578    4050.5009   -51488.079   0.15821322 
  198600    288.85737   -679.66792    149461.74   -47425.741    3966.7603   -51392.502   0.15796774 
  198800    299.37183   -400.44709    149093.65   -47462.879    4111.1512    -51574.03   0.15147951 
  199000      295.127   -390.75966    149129.48   -47469.768    4052.8586   -51522.627   0.14934543 
  199200    292.59193    -647.2858    149478.19   -47460.451    4018.0456   -51478.497   0.14806904 
  199400    289.13619   -609.73841    149388.19   -47472.881    3970.5893    -51443.47   0.15127531 
  199600    295.51295   -374.78789    149070.46   -47499.132    4058.1587   -51557.291   0.14981268 
  199800    294.71458   -438.12743    149193.18   -47475.557     4047.195   -51522.752   0.15087165 
  200000    293.07565   -659.97589    149433.66   -47492.655    4024.6883   -51517.344   0.15384159 
Loop time of 108.701 on 6 procs for 200000 steps with 4608 atoms

Performance: 794.843 ns/day, 0.030 hours/ns, 1839.914 timesteps/s
97.9% CPU use with 6 MPI tasks x no OpenMP threads

MPI task timing breakdown:
Section |  min time  |  avg time  |  max time  |%varavg| %total
---------------------------------------------------------------
Pair    | 76.44      | 77.096     | 78.687     |   8.4 | 70.92
Neigh   | 12.322     | 12.48      | 12.79      |   5.9 | 11.48
Comm    | 7.2992     | 9.1661     | 10.063     |  29.1 |  8.43
Output  | 3.0264     | 3.0276     | 3.0317     |   0.1 |  2.79
Modify  | 5.6069     | 5.7224     | 5.833      |   3.5 |  5.26
Other   |            | 1.209      |            |       |  1.11

Nlocal:        768.000 ave         773 max         761 min
Histogram: 1 0 0 0 1 1 1 0 1 1
Nghost:        1399.83 ave        1406 max        1394 min
Histogram: 2 0 0 0 0 2 0 0 1 1
Neighs:        0.00000 ave           0 max           0 min
Histogram: 6 0 0 0 0 0 0 0 0 0
FullNghs:      21871.7 ave       22005 max       21615 min
Histogram: 1 0 0 0 0 1 1 1 0 2

Total # of neighbors = 131230
Ave neighs/atom = 28.478733
Neighbor list builds = 12684
Dangerous builds = 0
write_data		data.${NAME}
write_data		data.ice_293K_-500atm_ML
System init for write_data ...
Total wall time: 0:02:41
