

read_data data.ice_${TEMP}K_${PRES}atm_ML group ice
read_data data.ice_293K_${PRES}atm_ML group ice
read_data data.ice_293K_-500atm_ML group ice
Reading data file ...
  orthogonal box = (-0.06513699 -0.057899546 -0.057899546) to (57.335647 50.965020 50.965020)
  3 by 1 by 2 MPI processor grid
  reading atoms ...
  4608 atoms
  reading velocities ...
  4608 velocities
  read_data CPU = 0.006 seconds
read_data data.liq_${TEMP}K_${PRES}atm_ML add append shift ${X_HI} ${YZ_LO} ${YZ_LO} group water
read_data data.liq_293K_${PRES}atm_ML add append shift ${X_HI} ${YZ_LO} ${YZ_LO} group water
read_data data.liq_293K_-500atm_ML add append shift ${X_HI} ${YZ_LO} ${YZ_LO} group water
read_data data.liq_293K_-500atm_ML add append shift 50.9650195464448 ${YZ_LO} ${YZ_LO} group water
read_data data.liq_293K_-500atm_ML add append shift 50.9650195464448 0.0578995464432488 ${YZ_LO} group water
read_data data.liq_293K_-500atm_ML add append shift 50.9650195464448 0.0578995464432488 0.0578995464432488 group water
Reading data file ...
  orthogonal box = (-0.06513699 -0.09849468 -0.09849468) to (104.29216 51.121414 51.121414)
  3 by 1 by 2 MPI processor grid
  reading atoms ...
  4608 atoms
  reading velocities ...
  4608 velocities
  read_data CPU = 0.006 seconds

write_data data.icewater_test
System init for write_data ...
WARNING: Communication cutoff is 0.0. No ghost atoms will be generated. Atoms may get lost. (../comm_brick.cpp:167)

# Define potential
#
pair_style sw
pair_coeff * * /data/emrosky-sim/Freezing_Simulations/Melting/MLmW_fancy/ML_mW.sw mW
Reading sw potential file /data/emrosky-sim/Freezing_Simulations/Melting/MLmW_fancy/ML_mW.sw with DATE: 2019-02-27

# Delete water and ice atoms that are overlapping
#
delete_atoms overlap 2.5 water ice
System init for delete_atoms ...
Neighbor list info ...
  update every 1 steps, delay 10 steps, check yes
  max neighbors/atom: 2000, page size: 100000
  master list distance cutoff = 6.0032907
  ghost atom cutoff = 6.0032907
  binsize = 3.0016454, bins = 35 18 18
  2 neighbor lists, perpetual/occasional/extra = 1 1 0
  (1) command delete_atoms, occasional, copy from (2)
      attributes: full, newton on
      pair build: copy
      stencil: none
      bin: none
  (2) pair sw, perpetual
      attributes: full, newton on
      pair build: full/bin/atomonly
      stencil: full/bin/3d
      bin: standard
Deleted 664 atoms, new total = 8552

# set timestep
#
timestep 10.0

# Define output
#
compute 1 all msd
thermo 50
thermo_style custom step temp press vol etotal ke pe c_1[4]

# Neighbor lists
#
neigh_modify delay 0 every 1 check yes

# Set fixes
#
fix 1 all momentum 10 linear 1 1 1 rescale
fix 2 all nph iso ${PRES} ${PRES} ${PCOUPL}
fix 2 all nph iso -500 ${PRES} ${PCOUPL}
fix 2 all nph iso -500 -500 ${PCOUPL}
fix 2 all nph iso -500 -500 10000.0
fix 3 all temp/csvr ${TEMP} ${TEMP} ${TCOUPL} 837492
fix 3 all temp/csvr 293 ${TEMP} ${TCOUPL} 837492
fix 3 all temp/csvr 293 293 ${TCOUPL} 837492
fix 3 all temp/csvr 293 293 5000.0 837492


# Fix ice atoms in place
#
velocity ice set 0.0 0.0 0.0
fix 4 ice setforce 0.0 0.0 0.0

# Run 1.0 ns equilibration of water
#
dump 1 all atom 1000 eq.all.${NAME}.dump
dump 1 all atom 1000 eq.all.coexist_293K_-500atm_ML.dump
run 100000
Neighbor list info ...
  update every 1 steps, delay 0 steps, check yes
  max neighbors/atom: 2000, page size: 100000
  master list distance cutoff = 6.0032907
  ghost atom cutoff = 6.0032907
  binsize = 3.0016454, bins = 35 18 18
  1 neighbor lists, perpetual/occasional/extra = 1 0 0
  (1) pair sw, perpetual
      attributes: full, newton on
      pair build: full/bin/atomonly
      stencil: full/bin/3d
      bin: standard
Per MPI rank memory allocation (min/avg/max) = 4.592 | 4.600 | 4.606 Mbytes
Step Temp Press Volume TotEng KinEng PotEng c_1[4] 
       0    134.27136   -1047.8779    273779.18   -84110.738    3422.4301   -87533.169            0 
      50    162.40671    -709.2867    272592.54   -83761.078    4139.5695   -87900.647   0.86106139 
     100    167.62151    72.315884    270326.14   -83467.875    4272.4892   -87740.364    1.8324643 
     150    174.27355   -3.4372623    269678.15   -83137.523    4442.0423   -87579.565    2.9438056 
     200    177.79527   -341.28248    270573.48   -82831.817    4531.8071   -87363.624    4.0743851 
     250    186.75985   -744.11877     271726.5   -82544.651    4760.3044   -87304.956    5.2355222 
     300    188.19096   -657.13314    272367.14   -82251.498    4796.7819    -87048.28    6.6609256 
     350    195.20266   -569.01419    272446.93   -81938.943    4975.5025   -86914.446    8.0987016 
     400    199.94851   -813.95741    272256.33   -81753.843     5096.469   -86850.312    9.5703867 
     450    205.06405   -208.02209    271707.28   -81536.286    5226.8585   -86763.144    10.914123 
     500    206.38943   -401.69608     271878.1   -81324.345    5260.6409   -86584.986    12.522855 
     550    208.44182   -556.80223    272604.78   -81130.428    5312.9542   -86443.382    14.228051 
     600    212.43015   -485.70461    273081.07   -80919.108    5414.6122   -86333.721    15.996686 
     650    214.84302    -466.8427    273112.66   -80749.295    5476.1138   -86225.409     17.50442 
     700     220.3029   -133.08045    273141.84    -80520.92      5615.28     -86136.2    19.321394 
     750    221.19411   -309.99987    273545.96   -80362.244     5637.996    -86000.24    21.263431 
     800    223.71625   -555.45866    273926.87   -80194.032    5702.2826   -85896.315    23.450129 
     850    226.94666   -529.62751    273769.68   -80062.464    5784.6221   -85847.086     25.41887 
     900    232.89274   -423.37088    273602.41   -79917.315    5936.1814   -85853.496     27.38075 
     950    231.88696   -593.90592     273698.3   -79767.739     5910.545   -85678.284    29.433751 
    1000    235.55526   -181.86313    273582.27   -79589.512    6004.0459   -85593.558    31.801594 
    1050    242.36507   -387.98339    274116.15   -79475.125    6177.6207   -85652.746    34.075619 
    1100    246.29939    -594.8933    274862.29   -79310.147    6277.9022    -85588.05    36.553474 
    1150    246.69757   -662.43225    275350.85   -79141.901    6288.0514   -85429.953    38.791549 
    1200     245.3516   -596.70814    275069.48   -79057.678     6253.744   -85311.422    41.117857 
    1250    251.21633   -684.68446     274638.8   -78954.509    6403.2296   -85357.739    43.413952 
    1300    247.29758   -405.51234    274608.13   -78887.079    6303.3449   -85190.424    45.686385 
    1350    251.33631   -649.58899    274878.37   -78719.989    6406.2878   -85126.276     48.40138 
    1400     252.9572   -512.28714    275271.57   -78611.915    6447.6024   -85059.517    50.690808 
    1450    255.67595   -824.27112    275841.84   -78485.946    6516.9005   -85002.847    53.479822 
    1500    254.32798   -746.42593    275645.45   -78442.817    6482.5423   -84925.359    56.126387 
    1550    260.33916    -607.6712     275129.8   -78337.814    6635.7606   -84973.575    58.516864 
    1600    260.52499   -564.28874    274789.72   -78259.054    6640.4972   -84899.551     61.47806 
    1650    261.18555    -347.3518    274949.13   -78198.946    6657.3341    -84856.28    64.225939 
    1700    260.97944   -637.18006    275646.49   -78124.158    6652.0807   -84776.239    66.744712 
    1750    264.34969   -765.20749    276251.16   -78013.379    6737.9846   -84751.364    69.572902 
    1800    260.74208    -462.4885    276466.03   -77974.183    6646.0306   -84620.213    72.665284 
    1850    268.51518   -228.27965    276273.58   -77872.703    6844.1583   -84716.861    74.907885 
    1900    268.34695   -395.87312     276232.7   -77818.766    6839.8704   -84658.637    77.708091 
    1950    274.70738   -512.01107    276221.41   -77754.279    7001.9907   -84756.269    80.372817 
    2000    267.80776   -409.28692    276070.78    -77644.22     6826.127   -84470.347     83.03951 
    2050    270.23636    -275.6224    275995.28   -77609.359    6888.0293   -84497.389    85.996062 
    2100    267.58085   -328.53761    276160.36   -77559.997    6820.3433    -84380.34    88.796733 
    2150    278.08676   -521.61835    276291.24   -77462.485    7088.1275   -84550.613    91.022309 
    2200    276.01912   -622.02406     276510.8   -77397.438    7035.4256   -84432.864    93.763263 
    2250    278.30957   -532.98965    276564.06   -77372.754    7093.8068   -84466.561    96.947007 
    2300    274.70292   -305.23145    276403.32   -77346.027    7001.8771   -84347.904    100.11873 
    2350     282.2766   -429.39604    276298.91   -77278.488    7194.9218    -84473.41    103.36555 
    2400    277.57274   -434.30146    276535.83   -77280.168    7075.0257   -84355.194    106.34898 
    2450    276.80928   -487.42931     276839.5    -77295.06    7055.5659   -84350.626    109.73009 
    2500     277.7675   -694.73821       277179    -77297.96      7079.99    -84377.95    113.26608 
    2550    278.81368   -770.80028    277090.59     -77201.9    7106.6559   -84308.556    115.98468 
    2600    283.01954   -565.40966    276622.85   -77213.454    7213.8586   -84427.312    118.09385 
    2650     280.2175    -285.7158    276368.98   -77221.218    7142.4376   -84363.656    120.97425 
    2700    282.23288   -487.95481    276517.36   -77173.494    7193.8074   -84367.301    123.61931 
    2750    282.53765   -562.38824    277001.31   -77125.387    7201.5759   -84326.963    127.09952 
    2800    281.48559   -816.48953    277602.16    -77151.65    7174.7599    -84326.41    129.96746 
    2850    282.90139   -513.87805    277625.15   -77110.206     7210.847   -84321.053    133.28705 
    2900    284.15413   -569.55975    277219.27   -77068.635    7242.7782   -84311.413    135.90531 
    2950    285.85387   -483.54318    276818.17   -77062.588    7286.1027   -84348.691    138.78848 
    3000    284.08129   -365.82779    276433.94   -77066.274    7240.9216   -84307.195    141.93802 
    3050    280.72261   -365.96173    276356.57   -77039.013    7155.3123   -84194.325    144.91854 
    3100    285.82658   -453.07568    276718.09    -76972.74    7285.4071   -84258.147    148.11807 
    3150    286.66537   -642.84105    277099.68   -76924.351     7306.787   -84231.138     151.1146 
    3200    288.84624   -637.91436    277205.46   -76882.139    7362.3748   -84244.513    154.36298 
    3250      287.936   -461.78358    277132.38   -76854.256    7339.1739    -84193.43    157.50826 
    3300    286.51864   -532.21844    277322.16   -76868.638    7303.0469   -84171.685    160.75183 
    3350    284.71464   -674.23581    277217.84   -76888.339    7257.0649   -84145.404    163.70701 
    3400    289.47361   -547.28628    276852.34   -76904.613     7378.366   -84282.979     166.7033 
    3450    284.76298   -499.36173    276576.09   -76962.649    7258.2969   -84220.946    170.79225 
    3500    283.81825   -270.35597    276759.32   -76964.661    7234.2169   -84198.878    174.26552 
    3550    287.68613   -681.14299    277268.56   -76945.154     7332.805   -84277.959    177.72289 
    3600    290.33726   -790.39619    277447.52   -76921.411    7400.3793    -84321.79    181.13934 
    3650    292.28851   -570.74649    277062.32   -76903.382    7450.1146   -84353.496    183.81479 
    3700    294.97908    -500.3053    276777.26   -76860.855    7518.6941   -84379.549    186.83041 
    3750    290.22204   -293.00258    276885.76   -76756.047    7397.4426    -84153.49    190.14404 
    3800    290.36273   -519.02769    277272.85   -76747.653    7401.0285   -84148.682     193.3384 
    3850     289.7465   -249.53807    277453.06   -76696.244    7385.3215   -84081.565    196.24661 
    3900    292.24113   -633.08433    277763.27   -76653.945    7448.9068   -84102.851    199.92092 
    3950    290.46693    -862.9423    277606.42   -76646.992    7403.6846   -84050.676     202.8558 
    4000    290.96975   -395.17226       276856   -76717.701    7416.5008   -84134.202    205.42179 
    4050    292.64534   -324.07785    276548.67    -76716.03    7459.2097    -84175.24    208.17329 
    4100    294.99309   -401.18031    276912.84   -76705.794    7519.0513   -84224.845    211.48729 
    4150     285.3377   -553.53279    277349.82   -76740.938    7272.9461   -84013.885    214.37258 
    4200    291.28544     -515.934    277569.09   -76703.162    7424.5475   -84127.709    217.68302 
    4250     291.7323   -476.75238    277572.03   -76685.618    7435.9373   -84121.555    220.58986 
    4300    293.72985   -691.98054    277434.08   -76669.341    7486.8528   -84156.194     223.3422 
    4350    285.30417   -545.47767    277264.28    -76662.19    7272.0914   -83934.281     226.1042 
    4400    296.23199   -500.10187    277204.56   -76690.405    7550.6296   -84241.034    229.04531 
    4450    288.88691   -396.33891    277246.15   -76661.996    7363.4115   -84025.407    232.20921 
    4500    290.40205   -734.87657    277379.18   -76640.424    7402.0308   -84042.455    235.43561 
    4550    291.09029   -425.60997    277206.16   -76638.619    7419.5732   -84058.192    238.31759 
    4600    289.90621   -312.00299    277109.24   -76600.991    7389.3923   -83990.383    240.64194 
    4650    292.22481    -462.3366    277347.15   -76608.474    7448.4908   -84056.965    243.40739 
    4700    294.03455   -537.27443    277750.63   -76607.784    7494.6193   -84102.403    246.47673 
    4750    293.39651   -1006.6658    277755.92   -76634.565    7478.3563   -84112.921    249.54332 
    4800     288.5925   -407.54467    277401.55   -76600.446    7355.9074   -83956.354    252.35993 
    4850     292.9237   -223.16221    277341.95   -76554.427    7466.3049   -84020.732    254.91155 
    4900    294.57407   -677.33333     277593.8   -76554.766    7508.3709   -84063.136    257.87334 
    4950    294.92204   -691.41087    277522.44   -76564.225    7517.2405   -84081.466    260.22833 
    5000    287.51906   -363.38732    277024.48   -76559.074    7328.5466    -83887.62     262.9345 
    5050    299.49661   -506.46628    276724.64   -76582.276    7633.8411   -84216.117    265.55445 
    5100    296.78316   -500.76011    276927.71    -76559.77    7564.6783   -84124.448     268.4982 
    5150    289.10198    -675.4658    277517.31     -76581.8    7368.8935   -83950.694    272.21754 
    5200    290.84144    -558.1128    277750.02   -76529.394    7413.2302   -83942.625    275.15946 
    5250    291.05082   -498.21694    277432.04   -76506.516    7418.5672   -83925.083     278.1411 
    5300     296.1275   -180.10419    277135.03   -76462.609    7547.9664   -84010.576    281.20152 
    5350     297.1412   -249.63547     277505.1   -76456.673    7573.8042   -84030.477    283.90478 
    5400    298.29008   -631.85516    277987.61    -76462.33    7603.0881   -84065.418    287.27814 
    5450    298.11866   -554.13876    277960.16   -76444.863    7598.7186   -84043.581    290.68591 
    5500    291.34988   -481.78466    277731.12   -76450.854      7426.19   -83877.044    293.72823 
    5550    295.70352   -341.67983    277299.98   -76499.499    7537.1594   -84036.659    296.63265 
    5600    294.86989   -356.97716    277089.21   -76466.386    7515.9112   -83982.297    300.02964 
    5650    296.77228   -412.08944    277303.95    -76460.22    7564.4009   -84024.621    302.78079 
    5700    295.18879   -678.45521    277876.84   -76398.519    7524.0395   -83922.558    306.02877 
    5750     293.7076    -957.1713    278382.58   -76429.781    7486.2857   -83916.066    310.13933 
    5800    294.45083   -715.43147    278007.73   -76450.779    7505.2297   -83956.009    314.03525 
    5850    296.44861   -178.33651    277311.11   -76452.785    7556.1509   -84008.936    316.80667 
    5900    298.63463   -219.32483     277081.1   -76410.747    7611.8703   -84022.618      320.021 
    5950    297.74602   -517.46869    277682.24   -76379.946    7589.2206   -83969.166    323.21079 
    6000    295.42978   -775.21084    278292.84   -76420.685     7530.182   -83950.867    326.94956 
    6050    297.09458   -866.36798    278176.89   -76470.746     7572.616   -84043.362     329.2789 
    6100    299.64062   -653.00095    277257.16    -76473.94    7637.5119   -84111.452    331.23173 
    6150    297.16303   -202.45735    276701.52   -76446.219    7574.3607   -84020.579    332.61614 
    6200    296.21509    -387.0888    277047.66   -76440.514    7550.1989   -83990.713    336.62329 
    6250    293.66495   -809.81476     277714.1   -76385.134    7485.1985   -83870.333    340.68956 
    6300    293.11437   -595.69911    278102.41   -76389.597     7471.165   -83860.762    344.48085 
    6350    292.75105   -442.84581    278100.91   -76419.424    7461.9041   -83881.328    347.91428 
    6400     297.7309   -732.52454    277667.53   -76355.536    7588.8351   -83944.371     350.6232 
    6450    301.21073   -787.33688    277284.06   -76355.971    7677.5322   -84033.504    352.19049 
    6500     294.4613   -316.16176    277265.22   -76356.648    7505.4967   -83862.145    354.49004 
    6550    295.69554   -417.38467    277592.56   -76361.193     7536.956   -83898.149    357.32165 
    6600    294.60182   -601.39004    277918.06   -76446.592    7509.0783   -83955.671    361.12694 
    6650    290.77891   -502.75574    277926.65   -76479.456    7411.6366   -83891.092    363.55445 
    6700    288.85846   -253.49941    277578.04   -76493.388    7362.6863   -83856.074    365.92349 
    6750    296.69006   -506.78375    277553.52   -76522.876    7562.3052   -84085.181    368.41809 
    6800    297.92603   -660.68637    277703.79   -76537.298    7593.8088   -84131.107     372.6763 
    6850    292.85883   -361.36965    277810.92   -76537.975    7464.6515   -84002.627    375.76416 
    6900    291.00901   -669.16066    277880.98   -76557.791    7417.5015   -83975.292    379.01083 
    6950    291.74547   -546.16466    277646.21     -76536.1    7436.2732   -83972.373    381.68112 
    7000    296.54849   -659.85638    277261.49   -76522.526    7558.6967   -84081.222    384.88768 
    7050    287.92986   -268.07822    276990.46   -76507.799    7339.0174   -83846.817     387.9642 
    7100    292.07335    -446.3224    277054.63   -76463.909    7444.6305   -83908.539    390.66113 
    7150    290.69029   -481.53427    277754.79   -76473.544    7409.3777   -83882.922    393.41972 
    7200     294.1989   -808.15696    278407.47   -76436.123    7498.8083   -83934.932    396.17453 
    7250    298.32013   -757.88038    278094.79   -76393.007     7603.854   -83996.861    397.84413 
    7300    299.02526   -420.73483    277173.69   -76390.789    7621.8268   -84012.616    399.73193 
    7350    297.67769   -403.81024     276652.1   -76415.876    7587.4788   -84003.355    401.74434 
    7400    294.66437    -448.1124    277008.91   -76420.043    7510.6728   -83930.716    404.94868 
    7450    297.85303   -497.23543    277531.93   -76396.202    7591.9481    -83988.15    408.09891 
    7500    295.16066   -717.84208    277854.91   -76422.855    7523.3225   -83946.178    411.44155 
    7550    292.54654   -413.15972    277827.34   -76469.211    7456.6914   -83925.903    413.53347 
    7600    295.17367    -577.5552    277878.09   -76477.515    7523.6543   -84001.169    415.31112 
    7650    293.63044   -477.76724    277693.37   -76454.925     7484.319   -83939.244    418.16984 
    7700    293.63967   -415.91956    277468.42   -76454.274    7484.5542   -83938.829    420.84634 
    7750    291.93572   -384.57151    277225.71   -76480.582    7441.1224   -83921.704    423.97746 
    7800    292.69382   -394.13382    277149.59    -76523.72    7460.4456   -83984.165    426.14367 
    7850    286.53998   -272.07017    277404.23   -76498.227    7303.5909   -83801.818    428.86344 
    7900    289.40481   -580.31174    277761.92   -76449.578    7376.6123   -83826.191    431.78155 
    7950     293.1059   -590.75701    277741.05   -76470.552    7470.9489   -83941.501    436.33069 
    8000    294.40492   -366.98522    277577.22   -76469.593    7504.0595   -83973.652    440.05067 
    8050    296.90645    -577.8074    277447.35   -76482.852    7567.8207   -84050.672    442.36063 
    8100    295.85239   -676.84193    277273.93   -76522.968     7540.954   -84063.922    445.00334 
    8150    291.36366   -448.66557    277214.67    -76573.71    7426.5412   -84000.251    447.64462 
    8200    294.65895   -832.62025    277539.14   -76533.108    7510.5346   -84043.643    451.59162 
    8250    291.02087   -570.76973    277825.07    -76527.06    7417.8037   -83944.864    455.33501 
    8300    297.91364   -553.18563    277843.84    -76516.74    7593.4931   -84110.233    457.91102 
    8350    290.41828   -244.10871    277628.35   -76578.246    7402.4443    -83980.69     461.2965 
    8400    289.52476   -542.83457    277281.42   -76587.654    7379.6696   -83967.323    464.14561 
    8450    296.65436   -627.32286    277151.69   -76588.907    7561.3954   -84150.302     467.1416 
    8500    293.49525   -341.21203    277245.85   -76532.255     7480.873   -84013.128    469.82243 
    8550    292.37119   -206.42403     277442.7   -76480.999    7452.2219   -83933.221    473.03145 
    8600    296.11445   -931.60007    277756.02   -76490.612    7547.6336   -84038.246    476.82959 
    8650    296.92818   -456.99369    277736.02   -76453.229    7568.3747   -84021.604    479.06505 
    8700    297.08664   -570.34031    277890.98   -76430.373    7572.4136   -84002.787    481.68373 
    8750    296.08711   -512.52051    277757.82   -76411.438    7546.9367   -83958.375    483.60604 
    8800    298.36291   -522.17411    277341.43   -76396.777    7604.9445   -84001.722    485.67538 
    8850    298.56793   -237.65017    277195.64       -76380    7610.1701    -83990.17    488.44248 
    8900    296.24077   -402.71297    277689.68   -76380.478    7550.8533   -83931.332    491.66851 
    8950    295.31521    -811.1815    278145.67   -76355.785    7527.2618   -83883.047    494.93176 
    9000    299.00844   -625.52794    278010.55   -76378.556    7621.3983   -83999.955    497.59234 
    9050    297.08306    -541.4047    277553.98   -76355.384    7572.3223   -83927.706    501.53545 
    9100     296.4046   -235.71064    276847.78   -76372.615    7555.0291   -83927.644    503.14429 
    9150    301.88392   -420.12935    276849.99   -76402.274    7694.6912   -84096.966    506.09488 
    9200    292.09539   -553.76032    277421.75   -76347.876    7445.1921   -83793.068    509.25036 
    9250    300.47481   -555.08393    277931.37   -76332.667    7658.7744   -83991.442    512.87905 
    9300    296.40026   -638.71849    278027.94   -76387.833    7554.9186   -83942.752    516.26786 
    9350    296.61638   -605.52562    277734.07   -76394.327    7560.4273   -83954.755    518.25098 
    9400    294.28557   -441.68222    277119.37   -76441.596    7501.0174   -83942.614    518.16661 
    9450    291.73575   -66.115137     276889.6   -76450.126    7436.0253   -83886.151    520.28624 
    9500     292.8487   -283.18434    277484.14   -76440.412    7464.3933   -83904.805      524.432 
    9550    293.70691   -474.12927    278158.78   -76435.696     7486.268   -83921.964    527.71856 
    9600    293.32519   -149.85738    278052.34    -76442.89    7476.5384   -83919.429    530.74789 
    9650    296.09549   -482.99734    277828.62   -76409.624    7547.1503   -83956.774    533.29806 
    9700    300.09055   -356.43958    277378.08    -76413.53    7648.9801    -84062.51    536.19359 
    9750    295.21399   -459.21846    277261.94   -76498.541    7524.6819   -84023.223    539.88311 
    9800    296.40502   -349.28732    277355.06   -76475.138    7555.0398   -84030.178    543.24195 
    9850    293.24851   -585.87986    277849.96   -76471.381     7474.584   -83945.965    547.00478 
    9900    293.55622   -788.16599     277942.7   -76416.472    7482.4271     -83898.9    549.97749 
    9950    295.17314   -529.56857    277675.03   -76431.346    7523.6407   -83954.987    552.08877 
   10000    297.14097   -185.92738    277146.96   -76455.161    7573.7984   -84028.959    555.23834 
   10050     298.8463   -573.92274    277251.98   -76450.194    7617.2655   -84067.459    560.24593 
   10100    296.46296   -587.88172    277699.81   -76450.261    7556.5168   -84006.777    564.24403 
   10150    293.88469    -634.4846    277861.27   -76437.042    7490.7995   -83927.841    567.98844 
   10200    295.81767   -488.34104    277762.07   -76471.174    7540.0691   -84011.243    571.00144 
   10250    299.37635   -547.09072    277796.92   -76419.597     7630.776   -84050.373    574.11692 
   10300    294.95392   -806.38414    277827.27   -76375.651     7518.053   -83893.704      577.093 
   10350    297.62915   -539.78809    277693.62   -76408.118    7586.2417   -83994.359    580.16482 
   10400    294.90747   -562.74096    277799.51   -76433.595     7516.869   -83950.464    582.68487 
   10450    295.28363   -502.63603    277726.43   -76410.443    7526.4569     -83936.9    584.63871 
   10500    296.14711   -231.72709    277486.58   -76384.295    7548.4662   -83932.761     588.1816 
   10550    296.91859   -742.52884    277559.78   -76362.675    7568.1303   -83930.805    591.02902 
   10600    299.16468    -530.4391    277667.73   -76361.197    7625.3805   -83986.577    594.27852 
   10650    290.93792   -413.74738    277931.23   -76387.773    7415.6896   -83803.463    597.48894 
   10700    293.95265   -816.09734    278015.84   -76434.312    7492.5316   -83926.844    600.49972 
   10750    297.31982   -306.07932    277594.06   -76430.167    7578.3572   -84008.524    603.46042 
   10800    295.58245   -256.94624    277180.32   -76442.576    7534.0735    -83976.65    606.59371 
   10850    293.72058   -187.58354    276937.64   -76446.654    7486.6165   -83933.271    609.17089 
   10900    293.00437   -245.17748    277268.29   -76451.118    7468.3611   -83919.479    611.74035 
   10950    294.41864   -778.32159    277794.84   -76481.793    7504.4092   -83986.202    614.79188 
   11000    296.84571   -541.19041    277832.09   -76509.943    7566.2725   -84076.216    617.72607 
   11050    292.38586    -774.5413    277803.13   -76491.678    7452.5959   -83944.273    621.99262 
   11100     294.2008   -600.44183    277454.75   -76530.557    7498.8567   -84029.414    625.15427 
   11150    295.49212   -784.14375    277143.58   -76534.162    7531.7711   -84065.933    628.60565 
   11200     298.0845   -403.85138    276901.38   -76555.977     7597.848   -84153.825    631.22035 
   11250    296.78583   -341.19603    276908.23   -76539.704    7564.7463    -84104.45    635.13276 
   11300    292.94879   -727.03549    277422.91   -76562.888    7466.9443   -84029.833    638.99687 
   11350    289.89393   -787.14635    277562.85   -76569.346    7389.0793   -83958.425    643.60086 
   11400    296.12339   -540.44257    277274.35   -76588.738    7547.8615   -84136.599    645.31964 
   11450    297.24646   -479.61746    276997.01   -76551.497    7576.4873   -84127.984    647.25662 
   11500     294.5284   -275.31308    276954.06   -76476.217    7507.2068   -83983.424    650.25658 
   11550    298.41093    -453.4173    277513.38    -76466.65    7606.1683   -84072.819    654.62074 
   11600    292.62139    -479.6254    278166.22   -76498.796    7458.5994   -83957.395    659.07448 
   11650    290.86071   -637.80078    278306.85   -76582.108    7413.7214    -83995.83    662.19558 
   11700    291.95972   -484.57749    277812.26   -76549.993    7441.7342   -83991.727    663.43662 
   11750    288.09954   -467.66421    277010.33   -76591.494    7343.3424   -83934.836     664.6347 
   11800    294.46884   -356.12593    276580.91   -76636.183    7505.6889   -84141.872    666.49137 
   11850    287.25687   -415.70707    277112.18   -76643.343    7321.8635   -83965.206    670.47501 
   11900    292.67327    -608.9309    277736.96    -76625.14    7459.9216   -84085.062    676.16106 
   11950    293.62296   -391.47565    277695.23   -76603.876    7484.1282   -84088.004    679.60253 
   12000    294.98804   -684.15041    277335.96   -76623.996    7518.9226   -84142.919    681.03174 
   12050    290.66181    -363.9057    277007.64   -76651.111    7408.6518   -84059.763    682.72862 
   12100    291.98905    -387.8806    277087.98   -76624.935    7442.4816   -84067.417    685.64501 
   12150    293.88586   -726.54014    277347.77   -76571.845    7490.8294   -84062.675    689.28968 
   12200    295.79646   -493.42404    277515.91   -76535.539    7539.5283   -84075.067    693.41841 
   12250    293.39458   -522.03926    277565.44   -76566.268    7478.3071   -84044.575     697.6869 
   12300    297.57852   -502.85698    277321.39   -76473.184    7584.9511   -84058.135    700.96899 
   12350    290.33802   -338.30109    277360.15   -76516.815    7400.3987   -83917.213    703.40003 
   12400    287.02144   -594.34804    277716.55   -76474.841    7315.8628   -83790.704    706.56048 
   12450    294.23692   -573.24699    277650.54   -76454.694    7499.7775   -83954.471    710.60468 
   12500    295.11938   -446.28438     277378.3    -76481.52    7522.2704    -84003.79    714.07026 
   12550    296.00401   -331.72036    277231.65   -76476.723    7544.8186   -84021.542    716.93053 
   12600     291.2868    -703.9904    277411.21   -76499.894    7424.5821   -83924.476    720.66418 
   12650    294.61586   -547.79679    277762.53   -76505.193    7509.4362   -84014.629    724.33508 
   12700    296.58789   -791.56298    277855.33   -76523.506    7559.7011   -84083.207    728.51845 
   12750    294.10314   -246.24281    277484.71   -76516.814    7496.3675   -84013.181    730.45913 
   12800    292.22043   -395.30262    277262.84    -76553.22    7448.3792   -84001.599    732.05453 
   12850    290.19978   -341.90215    277499.23   -76583.869    7396.8751   -83980.745    736.93573 
   12900    292.19041   -566.77929    277844.12   -76560.577    7447.6141   -84008.191       741.69 
   12950    294.15601   -435.73285    277721.35   -76559.414    7497.7151   -84057.129    744.75192 
   13000    292.89795   -506.17134    277351.73   -76522.514    7465.6485   -83988.162    747.43766 
   13050    293.48814   -368.84329     277136.1   -76495.808    7480.6917   -83976.499    751.06009 
   13100    289.26841     -248.829    277394.23   -76453.975    7373.1354    -83827.11    753.85874 
   13150    296.06332   -701.01656    277845.99   -76478.025    7546.3303   -84024.355    756.93722 
   13200    291.17041   -563.23099    277695.23   -76496.425    7421.6155    -83918.04    758.68917 
   13250    295.65882   -217.91719    277474.83    -76484.23      7536.02    -84020.25    760.64491 
   13300    294.99221   -674.10556    277767.56   -76488.933    7519.0289   -84007.962    764.49135 
   13350     293.6506   -889.38772    277787.19    -76487.16    7484.8328   -83971.993    766.32181 
   13400    294.82781   -523.67021    277189.41   -76542.288    7514.8385   -84057.127     768.0934 
   13450    290.77234   -247.20689    277031.92   -76505.449     7411.469   -83916.918    771.33456 
   13500    291.30782   -563.54707    277438.33   -76481.036     7425.118   -83906.154    775.86259 
   13550    290.52141   -660.54894     277850.6   -76460.661    7405.0732   -83865.734    780.97281 
   13600    291.64116   -693.11562    277896.52   -76473.042    7433.6145   -83906.656    783.90632 
   13650    297.54016   -303.65156     277632.5   -76501.516    7583.9735    -84085.49    785.81589 
   13700    289.53353   -502.60448    277319.77   -76515.125    7379.8932   -83895.018    787.26732 
   13750     289.5679    -110.0468    277059.21   -76501.204    7380.7693   -83881.974    789.54618 
   13800    294.66019   -613.25595    277402.02    -76486.74    7510.5661   -83997.306    793.85086 
   13850    294.15074   -637.81867    277840.77   -76486.063    7497.5809   -83983.643    798.23817 
   13900    293.03578   -785.42264    278170.58   -76504.957    7469.1616   -83974.119    802.10591 
   13950    290.65631   -669.88866    278057.03   -76521.928    7408.5115   -83930.439    804.60282 
   14000    292.36746   -399.14765    277390.01   -76535.136    7452.1268   -83987.262    805.87973 
   14050    293.36907   -507.00767    276716.28   -76546.433    7477.6568    -84024.09    808.48986 
   14100    300.77222   -552.12699    276638.21   -76522.759     7666.355   -84189.114    811.70132 
   14150    295.66044   -146.51134    276926.55   -76538.604    7536.0613   -84074.665    815.31756 
   14200    289.84186   -638.01504    277600.51   -76570.526    7387.7521   -83958.278    819.68249 
   14250    292.97132   -827.91496    277975.45   -76599.131    7467.5186   -84066.649     823.8537 
   14300    288.40705   -596.26473    277851.21   -76602.276    7351.1803   -83953.456    829.14689 
   14350    291.20651   -811.15962    277343.79   -76627.982    7422.5355   -84050.518    831.82107 
   14400    296.48747   -342.02158    276755.05   -76623.278    7557.1415    -84180.42    833.64971 
   14450    291.86035   -235.51645    276734.33   -76609.505    7439.2012   -84048.706    838.39972 
   14500    292.74827   -406.52086    277061.15   -76575.288    7461.8334   -84037.121    841.83906 
   14550    291.99276   -307.37498    277449.77   -76581.657    7442.5761   -84024.233    846.57085 
   14600    294.47947   -620.56036    277911.73   -76590.074    7505.9598   -84096.033    851.13545 
   14650    294.11082   -578.29335    277734.83    -76567.73    7496.5634   -84064.293    854.42698 
   14700    298.51775   -439.51361     277312.2   -76523.411     7608.891   -84132.302     856.9596 
   14750     292.3279    -437.0012    277203.27   -76547.929    7451.1186   -83999.048    860.11916 
   14800     292.3469   -384.33895    277175.95   -76542.634    7451.6028   -83994.237    863.73061 
   14850    295.67417   -617.97105    277451.52   -76549.749    7536.4113    -84086.16    867.83065 
   14900    288.20964   -244.33297    277557.74   -76540.954    7346.1486   -83887.102     870.6993 
   14950    291.68595   -460.48164     277385.7   -76600.774    7434.7559    -84035.53    871.98675 
   15000    294.84012   -689.76673    277378.69   -76607.872    7515.1524   -84123.024     875.2283 
   15050    289.83736   -696.06871    277208.31   -76639.088    7387.6375   -84026.726    878.76906 
   15100     293.0165   -509.91361    277116.24   -76655.524    7468.6701   -84124.194    881.86771 
   15150    288.11151   -324.26499    277249.82   -76675.395    7343.6474   -84019.043    884.83049 
   15200    289.10095   -516.84463    277446.72    -76714.88    7368.8672   -84083.748     888.1381 
   15250    286.51644   -267.69422    277453.56   -76690.911    7302.9907   -83993.902    890.70028 
   15300    291.15261   -521.77386    277418.21   -76691.076    7421.1616   -84112.238    893.19169 
   15350    292.00113   -588.72253    277292.02   -76697.841    7442.7897    -84140.63     896.3236 
   15400    291.61994   -726.86605    277258.76   -76722.412    7433.0735   -84155.485    898.70567 
   15450    287.64659   -524.20913    276996.74   -76822.147    7331.7972   -84153.944    903.05885 
   15500    292.74977    -600.3327    276784.11   -76840.357    7461.8715   -84302.229    905.78896 
   15550    288.12341   -456.25359    276657.31   -76857.591    7343.9507   -84201.542    909.50124 
   15600    292.64961   -432.57178    276940.62   -76804.751    7459.3186    -84264.07    913.36827 
   15650    292.37016   -793.14776    277574.69   -76744.763    7452.1957   -84196.959    919.36221 
   15700    288.94178   -697.79163    277903.07   -76694.939    7364.8101   -84059.749    924.78166 
   15750    289.41053    -541.5401    277984.46   -76649.653     7376.758   -84026.411    929.43427 
   15800    292.72249    -784.9851    277628.43   -76662.986    7461.1762   -84124.162    931.03484 
   15850     294.0667   -546.22509    276863.15   -76675.744    7495.4388   -84171.183    932.46741 
   15900    292.10082   -239.98986    276330.84   -76684.133    7445.3306   -84129.463    934.03738 
   15950    292.70866   -180.82198    276533.61   -76705.448    7460.8238   -84166.272     937.4023 
   16000    288.51593   -374.88626    277493.26   -76670.717    7353.9557   -84024.673    942.06452 
   16050    291.46322   -542.81568    278376.14   -76680.283    7429.0788   -84109.361    948.70126 
   16100    291.27331   -754.36173    278247.35   -76674.359    7424.2383   -84098.597    952.39308 
   16150    293.57809   -331.22764    277192.53   -76667.915    7482.9845   -84150.899    951.77067 
   16200    296.55114     88.45609    276596.32    -76588.79    7558.7644   -84147.554    955.55076 
   16250    296.63428   -242.06856    277129.91   -76577.502    7560.8835   -84138.385    961.00124 
   16300    295.32784   -726.29949     277917.1   -76540.144    7527.5837   -84067.728    966.76777 
   16350    293.91286   -808.68479    278209.06   -76496.355    7491.5176   -83987.873    972.05007 
   16400    294.89004   -653.10619    277706.55   -76546.353    7516.4247   -84062.778    975.48028 
   16450    294.27978   -340.78275     277106.3   -76526.958    7500.8698   -84027.828    977.41919 
   16500    291.69952   -197.00288    277019.71   -76531.721    7435.1018   -83966.822    981.43995 
   16550    293.80152   -275.01389    277367.15   -76603.767    7488.6795   -84092.446    987.09716 
   16600    296.40281   -753.60544    277720.61   -76580.139    7554.9836   -84135.123    991.08481 
   16650    293.51044   -506.22631    277799.12   -76623.429    7481.2602   -84104.689    994.33846 
   16700    290.20789   -479.30782    277700.32   -76593.227    7397.0818   -83990.309    996.28576 
   16750    292.71583   -380.31902    277376.24   -76561.469    7461.0065   -84022.476     998.4621 
   16800    293.75006   -162.60752    277165.65   -76532.411     7487.368   -84019.779    1002.5296 
   16850    299.11166   -374.04778    277367.36   -76519.097    7624.0292   -84143.126      1006.38 
   16900    294.97879   -657.19191    277935.61   -76538.106    7518.6868   -84056.793    1012.0251 
   16950    291.86263   -474.89885    278044.54    -76531.16    7439.2593   -83970.419    1016.5498 
   17000    297.59771   -594.69886    277882.82    -76545.62    7585.4402    -84131.06    1018.7574 
   17050    291.00312   -645.88782    277479.56   -76518.461    7417.3514   -83935.812    1020.8377 
   17100    293.92407   -328.30847    277243.63   -76514.181    7491.8033   -84005.985    1023.5814 
   17150    297.18789   -356.84519    277465.59   -76546.415    7574.9943   -84121.409    1026.7737 
   17200     287.3031    -782.7272    277911.94   -76555.703     7323.042   -83878.745    1031.5269 
   17250    292.58249   -750.60878    278057.68   -76560.919    7457.6079   -84018.527    1034.1112 
   17300    292.45717   -846.63492    277755.57   -76586.721    7454.4135   -84041.135    1034.8201 
   17350    294.94167   -478.83253    276980.81   -76620.242    7517.7408   -84137.983    1034.8104 
   17400    290.55943   -165.47681     276552.6   -76632.703    7406.0422   -84038.745    1035.9066 
   17450    292.76268   -336.81714    276995.95   -76626.454    7462.2006   -84088.655    1039.3466 
   17500    294.43214    -655.0716    277824.79   -76687.433    7504.7533   -84192.186    1043.6666 
   17550    291.25403   -678.31448    278159.51     -76675.7    7423.7467   -84099.447    1046.7046 
   17600    287.58346   -618.79711    277827.78   -76682.793     7330.188   -84012.981    1048.2447 
   17650    293.41869   -276.42046    277099.83   -76654.966    7478.9217   -84133.888    1048.5541 
   17700    289.29146   -427.86682    276684.29   -76694.172     7373.723   -84067.895    1048.8356 
   17750    288.50459   -117.57821    276877.54   -76708.756    7353.6666   -84062.422    1051.1823 
   17800    289.56479   -473.17656    277454.28     -76726.6      7380.69    -84107.29    1054.4269 
   17850    283.89421   -624.12289    277742.45   -76755.563    7236.1531   -83991.716    1056.9535 
   17900    290.84671   -820.96815    277403.66   -76704.668    7413.3647   -84118.033    1057.1671 
   17950    289.56975   -439.58738    276660.21   -76747.172    7380.8163   -84127.988    1057.4687 
   18000    288.73725   -46.947283    276264.94    -76747.92     7359.597   -84107.517    1059.6616 
   18050    286.28977    -564.3937    276674.98   -76780.066    7297.2131   -84077.279    1064.8899 
   18100    282.52164    -482.1209    277573.09   -76775.954    7201.1678   -83977.121    1071.7874 
   18150    284.68372   -862.72066    278175.12   -76775.369    7256.2769   -84031.645    1076.1409 
   18200    286.85685   -594.75986    277559.19       -76774    7311.6674   -84085.668     1077.384 
   18250    289.63564   -352.86977    276746.79     -76820.8    7382.4957   -84203.295    1078.5003 
   18300    291.43116   -194.54317    276306.15   -76802.437    7428.2616   -84230.698    1079.0943 
   18350    287.14514   -345.68939    276865.95   -76767.948    7319.0156   -84086.963    1081.2168 
   18400    290.80013   -681.29038    277468.92   -76796.373    7412.1774   -84208.551     1084.562 
   18450    289.09046   -528.17014    277539.06   -76771.871    7368.5997    -84140.47    1088.6534 
   18500    291.32045   -414.45898    277437.42   -76740.496    7425.4398   -84165.936    1089.6978 
   18550    289.45026   -570.41326    277376.09    -76715.56    7377.7706   -84093.331    1091.4614 
   18600     291.1991   -632.76828    277148.41   -76718.187    7422.3468   -84140.533     1093.148 
   18650    290.79104   -377.19757    276770.71   -76692.328    7411.9456   -84104.274    1093.1935 
   18700    292.66513   -397.67268     276798.2   -76629.776    7459.7141    -84089.49     1095.087 
   18750    291.08336   -514.02238    277305.26   -76627.981    7419.3965   -84047.378    1100.1505 
   18800    289.93371   -681.99682    278094.32   -76555.787    7390.0934   -83945.881    1106.3695 
   18850    290.18144   -843.00112    278094.46   -76558.824    7396.4077   -83955.231    1109.3477 
   18900    292.01052    -201.6184    277314.47   -76606.054    7443.0289   -84049.083    1109.6288 
   18950    292.98782   -541.81836    277004.14   -76662.342    7467.9393   -84130.281    1111.7304 
   19000    294.45354   -186.77983    276972.98   -76635.122    7505.2988   -84140.421    1113.9114 
   19050    290.45912   -732.47587    277208.91   -76661.794    7403.4855    -84065.28    1119.1599 
   19100    295.71354   -1002.7879    277404.15   -76644.144    7537.4149   -84181.559     1120.868 
   19150    290.98927   -417.63043    277219.93   -76629.558    7416.9985   -84046.556    1122.9751 
   19200      288.668    -368.0495    277235.68   -76612.202    7357.8318   -83970.034    1125.5753 
   19250    295.62106   -544.15736    277527.08   -76608.312    7535.0576    -84143.37    1129.7124 
   19300    295.49628    -431.9268    277616.89   -76609.668    7531.8771   -84141.545    1132.5472 
   19350    293.04052   -475.07225    277478.67    -76598.39    7469.2825   -84067.672    1134.1757 
   19400    291.38051    -483.4226    277245.59   -76579.581    7426.9708   -84006.552    1138.1728 
   19450    291.12654   -373.77172    277067.07   -76553.046    7420.4971   -83973.544    1140.8206 
   19500    295.28512   -561.00342    277396.46   -76551.965    7526.4948    -84078.46    1144.9714 
   19550    293.86943   -552.74346    277868.12   -76585.256    7490.4106   -84075.666    1148.3792 
   19600    291.53438   -597.96413    278012.85   -76597.426    7430.8926   -84028.319    1151.4909 
   19650    291.96206    -641.0298    277615.38   -76584.517    7441.7938    -84026.31    1151.8356 
   19700    292.57387   -646.16102    277064.63    -76593.22    7457.3881   -84050.608    1153.0154 
   19750    290.96194   -340.75296    276780.52   -76576.248    7416.3019    -83992.55    1155.2335 
   19800    293.28673   -576.35505    277085.43   -76568.445    7475.5581   -84044.003    1159.4372 
   19850    289.82847   -478.20749    277678.25   -76569.755    7387.4109   -83957.166    1164.1684 
   19900    292.56844   -832.40297    278156.19   -76551.244    7457.2497   -84008.494    1167.5671 
   19950    295.25539   -570.13122    277949.18   -76559.099    7525.7372   -84084.837    1169.4409 
   20000    294.19608   -570.91153    277573.47   -76567.877    7498.7366   -84066.614    1170.8452 
   20050    287.47636   -201.56974    277092.85   -76582.314    7327.4582   -83909.772    1172.2057 
   20100    292.27237   -521.16682    276894.54   -76610.331    7449.7031   -84060.034    1173.5333 
   20150    289.96089   -184.87608    276974.49   -76663.862    7390.7862   -84054.649    1175.6586 
   20200    291.86706   -524.03093    277594.61   -76639.609    7439.3723   -84078.981     1179.562 
   20250    284.42452   -711.32265     278041.6   -76631.401    7249.6702   -83881.071    1183.6863 
   20300    291.44117   -516.67532    277569.74   -76634.139    7428.5168   -84062.656    1185.2257 
   20350    293.78237   -151.72403    276995.41   -76607.518    7488.1913   -84095.709    1185.7676 
   20400    290.59794   -635.36263    277170.53    -76598.52    7407.0239   -84005.544    1187.2204 
   20450    290.70308   -554.58637     277550.5   -76610.278    7409.7037   -84019.982    1192.6679 
   20500    292.33277   -701.15537    277648.07   -76633.116    7451.2428   -84084.359    1196.6684 
   20550      298.359   -580.81419    277367.84   -76611.905    7604.8448    -84216.75    1199.7104 
   20600    291.98028   -220.35231    277053.02   -76603.421     7442.258    -84045.68    1201.0844 
   20650    292.63417   -549.89396    277192.75     -76630.8     7458.925   -84089.725    1204.3621 
   20700    287.47829   -512.79921    277406.28   -76643.912    7327.5074   -83971.419    1207.6616 
   20750     293.9614   -554.53275    277592.62   -76601.814    7492.7548   -84094.569    1211.2419 
   20800    294.42256   -221.22849    277376.41   -76636.442    7504.5093   -84140.951    1212.9966 
   20850    290.32947   -398.29761    277333.06   -76604.928    7400.1809   -84005.108    1215.0093 
   20900    290.01677   -378.39674     277410.2   -76608.426    7392.2105   -84000.636    1216.1104 
   20950     289.2794   -676.60556     277686.5   -76642.217    7373.4156   -84015.632    1219.0522 
   21000    294.55665   -540.52689     277722.5   -76613.063    7507.9269    -84120.99    1220.4572 
   21050    293.77106   -676.97102    277648.47   -76626.609    7487.9031   -84114.512    1222.6408 
   21100    292.05906   -581.25118     277476.7   -76633.896    7444.2661   -84078.162    1225.2444 
   21150    290.31697   -288.70485    277285.91   -76625.743    7399.8621   -84025.605    1226.8816 
   21200    296.19733   -664.85383    277434.89   -76600.822     7549.746   -84150.568    1230.2749 
   21250    296.84382   -805.22621    277638.71     -76614.6    7566.2244   -84180.825    1233.1547 
   21300    295.05646   -739.07323    277463.02   -76602.536    7520.6665   -84123.203    1233.8589 
   21350    292.32889   -444.64687    277156.88   -76607.095    7451.1439   -84058.239    1234.8923 
   21400      295.637   -499.52702    277127.08    -76601.29     7535.464   -84136.754    1237.4482 
   21450    293.81995   -144.28804    277131.21   -76548.505    7489.1492   -84037.654    1239.9437 
   21500    295.85219   -589.09354     277492.1    -76550.58    7540.9488   -84091.529    1243.3855 
   21550    289.91228   -389.77782    277971.03   -76527.033    7389.5471    -83916.58    1245.6117 
   21600    297.16282   -687.31322    278191.21   -76513.363    7574.3553   -84087.718     1245.583 
   21650    294.98042   -417.08398     277838.2   -76477.098    7518.7283   -83995.826    1244.8837 
   21700    292.11833   -172.01819    277037.07    -76451.08    7445.7769   -83896.857    1241.8253 
   21750    296.92497   -515.27121    276632.51    -76484.05    7568.2929   -84052.343    1239.5168 
   21800    298.07644   -134.46405    276974.38   -76460.719    7597.6426   -84058.362    1240.7595 
   21850    299.45645   -678.11137     277969.7   -76439.682    7632.8175   -84072.499    1246.2632 
   21900     289.5228   -741.06805    278482.16   -76445.049    7379.6196   -83824.668    1249.8052 
   21950    292.81583   -431.94912     278061.9   -76448.441    7463.5553   -83911.996    1250.5064 
   22000    297.80398   -660.52545    277437.97   -76459.512    7590.6979    -84050.21    1251.5629 
   22050    295.40931   -172.76196    276850.06   -76434.412    7529.6604   -83964.073    1251.9068 
   22100    294.02063   -427.80028    276937.41   -76418.329    7494.2644   -83912.593    1254.7864 
   22150    297.34054   -322.48634     277381.3   -76440.097    7578.8852   -84018.982    1258.9198 
   22200    296.30248   -784.51082    278176.42    -76388.65    7552.4263   -83941.076      1263.97 
   22250    296.18449   -947.31946    278345.38   -76377.739    7549.4188   -83927.158    1268.5171 
   22300    294.68408   -686.90171    277926.64   -76312.003    7511.1751   -83823.178    1268.5514 
   22350    299.82478   -493.54085    277438.28   -76331.611    7642.2059   -83973.817    1266.4328 
   22400    297.16361   -385.80772    277257.17   -76364.637    7574.3755   -83939.012    1269.1485 
   22450      293.115   -246.91758    277425.88   -76358.387     7471.181   -83829.567    1273.4293 
   22500    301.29257   -689.69916    277759.98   -76335.701    7679.6182    -84015.32    1276.5126 
   22550    295.48207   -518.92402    277771.89   -76340.208    7531.5149   -83871.723    1278.2507 
   22600    291.61269   -445.91542    277797.69   -76397.296    7432.8887   -83830.184     1281.202 
   22650     294.8791   -363.05047    277791.47   -76359.633    7516.1459   -83875.779    1283.9968 
   22700    295.53711   -559.47262    277478.83   -76380.805    7532.9178   -83913.723    1284.6469 
   22750    297.72193   -364.35027    277311.21   -76369.289    7588.6065   -83957.895    1286.7145 
   22800    296.26965   -430.04227    277622.25   -76385.347    7551.5896   -83936.937    1289.6609 
   22850    294.69694   -759.07899    277850.65   -76389.295    7511.5028   -83900.798    1292.6451 
   22900     294.9165   -671.04542    277660.99   -76423.839    7517.0993   -83940.939    1294.9699 
   22950    296.82657   -579.23842    277371.03   -76441.871    7565.7847   -84007.656    1296.5395 
   23000    296.18037   -505.71041    277244.14    -76470.49    7549.3139   -84019.804    1298.6211 
   23050    290.98952   -418.65037    277461.13    -76416.28    7417.0049   -83833.285    1300.5855 
   23100    296.83033   -247.11289     277639.9   -76397.583    7565.8806   -83963.463    1304.4746 
   23150    291.99413    -528.2462    277786.66    -76402.46    7442.6112   -83845.071    1307.2015 
   23200    297.53939   -610.74205    277780.89   -76406.117    7583.9538   -83990.071    1310.7114 
   23250    293.66073   -243.42753    277415.86   -76429.479    7485.0909    -83914.57    1313.5564 
   23300    295.40708   -586.44514    277433.59   -76448.541    7529.6035   -83978.144    1316.6911 
   23350    297.61729    -503.5578    277655.43   -76454.589    7585.9393   -84040.528    1319.5833 
   23400    294.81262   -572.61125    277727.92   -76466.297    7514.4514   -83980.748    1321.8379 
   23450    296.07385    -581.1946    277570.44   -76479.048    7546.5987   -84025.646    1322.9387 
   23500    295.31651   -295.81141    277199.26   -76530.523     7527.295   -84057.818    1324.8986 
   23550    296.11251   -390.46671    276975.12   -76531.597    7547.5843   -84079.181     1326.761 
   23600    297.87345   -386.22396    277412.93   -76505.923    7592.4686   -84098.392    1330.7052 
   23650    296.36399    -873.0922    278185.48   -76464.116    7553.9941    -84018.11     1333.795 
   23700    295.54341    -519.8127    278142.45   -76413.408    7533.0783   -83946.486    1334.0343 
   23750     292.4338   -593.52247    277617.58   -76418.771    7453.8178   -83872.589    1335.7535 
   23800    301.67723   -610.79876    277117.69   -76401.201    7689.4227   -84090.624     1337.187 
   23850    293.99861   -319.54741    276976.46   -76419.409    7493.7031   -83913.112    1338.9476 
   23900    296.61271    -454.3471    277285.31   -76430.679    7560.3338   -83991.013    1341.4754 
   23950    290.65757    -605.2573    278044.81   -76471.393    7408.5437   -83879.937    1345.1483 
   24000    293.99065   -712.44237    278291.33   -76490.267    7493.5002   -83983.767    1347.8425 
   24050    289.75368   -488.73556    277762.78   -76445.442    7385.5047   -83830.946    1348.3322 
   24100     294.3207   -138.92833    276910.02   -76409.014    7501.9129   -83910.927    1347.4352 
   24150    292.53924   -666.83433    276798.94   -76430.676    7456.5053   -83887.181    1349.6773 
   24200    294.27693   -204.98023    277142.27   -76457.165    7500.7972   -83957.962    1352.9987 
   24250    290.77009   -488.11119    277862.95   -76477.218    7411.4117    -83888.63    1359.2431 
   24300    292.46491   -683.19943    278374.68   -76443.164    7454.6108   -83897.775    1363.2646 
   24350    296.13416   -599.22687    278061.11   -76461.689    7548.1359   -84009.825    1365.1104 
   24400    300.14101   -381.83818    277565.26   -76434.772    7650.2661   -84085.038    1366.2229 
   24450    296.81217   -333.51188    277371.39   -76510.214    7565.4178   -84075.632    1368.2907 
   24500    292.48394    -350.9122     277540.3   -76517.184    7455.0959    -83972.28    1370.7018 
   24550    294.00181   -638.92397    277764.52    -76486.96    7493.7847   -83980.745     1373.662 
   24600     293.7343   -828.15654    277861.75   -76475.598    7486.9662   -83962.564     1377.101 
   24650    294.95284    -585.3171    277466.57   -76466.777    7518.0253   -83984.802    1380.3861 
   24700    299.34373    -441.7203    277364.25   -76425.781    7629.9445   -84055.725    1381.5227 
   24750    294.76414   -730.86465    277696.06   -76405.226    7513.2157   -83918.442     1384.854 
   24800    296.35014   -435.69716     277839.2   -76337.965     7553.641   -83891.606      1387.53 
   24850    299.88019   -504.17488     277702.8   -76318.474    7643.6183   -83962.092    1389.8551 
   24900    296.70972   -492.06094    277512.55   -76301.654    7562.8064    -83864.46    1393.0821 
   24950    295.58092   -458.13329    277762.65   -76335.436    7534.0346    -83869.47    1396.6951 
   25000    299.56914   -506.95594    278090.37   -76373.094    7635.6898   -84008.783     1399.968 
   25050    290.42203   -703.20437    278094.05   -76386.202      7402.54   -83788.742    1401.9714 
   25100    294.85328   -326.70917    277803.95   -76346.884    7515.4878   -83862.372    1402.9035 
   25150    297.13401   -627.34539    277780.16   -76384.916     7573.621   -83958.538     1405.658 
   25200    294.75014   -453.03608    277499.58   -76404.762    7512.8588    -83917.62    1406.3484 
   25250    293.35812   -336.90335    277456.12   -76455.587    7477.3778   -83932.965    1410.4675 
   25300    300.29792   -440.25744    277596.73   -76503.045    7654.2657   -84157.311    1412.2119 
   25350    287.34219   -551.58006    278008.72    -76542.93    7324.0382   -83866.968    1415.9474 
   25400    297.52336   -1008.4962    278285.03   -76558.517    7583.5452   -84142.062    1418.4201 
   25450    294.70114    -760.9127    277964.23   -76503.517    7511.6099   -84015.127    1419.0152 
   25500    292.55416   -561.00437       277187   -76506.653    7456.8857   -83963.539     1420.836 
   25550    293.97818   -440.52885    276763.93   -76545.438    7493.1825    -84038.62    1422.8345 
   25600    289.61575   -43.459021    276986.98   -76565.692    7381.9888   -83947.681    1427.7889 
   25650    291.03408   -578.50103    277641.26   -76570.331    7418.1405   -83988.472    1432.5479 
   25700    293.97875   -715.79397    278103.09   -76543.342    7493.1968   -84036.539    1438.0054 
   25750    294.09596    -916.9694    278065.96   -76532.125    7496.1846    -84028.31    1439.6571 
   25800    294.43176   -593.15876    277501.35   -76546.908    7504.7436   -84051.652    1440.2258 
   25850    295.47081   -201.52751    276922.19   -76540.715    7531.2278   -84071.943     1439.597 
   25900    297.68021   -414.86312    276976.39   -76491.468    7587.5431   -84079.011    1441.5667 
   25950    297.38593   -505.02577    277590.06   -76522.875    7580.0423   -84102.917    1446.3858 
   26000    292.30526   -704.08899    277928.42   -76496.367    7450.5416   -83946.908    1451.4975 
   26050    289.26698   -613.96997    277686.35   -76577.634    7373.0992   -83950.733    1453.7175 
   26100    291.57872   -263.62514    277298.08   -76621.304    7432.0228   -84053.327    1455.5311 
   26150    292.55747   -171.96968     277162.5   -76619.056    7456.9701   -84076.026    1458.6099 
   26200    290.03852   -339.08046    277263.95   -76608.805    7392.7648   -84001.569    1461.6656 
   26250    291.07489   -711.90492    277434.02   -76597.499    7419.1808    -84016.68    1464.6464 
   26300    295.81756   -555.32377    277465.09   -76626.053    7540.0661   -84166.119    1465.6078 
   26350    298.94169   -704.29484     277179.2   -76644.293    7619.6968    -84263.99    1467.3254 
   26400    285.86894   -233.09136     276672.2   -76643.133    7286.4868    -83929.62    1467.4736 
   26450    292.19868   -414.96226    276885.52   -76601.914    7447.8249   -84049.739    1469.9407 
   26500    290.87646   -838.27557    277608.37   -76599.013    7414.1231   -84013.136    1476.9797 
   26550    292.91147   -575.62819    277919.67   -76584.621    7465.9931   -84050.614    1481.5514 
   26600    291.26971   -313.87236    277810.68   -76592.856    7424.1465   -84017.002    1483.1814 
   26650    297.45185   -635.02038    277567.21   -76582.234    7581.7225   -84163.956    1486.0106 
   26700    293.71408   -313.08592    277001.85   -76555.724    7486.4507   -84042.175     1488.794 
   26750     294.7146    -612.9945    276955.25    -76566.29    7511.9529   -84078.243    1492.0014 
   26800    293.10943   -484.72606    277217.87    -76614.44     7471.039   -84085.479    1497.0198 
   26850    285.91101    -667.4096    277526.83   -76594.553    7287.5591   -83882.112    1499.1176 
   26900    295.27547   -617.82732    277629.95   -76556.164    7526.2489   -84082.413    1501.3271 
   26950    292.37179   -451.41629    277540.22   -76583.854    7452.2374   -84036.091    1502.6219 
   27000    291.43061   -399.13571    277416.92    -76594.85    7428.2477   -84023.097    1504.6257 
   27050    292.19555    -396.1004    277396.15   -76605.936    7447.7451   -84053.681    1508.6788 
   27100    294.43122   -653.14866    277439.04   -76572.092      7504.73   -84076.822    1510.4504 
   27150    291.89807   -621.65596     277573.2    -76596.96    7440.1628   -84037.122    1513.6532 
   27200    293.27888   -404.72351    277442.03   -76581.072    7475.3581    -84056.43    1514.7931 
   27250    291.98824   -552.14442    277314.27   -76565.962     7442.461   -84008.423    1514.7299 
   27300     297.7746    -223.0722     276937.3    -76574.09    7589.9489   -84164.039    1515.4621 
   27350    294.23029   -480.63424    277255.22   -76545.152    7499.6084   -84044.761    1515.9569 
   27400    292.23817   -464.28486    277916.46   -76497.123    7448.8316   -83945.955    1520.8351 
   27450    289.66484   -750.88296    278219.42   -76515.442    7383.2402   -83898.682    1524.3275 
   27500    295.14124   -574.94592     277884.3   -76509.742    7522.8276   -84032.569    1522.6022 
   27550     292.0775   -459.44873    277314.94   -76514.423    7444.7361   -83959.159    1523.0842 
   27600    293.15456   -157.99213    277001.27   -76524.394    7472.1891   -83996.583    1525.8697 
   27650      295.428     -748.751    277468.63   -76544.772    7530.1368   -84074.908    1529.8405 
   27700    287.17006   -569.04736    277707.89   -76551.249    7319.6508     -83870.9    1531.8502 
   27750    293.35338   -557.19232    277546.14   -76518.751     7477.257   -83996.008    1534.8337 
   27800    295.51229   -396.23049    277164.73    -76533.34    7532.2852   -84065.625     1537.774 
   27850    289.75347   -549.21467    277258.69   -76491.388    7385.4993   -83876.888    1540.4381 
   27900    290.74385    -608.8412    277546.98   -76511.093     7410.743   -83921.836    1545.6361 
   27950    293.83753   -599.90962    278000.87   -76523.984    7489.5973   -84013.581    1549.3942 
   28000    295.00853   -583.01366    278002.13   -76527.161    7519.4449   -84046.606    1553.6083 
   28050    294.26276    -550.7327    277738.75   -76514.371     7500.436   -84014.807    1554.0811 
   28100    292.67114   -230.36004    277128.31    -76538.98    7459.8674   -83998.848    1552.9326 
   28150     290.9656   -809.76226    276968.58   -76517.362    7416.3952   -83933.757    1553.5697 
   28200    290.47656   -363.57138    277019.45    -76522.27    7403.9301     -83926.2    1557.0584 
   28250    295.25498   -560.32201    277304.79   -76586.921    7525.7267   -84112.647    1561.3341 
   28300    292.26356   -718.95013    277821.07   -76570.008    7449.4785   -84019.486    1566.0447 
   28350    293.83228   -642.14625    277860.88   -76569.813    7489.4636   -84059.276     1568.668 
   28400    298.88597   -548.64794    277616.01   -76528.829    7618.2766   -84147.106    1569.9881 
   28450    296.72395   -362.64603    277396.82   -76528.381     7563.169    -84091.55    1569.3874 
   28500     292.6209    -580.7943    277413.72   -76534.499    7458.5867   -83993.086    1571.3753 
   28550    295.67042   -444.35524     277405.1   -76559.662    7536.3158   -84095.978    1573.3968 
   28600    291.85351   -664.55046    277541.14   -76544.465    7439.0269   -83983.492    1579.9774 
   28650    293.15914   -757.84771    277307.48   -76561.961     7472.306   -84034.267    1582.1391 
   28700    293.51273   -349.19219    276954.42   -76572.902    7481.3186   -84054.221    1583.2447 
   28750    286.10633   -192.33906    277180.32   -76567.417    7292.5376   -83859.955    1585.5858 
   28800    294.75981   -555.03626    277719.29   -76591.646    7513.1054   -84104.751    1590.9259 
   28850     293.0571   -541.60799    278021.93   -76564.422    7469.7052   -84034.128    1596.1782 
   28900       294.04    -676.4702    277859.53    -76613.54    7494.7582   -84108.299    1598.7015 
   28950    291.38991   -495.33074    277332.37   -76637.408    7427.2103   -84064.619    1600.7414 
   29000    289.68777   -529.17671     276977.8   -76665.022    7383.8245   -84048.846    1600.9875 
   29050    290.14186   -316.64574    276773.39   -76658.069    7395.3988   -84053.468    1604.1521 
   29100    292.85651   -599.81165    277215.57   -76688.677    7464.5922   -84153.269     1608.171 
   29150    290.60887   -651.15676    277987.09   -76673.267    7407.3023   -84080.569     1612.445 
   29200    282.11155   -483.84017    278188.37   -76675.212     7190.715   -83865.927    1617.2259 
   29250     285.0936   -406.69759    277659.08   -76691.235    7266.7243   -83957.959     1616.888 
   29300    288.46674   -279.95125    276905.73   -76717.689    7352.7018   -84070.391    1615.6965 
   29350    290.26407   -380.70344    276849.68   -76709.586    7398.5137     -84108.1    1617.8469 
   29400    291.92342   -411.49306    277394.89   -76683.826    7440.8088   -84124.635    1623.2703 
   29450    291.08012   -396.96783    277943.44    -76650.46     7419.314   -84069.774    1627.5059 
   29500    289.40868    -799.1417    278259.19   -76625.839     7376.711    -84002.55    1630.0057 
   29550    293.14079   -814.65241    277793.19   -76575.781    7471.8384   -84047.619    1632.4083 
   29600     294.2255   -544.08927    276992.92   -76583.105    7499.4862   -84082.591    1631.9946 
   29650    292.38557   -333.59436    276609.24   -76565.469    7452.5885   -84018.057    1631.2693 
   29700    294.54044   -447.30228    276816.11   -76565.466    7507.5138    -84072.98    1635.0209 
   29750    293.94956   -334.33839    277337.26   -76522.177    7492.4528    -84014.63     1641.734 
   29800    298.06784   -638.41689    277964.18   -76492.122    7597.4233   -84089.545    1648.1402 
   29850    292.98798   -803.89929    278409.48   -76448.812    7467.9432   -83916.755    1655.2563 
   29900    292.79788   -451.96528     277935.7   -76456.942    7463.0978   -83920.039      1655.87 
   29950     289.0958   -156.58829    276858.01   -76464.174     7368.736    -83832.91    1655.6887 
   30000    293.88381   -275.42932    276527.62   -76449.305    7490.7769   -83940.082    1657.6394 
   30050    298.62999   -545.74701       277412   -76446.914    7611.7519   -84058.666    1663.2557 
   30100    293.17284   -719.80847    278406.49     -76440.3    7472.6552   -83912.955    1669.4579 
   30150    293.45115   -882.55051    278431.53   -76429.522     7479.749   -83909.271    1672.1613 
   30200    295.06841   -413.98253    277465.12   -76471.028    7520.9712   -83991.999     1672.136 
   30250    294.70805   -59.144882     276648.2   -76497.373     7511.786   -84009.159    1671.4715 
   30300    294.12651   -417.84166    276576.96   -76547.031    7496.9633   -84043.995    1674.4935 
   30350    296.04238   -243.21785    277056.22   -76575.063    7545.7966   -84120.859    1680.4687 
   30400    288.76101   -564.83965    277846.27   -76597.309    7360.2025   -83957.512    1686.3623 
   30450    290.15125   -639.21101    278162.36   -76615.638    7395.6381   -84011.276    1691.2431 
   30500    294.51398   -384.37604    277994.54   -76614.561    7506.8395   -84121.401    1692.6736 
   30550    290.46082   -438.12055    277507.63   -76546.095    7403.5286   -83949.623    1691.8762 
   30600    295.35595   -430.09824    277076.71   -76527.878    7528.3002   -84056.178    1691.5848 
   30650     295.4761   -308.63423    277045.21   -76479.814    7531.3627   -84011.176    1693.7618 
   30700    297.36885   -646.68088     277528.7   -76482.068    7579.6068   -84061.674    1697.1093 
   30750    294.34312   -745.88375    277849.88   -76464.221    7502.4843   -83966.705     1701.488 
   30800    297.63468   -516.80819    277710.34   -76471.015    7586.3826   -84057.398    1704.3236 
   30850    297.67346   -424.23374    277295.35    -76429.47     7587.371   -84016.841    1703.3734 
   30900    290.29977   -306.02998    277224.45   -76405.946    7399.4238   -83805.369    1704.8117 
   30950    293.05659   -677.72794    277737.72   -76443.906    7469.6921   -83913.598     1708.949 
   31000    293.97536   -858.24016    277935.39   -76434.298    7493.1105   -83927.408    1713.8026 
   31050    299.93174   -407.40714    277608.66   -76472.982    7644.9322   -84117.915    1715.1668 
   31100    296.24906   -622.71465    277444.32   -76441.894    7551.0648   -83992.959    1718.6122 
   31150    297.17995   -472.01511    277238.87   -76416.886    7574.7919   -83991.678    1720.2951 
   31200    292.63998   -487.19276    277341.09    -76452.08    7459.0731   -83911.153     1723.867 
   31250    295.76689   -502.70083    277576.71   -76472.963    7538.7747   -84011.738      1727.15 
   31300    293.65611   -541.20007    277720.72   -76466.552    7484.9731   -83951.525    1728.8246 
   31350    294.95122   -686.95245    277573.94   -76482.515     7517.984   -84000.499    1731.3032 
   31400    297.30111    -448.5677    277335.85   -76498.059    7577.8803   -84075.939    1732.9052 
   31450    292.66424   -718.84746     277503.3   -76497.254    7459.6916   -83956.945    1740.2783 
   31500    295.79331   -688.92904    277681.76   -76543.114     7539.448   -84082.562    1747.6247 
   31550    289.66961   -603.12586    277672.45   -76606.593    7383.3618   -83989.955    1750.7847 
   31600    292.60218   -630.71002    277432.98   -76547.832    7458.1098   -84005.942    1752.0455 
   31650    294.46899   -207.12724    276897.34   -76530.439    7505.6927   -84036.132    1752.7393 
   31700    293.90521    -273.9738    276685.51   -76503.324    7491.3226   -83994.647    1753.0475 
   31750    295.24454   -689.60869    277098.91   -76477.682    7525.4606   -84003.143    1759.1701 
   31800    295.03479   -712.84118     277967.8    -76527.66    7520.1141   -84047.774    1766.2261 
   31850    297.63727   -677.57123    278421.58   -76505.648    7586.4487   -84092.097    1773.7315 
   31900    294.97371    -765.7027    277908.63   -76490.819    7518.5575   -84009.377    1774.4134 
   31950    294.72605    -15.89322     277138.4   -76488.253    7512.2449   -84000.498    1772.8086 
   32000    295.06715   -213.01113    277132.09   -76477.985    7520.9392   -83998.924    1776.7134 
   32050    299.93099   -902.43086    277660.82   -76500.844    7644.9131   -84145.757     1781.571 
   32100    290.71139   -490.25499    277796.52   -76508.747    7409.9155   -83918.662    1786.7987 
   32150    292.83136   -604.56362     277482.9   -76555.064    7463.9513   -84019.016    1790.8801 
   32200    294.43422   -25.511582     276899.7   -76571.688    7504.8064   -84076.494     1793.024 
   32250     296.5062   -481.23387    277009.81   -76504.465     7557.619   -84062.084    1796.9047 
   32300      290.435   -455.13421    277580.17   -76493.583    7402.8707   -83896.454    1802.9687 
   32350    292.04133   -875.28082     278080.7   -76532.472    7443.8142   -83976.286    1808.4103 
   32400    295.09106   -431.29416    277609.09   -76575.364    7521.5486   -84096.912    1808.2284 
   32450    300.85214   -378.59847    277060.18   -76539.484    7668.3921   -84207.876    1808.9414 
   32500     294.4801   -545.81645    276847.47    -76516.43    7505.9758   -84022.406    1811.1721 
   32550    293.76077   -501.25085    276892.17   -76506.464     7487.641   -83994.105    1815.5858 
   32600    291.28626   -537.02777    277093.35   -76520.006    7424.5683   -83944.574    1820.6031 
   32650    293.23098   -731.32611     277009.4   -76512.107     7474.137   -83986.244    1823.8203 
   32700    293.16321   -139.95623    276897.79   -76532.229    7472.4098   -84004.639    1826.0287 
   32750    292.88983   -402.18243    277422.89   -76546.048    7465.4415    -84011.49    1830.3747 
   32800     295.7541   -461.65899    277635.43    -76513.47    7538.4488   -84051.918    1835.3235 
   32850    291.55386   -654.15038    277668.83   -76498.346    7431.3892   -83929.735    1839.3113 
   32900    293.27011   -781.46058    277350.68   -76474.668    7475.1345   -83949.802     1841.457 
   32950    296.94911   -390.63894    276929.75     -76499.2    7568.9082   -84068.108    1844.6069 
   33000    298.71167   -524.44977    276975.09   -76513.665     7613.834   -84127.499     1848.039 
   33050    297.32404   -663.95996    277333.02   -76498.783    7578.4647   -84077.248    1850.6893 
   33100    292.22506   -520.59443    277721.17   -76497.401    7448.4973   -83945.898    1855.0463 
   33150    289.43257   -351.07905    278017.48   -76477.737    7377.3198   -83855.056    1859.0865 
   33200    291.27951   -973.57522    278119.69   -76497.096    7424.3962   -83921.492    1861.8881 
   33250    291.43061   -359.71584    277649.31   -76455.793    7428.2477   -83884.041    1862.0908 
   33300    298.28523   -319.54181    277121.45   -76442.742    7602.9643   -84045.706     1862.095 
   33350    297.80851   -284.45053    277062.56   -76443.673    7590.8133   -84034.486    1862.7963 
   33400    290.05498   -362.98438    277346.93    -76443.88    7393.1844   -83837.065    1868.6187 
   33450    290.13995   -573.84009    277818.29    -76416.13    7395.3501    -83811.48    1874.8638 
   33500    297.68614    -477.4308    277909.05   -76376.448    7587.6943   -83964.143    1877.6021 
   33550    298.76246   -569.97083    277767.83   -76318.692    7615.1284   -83933.821    1879.4853 
   33600    299.16034   -293.13184    277422.15   -76336.192    7625.2699   -83961.462    1880.9597 
   33650    298.79867   -265.34106    277392.61   -76332.687    7616.0514   -83948.739    1886.2461 
   33700    294.30239   -541.10607    277728.74   -76335.734    7501.4462    -83837.18    1892.9101 
   33750    296.25146   -613.96414    277884.36   -76378.086    7551.1259   -83929.212    1895.1979 
   33800    296.58288   -529.59349    277736.66   -76411.975    7559.5733   -83971.548    1899.5685 
   33850    292.73841   -218.89193    277433.29   -76454.355     7461.582   -83915.937    1902.6946 
   33900    297.20382   -555.82722    277417.87    -76450.61    7575.4005   -84026.011    1906.9341 
   33950    291.83147   -322.11943    277340.66    -76450.05    7438.4651   -83888.515    1909.6632 
   34000    296.82065    -571.6137    277545.42   -76451.608    7565.6339   -84017.242     1914.295 
   34050    295.64165   -617.46094    277788.53   -76494.512    7535.5824   -84030.095    1920.5431 
   34100    292.15105    -641.4448    277636.05   -76498.414    7446.6108   -83945.025    1921.0143 
   34150    297.37369   -364.15969    277134.13   -76532.146    7579.7304   -84111.876    1920.8475 
   34200    295.31226   -258.83265    276985.56   -76521.657    7527.1866   -84048.844    1921.5821 
   34250    292.30706   -605.68705    277300.51   -76603.427    7450.5873   -84054.014    1926.6803 
   34300    290.76705   -772.34322    277762.68   -76623.389    7411.3343   -84034.723    1929.1464 
   34350     289.7124   -603.03258     277827.1   -76600.436    7384.4523   -83984.888    1932.2269 
   34400    291.31845   -638.24269    277525.02   -76647.726    7425.3889   -84073.115     1933.337 
   34450    290.68232   -556.25115    277007.89   -76622.528    7409.1744   -84031.702    1934.1937 
   34500    294.61487   -233.50978    276563.94   -76664.226    7509.4109   -84173.637    1934.8487 
   34550    295.51936   -233.00296    276675.88   -76625.252    7532.4655   -84157.717     1936.991 
   34600    292.61458   -488.49989    277266.87   -76592.195    7458.4257    -84050.62     1943.685 
   34650    293.60426   -471.91238    277781.65   -76591.971    7483.6516   -84075.622    1945.8124 
   34700    294.18462   -982.91296    277958.89   -76570.111    7498.4443   -84068.556    1947.6405 
   34750    292.03806   -408.69954    277296.99   -76672.346    7443.7309   -84116.077    1946.6549 
   34800    290.84044    -228.5104    276683.51   -76656.007    7413.2049   -84069.212    1945.7818 
   34850    289.72444    26.579154    276609.21   -76687.135    7384.7592   -84071.894    1947.9137 
   34900      290.657   -666.88949    277473.71   -76659.379    7408.5293   -84067.908    1955.4584 
   34950    293.58303   -760.20055    277884.78   -76682.707    7483.1105   -84165.817    1960.1161 
   35000    289.04832    -404.5498    277623.11   -76660.681    7367.5257   -84028.207    1961.5966 
   35050    288.55248    -575.5606    277339.83    -76694.65    7354.8873   -84049.538    1961.5189 
   35100    293.34106   -611.66924    276997.28   -76692.926    7476.9429   -84169.869     1961.219 
   35150    291.59025    -465.1982    276748.66   -76679.325    7432.3167   -84111.642    1963.3404 
   35200    300.32862   -386.55901    276870.32    -76659.04    7655.0483   -84314.088    1968.9457 
   35250    292.01533   -659.99468    277496.19   -76665.644    7443.1515   -84108.796    1975.2306 
   35300     291.8959   -835.29814    277988.26   -76593.773    7440.1074   -84033.881    1977.8243 
   35350    295.74649   -541.58564    277840.81   -76593.848    7538.2548   -84132.103    1981.9652 
   35400    292.36243   -587.05517     277352.1   -76565.447    7451.9988   -84017.446    1983.5853 
   35450    295.46982   -478.65857    276888.38   -76602.321    7531.2026   -84133.523    1984.0029 
   35500    292.00899   -586.79956    276925.45    -76602.41    7442.9898     -84045.4    1986.5376 
   35550    286.21713   -90.273168    277237.48   -76603.154    7295.3617   -83898.516    1991.0396 
   35600    294.44749    -610.9013    277546.01   -76549.561    7505.1447   -84054.706    1993.9545 
   35650     291.5476   -702.00161     277668.9   -76552.625    7431.2296   -83983.855    1995.5231 
   35700    297.62158   -461.92836    277534.25   -76571.522    7586.0486   -84157.571    1998.2776 
   35750    295.07478   -659.45638    277320.64   -76550.212    7521.1335   -84071.346    1999.7915 
   35800    290.65036   -734.40835    277292.08   -76544.895    7408.3599   -83953.255    2002.1569 
   35850    295.54999   -568.38625    277290.66   -76551.886    7533.2462   -84085.132    2004.2029 
   35900    294.12518   -354.99954    277307.02   -76502.009    7496.9294   -83998.938    2006.7387 
   35950    292.05894    -255.5293    277363.84   -76529.162    7444.2632   -83973.425    2011.4414 
   36000    293.67141   -557.10822    277492.76   -76523.384    7485.3631   -84008.747    2013.6233 
   36050    290.00366   -422.16195    277510.55    -76578.93    7391.8762   -83970.806    2014.1441 
   36100    290.34564   -416.07969    277296.85   -76527.514     7400.593   -83928.107    2014.6844 
   36150    294.03015   -344.80341    277099.12   -76544.511     7494.507   -84039.018    2016.6597 
   36200    290.99054   -329.32873    277027.64   -76575.338    7417.0307   -83992.369    2018.9626 
   36250    292.80019   -338.51151    277332.39   -76596.878    7463.1566   -84060.034    2024.3888 
   36300    293.19661   -857.47635    277667.35    -76603.69     7473.261   -84076.951    2028.3862 
   36350    292.04541   -504.50369    277483.56   -76618.031    7443.9182   -84061.949    2030.1247 
   36400    289.67046   -416.68702    277073.59   -76610.369    7383.3834   -83993.753     2032.697 
   36450    297.37612   -418.89225    276967.87   -76562.858    7579.7921    -84142.65    2035.1913 
   36500    298.36348   -326.78128    277190.59   -76502.592     7604.959   -84107.551    2039.6788 
   36550    289.41018   -419.97166    277665.75   -76509.959    7376.7491   -83886.708    2044.6347 
   36600    294.58865   -449.13588    277794.36   -76573.824    7508.7426   -84082.567    2047.6379 
   36650    293.40946   -928.87011    277587.24   -76583.425    7478.6864   -84062.112     2049.397 
   36700    291.75405   -319.30892    276984.58   -76627.458    7436.4917   -84063.949    2049.3995 
   36750    290.81175   -478.05291     276719.5   -76619.685    7412.4737   -84032.159    2049.3181 
   36800    290.58904    -306.4414    276902.85   -76622.001    7406.7969   -84028.798    2053.7541 
   36850     294.5495   -407.78211    277344.57   -76608.505    7507.7447   -84116.249    2058.4242 
   36900    295.71187    -392.8852    277555.55   -76592.095    7537.3723   -84129.467    2063.2553 
   36950    294.48996   -753.16327    277935.57   -76598.002     7506.227   -84104.229    2068.7677 
   37000    290.27323   -656.75309    277969.18   -76607.966    7398.7474   -84006.714    2074.4536 
   37050    295.00919   -538.54279    277409.14   -76606.438    7519.4618     -84125.9     2073.008 
   37100    295.45765    -334.7585    276840.91   -76546.523    7530.8926   -84077.416    2075.0518 
   37150    298.39227   -327.35776    276879.71   -76538.538    7605.6927   -84144.231    2078.4873 
   37200    294.67418   -709.74251     277564.5   -76543.963    7510.9227   -84054.885    2084.5054 
   37250    291.12884   -688.08123    277732.71   -76562.187     7420.556   -83982.743     2086.808 
   37300     292.2981   -195.79685    277199.78   -76599.743     7450.359   -84050.102    2085.8155 
   37350    290.84826   -230.04488    277064.48   -76568.249    7413.4042   -83981.653    2087.7552 
   37400    288.43711   -404.35536    277548.77   -76535.253    7351.9465   -83887.199     2092.313 
   37450     292.3324   -556.82211    277824.81   -76520.856    7451.2333   -83972.089    2098.6175 
   37500    289.44821   -805.40316    277754.96   -76474.136    7377.7185   -83851.854    2101.0826 
   37550    298.68868   -576.50626    277021.23   -76548.664    7613.2479   -84161.911    2099.1605 
   37600    291.18091   -319.73325    276678.09   -76568.728    7421.8831   -83990.611    2101.0404 
   37650    291.99949   -289.29934    276932.97   -76562.551    7442.7477   -84005.298    2104.7616 
[...]
   90850    290.57021   -296.95292    276744.74   -76664.141     7406.317   -84070.458    4820.4751 
   90900    295.11589   -412.08964    276709.72   -76657.737    7522.1815   -84179.918    4823.4717 
   90950    291.34321   -394.98337    277143.38   -76660.476    7426.0198   -84086.496    4832.2796 
   91000    288.12331   -606.77733    277456.91   -76666.357    7343.9482   -84010.305    4840.8206 
   91050    286.77665   -522.67592    277494.77   -76694.052    7309.6233   -84003.675    4838.6215 
   91100    288.73905   -701.27838    277425.77   -76635.513    7359.6427   -83995.156    4837.6102 
   91150     294.3945   -635.75043    277277.59   -76607.032    7503.7941   -84110.826    4838.7971 
   91200     289.8907   -246.94853    277190.95   -76624.917     7388.997   -84013.914    4839.9981 
   91250     295.9581   -498.75842     277308.6   -76591.757    7543.6484   -84135.406    4846.2476 
   91300    296.59098   -741.25563     277417.4   -76602.552    7559.7798   -84162.332    4847.3745 
   91350    288.71433   -352.43287    277427.94   -76609.072    7359.0125   -83968.085    4849.6349 
   91400    289.22251   -514.87225    277534.21    -76637.63    7371.9655   -84009.596    4852.0592 
   91450    289.97552   -355.64651    277432.45   -76590.804    7391.1589   -83981.963    4853.5309 
   91500    293.59221   -770.98724    277371.91   -76648.713    7483.3445   -84132.058    4856.9365 
   91550    295.42321   -749.46932    277386.62   -76614.292    7530.0146   -84144.307    4859.7669 
   91600    289.62537   -826.98285    277419.44   -76624.746    7382.2341    -84006.98    4864.9148 
   91650    294.41173   -407.39188    277079.82   -76603.843    7504.2332   -84108.076    4860.7946 
   91700    296.18824    -467.3625    277153.29   -76618.499    7549.5143   -84168.013     4862.376 
   91750    290.59064    -698.3615    277588.38   -76592.101    7406.8376   -83998.938    4870.1115 
   91800    289.90526   -716.02053    277919.59   -76605.405    7389.3682   -83994.773    4876.4015 
   91850    292.35876   -523.08474    277352.58   -76606.317    7451.9051   -84058.222     4872.572 
   91900    295.85496   -195.27334    276433.74   -76595.618    7541.0195   -84136.637    4864.9032 
   91950    292.83019   -274.01889    276327.12    -76580.27    7463.9215   -84044.191    4869.9436 
   92000    290.12807   -432.32098    277088.39   -76637.859    7395.0472   -84032.906    4883.0886 
   92050    293.40749   -789.79198    277973.18   -76645.643    7478.6361   -84124.279    4891.7375 
   92100     293.7676   -610.72672    277844.64   -76612.507    7487.8149   -84100.322    4893.6405 
   92150    292.40313   -582.31519    277296.49   -76656.442    7453.0362   -84109.478    4891.7177 
   92200    290.01311   -418.16024    276621.79   -76635.706    7392.1171   -84027.823    4886.6798 
   92250    294.15829   -285.81356    276465.74   -76611.847    7497.7733    -84109.62    4886.5726 
   92300    295.12388   -524.98226    277155.26   -76609.869     7522.385   -84132.254    4896.4561 
   92350    290.50455   -470.82908    277906.79   -76561.767    7404.6433    -83966.41     4909.754 
   92400     289.4127   -863.84843    278481.67   -76582.823    7376.8134   -83959.636    4918.3362 
   92450    291.82135   -755.13886    278275.69   -76596.874    7438.2072   -84035.081    4918.3934 
   92500    293.60657   -478.68861    277297.97     -76655.1    7483.7105    -84138.81    4915.4414 
   92550    293.54602   -353.23456    276635.06   -76696.684    7482.1671   -84178.851    4908.8669 
   92600    292.49405   -165.23603    276648.93    -76673.82    7455.3536   -84129.173    4911.4252 
   92650    292.19071   -696.50294    277333.21   -76646.556    7447.6216   -84094.178    4926.5129 
   92700    288.01779    -705.1805    277764.16   -76642.273    7341.2586   -83983.531    4936.4951 
   92750    293.29492   -591.92379    277587.54   -76618.811    7475.7668   -84094.577    4938.4244 
   92800    285.60838   -327.34132    277112.44   -76607.317    7279.8453   -83887.162    4935.7198 
   92850    293.21083   -184.76325    276970.07    -76567.42    7473.6234   -84041.043    4937.2939 
   92900    291.82243   -539.24555    277446.42   -76553.263    7438.2346   -83991.497    4942.9898 
   92950    294.76311   -506.18506    277810.56   -76521.211    7513.1895   -84034.401    4951.1386 
   93000    291.70118   -447.77328     277856.8    -76448.91    7435.1441   -83884.054     4955.166 
   93050    292.73188   -492.19996    277891.27    -76424.05    7461.4155   -83885.465     4959.233 
   93100    291.90649   -521.96373    277795.45    -76456.37    7440.3773   -83896.747    4961.6051 
   93150    296.93441   -519.62255    277351.21   -76493.152    7568.5334   -84061.685    4958.3415 
   93200    290.37163   -298.68406       277134   -76537.042    7401.2554   -83938.297    4950.7539 
   93250    291.34297   -489.18621    277243.03   -76529.212    7426.0137   -83955.226    4954.2773 
   93300    294.68375   -473.99414    277407.59   -76525.185    7511.1666   -84036.352    4957.9091 
   93350    293.40557   -565.15952    277795.55   -76538.468    7478.5871   -84017.056    4963.1106 
   93400    296.05962   -552.89822    277864.73   -76502.063     7546.236   -84048.299    4965.5882 
   93450    294.29678   -644.50451    277590.02   -76507.001    7501.3033   -84008.304    4963.1021 
   93500    293.11251   -453.29112    277414.34   -76536.166    7471.1174   -84007.283    4963.6367 
   93550    296.31244   -351.30402    277334.01   -76499.021    7552.6801   -84051.701    4964.1037 
   93600    293.05941   -490.53821    277484.32   -76484.245     7469.764   -83954.009    4968.1186 
   93650    291.52985   -695.38908    277632.62   -76462.856    7430.7772   -83893.633    4971.9839 
   93700     297.9081   -571.23326    277548.96   -76423.862    7593.3518   -84017.214     4975.569 
   93750    291.27221   -54.909993    277146.43   -76474.353    7424.2101   -83898.563    4971.2903 
   93800    290.77513   -670.44277    277242.07   -76493.951    7411.5402   -83905.491    4973.0209 
   93850    292.64604   -301.31041    277499.76   -76497.878    7459.2277   -83957.105    4978.7546 
   93900    292.63598   -358.24747    277970.38   -76481.117    7458.9711   -83940.089     4989.551 
   93950    297.84819   -525.39886     277903.4   -76490.848    7591.8246   -84082.673    4989.3733 
   94000    294.07898   -412.72557    277450.63   -76540.755    7495.7516   -84036.507    4984.4492 
   94050    294.92753   -353.91118    276967.65   -76612.935    7517.3803   -84130.315    4983.3731 
   94100    290.66227   -486.78888    276957.72   -76620.158    7408.6636   -84028.821    4986.0257 
   94150    292.49609   -150.15658     277137.6   -76656.862    7455.4055   -84112.267    4987.5506 
   94200    292.75658    -594.7663    277647.16   -76620.899    7462.0452   -84082.945     4995.895 
   94250    294.94575    -618.3139    277675.58   -76570.878    7517.8447   -84088.723    4992.0945 
   94300    294.93442   -835.42454    277429.68   -76563.296     7517.556   -84080.852    4987.4427 
   94350    291.09459   -574.00802    276939.48   -76589.197    7419.6829    -84008.88    4982.3691 
   94400    292.42793   -388.40054    276766.91   -76595.252    7453.6682    -84048.92    4982.2361 
   94450    289.61854   -517.89967    277335.62   -76578.393    7382.0599   -83960.453    4990.6385 
   94500    289.59761   -654.41955    277866.58    -76601.46    7381.5265   -83982.986    4999.1052 
   94550    295.34568   -483.81664    277576.89   -76585.306    7528.0385   -84113.345    4994.5409 
   94600    293.32071   -337.77145    276831.93   -76578.952    7476.4243   -84055.377    4988.1561 
   94650    288.07616   -264.88477    276636.55   -76591.835    7342.7465   -83934.582    4985.2807 
   94700    296.88473   -370.20615    277013.02   -76584.242    7567.2673    -84151.51    4990.1109 
   94750    291.75048   -635.20935    277603.09   -76628.889    7436.4008    -84065.29    4998.0042 
   94800    295.28676   -743.86539    277883.77   -76672.003    7526.5366    -84198.54    5005.1114 
   94850    290.43283   -873.86983    277773.35   -76709.425    7402.8153    -84112.24    5007.3567 
   94900    286.98757   -397.73806    277158.08   -76709.656    7314.9994   -84024.655    5002.4812 
   94950    297.21725   -352.04176    276765.54   -76669.952    7575.7428   -84245.694    4998.8331 
   95000    288.68802   -388.50695    276865.04   -76741.536    7358.3421   -84099.878    5004.0025 
   95050    292.51962   -317.11056    277168.97   -76757.857    7456.0054   -84213.862    5014.1041 
   95100    289.61617   -478.48409    277528.96   -76719.477    7381.9994   -84101.477    5019.0066 
   95150    284.58756   -418.55391    277643.95   -76681.006    7253.8259   -83934.832    5022.7511 
   95200    293.45813   -633.05555    277298.99   -76703.553     7479.927    -84183.48    5018.9369 
   95250     289.3363   -645.98146    276954.11   -76721.549    7374.8661   -84096.415    5013.2889 
   95300    291.22099   -374.45192    276822.31   -76755.429    7422.9046   -84178.334     5011.227 
   95350    290.52038   -434.11308    276989.44   -76750.092    7405.0469   -84155.139    5012.4206 
   95400     290.5253   -590.26499    277351.82   -76692.055    7405.1723   -84097.228    5018.5376 
   95450     287.4393   -426.03356    277355.37   -76675.727    7326.5136   -84002.241    5022.8227 
   95500    290.58031   -418.60724    277292.41   -76653.577    7406.5745   -84060.151    5023.8716 
   95550    291.50776   -521.15156    277041.13    -76600.99    7430.2142   -84031.204    5026.1889 
   95600    294.02615   -480.83126    277158.69   -76614.895    7494.4052     -84109.3    5032.5402 
   95650    294.43568   -437.75842    277599.43   -76577.049    7504.8437   -84081.893    5040.3942 
   95700    291.49238   -475.66969    278048.18   -76568.081     7429.822   -83997.903     5046.296 
   95750    296.71409   -839.56907    278000.75   -76563.159    7562.9177   -84126.076    5047.9002 
   95800    293.53688   -368.35936     277420.2   -76555.618    7481.9342   -84037.553    5038.4899 
   95850    296.26169   -482.46553    277050.55   -76551.725    7551.3866   -84103.111    5037.0902 
   95900    296.85413   -519.28714    276903.43   -76565.817    7566.4872   -84132.305     5033.974 
   95950    294.34561   -389.58937    277206.04   -76545.873    7502.5477   -84048.421    5038.3508 
   96000    289.39379   -527.13007    277685.69   -76535.314    7376.3312   -83911.646     5046.028 
   96050    298.65206   -828.82729    277821.47   -76531.817    7612.3146   -84144.131    5050.5132 
   96100    293.55959   -608.65684    277456.86   -76599.256     7482.513   -84081.769     5048.861 
   96150    292.77604   -322.74073     276946.8   -76624.709    7462.5412    -84087.25     5043.471 
   96200    293.86663   -542.22862    277021.75   -76613.877    7490.3392   -84104.217    5047.4048 
   96250    291.81998   -649.24826    277520.42   -76637.926    7438.1723   -84076.099     5059.495 
   96300    286.82439   -709.28152    277716.11   -76602.508    7310.8401   -83913.348    5063.0242 
   96350    292.26778   -530.55329    277436.63   -76620.403    7449.5862   -84069.989    5063.2394 
   96400    293.06034   -323.97808     276952.8   -76650.147    7469.7877   -84119.934    5059.9652 
   96450    293.67058    -286.1869    276932.24   -76614.086     7485.342   -84099.428    5062.1481 
   96500    292.04814   -476.41397    277371.43   -76590.833    7443.9878   -84034.821    5072.7429 
   96550    290.16247   -609.80567    277755.22   -76608.523    7395.9242   -84004.447    5079.3367 
   96600    291.25145   -546.20885    277429.38   -76674.906    7423.6811   -84098.587    5077.2204 
   96650    286.36634   -273.92945    276881.81   -76703.766    7299.1651   -84002.931    5072.4472 
   96700    291.42195   -267.66895    276831.35   -76701.606     7428.027   -84129.633    5077.3837 
   96750    289.42958   -543.74122    277209.55   -76737.266    7377.2437    -84114.51     5082.031 
   96800    287.11386   -648.26433    277558.14   -76750.871    7318.2183   -84069.089    5085.4931 
   96850    288.64478   -662.58775    277586.98   -76743.494    7357.2399   -84100.734    5086.9675 
   96900     285.6806   -403.12612    277288.74   -76721.511    7281.6862   -84003.197    5086.1266 
   96950    291.80443   -546.03413    276938.17   -76718.654    7437.7759    -84156.43    5080.7753 
   97000    292.55524   -460.30041    276630.69    -76643.65    7456.9132   -84100.563    5078.1789 
   97050    294.52066   -453.22481    276778.39   -76642.363    7507.0096   -84149.373    5080.7327 
   97100    297.43386   -609.98884     277398.8   -76644.205     7581.264   -84225.469    5092.9113 
   97150    294.38403   -685.86833    277850.23   -76680.967     7503.527   -84184.494    5100.9589 
   97200     289.9325   -591.80506    277850.28   -76650.045    7390.0624   -84040.108    5106.3859 
   97250    292.41226   -492.00119    277237.69    -76654.59    7453.2687   -84107.859    5103.5663 
   97300    294.84612   -158.63955    276596.87   -76607.461    7515.3052   -84122.766    5099.4356 
   97350    296.42851   -357.46423    276648.44   -76572.406    7555.6387   -84128.045     5102.332 
   97400    292.43679    -464.4752    277144.28   -76546.454    7453.8941   -84000.348    5108.2188 
   97450    291.71496    -248.0206     277594.2   -76534.888    7435.4954   -83970.383    5116.2775 
   97500    293.36798   -542.34254     278006.9   -76543.524     7477.629   -84021.153    5122.8015 
   97550    289.02615    -796.1332     277935.2   -76530.082    7366.9607   -83897.043    5122.2518 
   97600    291.72119   -237.10068    277209.07   -76514.368    7435.6543   -83950.022    5116.0117 
   97650    298.52215    -567.6208    276974.83   -76503.736    7609.0032   -84112.739    5117.0272 
   97700    295.04692    -478.3181    277239.12   -76507.255    7520.4234   -84027.679    5122.5038 
   97750    295.11286   -683.50364    277647.07   -76496.364    7522.1043   -84018.468    5128.9698 
   97800    291.41852   -567.06091    277754.77    -76510.45    7427.9395   -83938.389    5133.8002 
   97850    298.02922   -738.78989    277365.72   -76543.756     7596.439   -84140.195    5126.2069 
   97900    291.51133   -205.62532    277185.59   -76537.905    7430.3051   -83968.211    5125.0622 
   97950    292.09192   -194.83877    277396.39   -76531.257    7445.1037   -83976.361    5128.5262 
   98000     291.8766   -311.17044     277810.4   -76507.879    7439.6155   -83947.495    5135.1229 
   98050    294.95944   -693.90159    278164.42    -76522.85    7518.1937   -84041.044    5139.3555 
   98100    294.59911   -652.75544    277671.77   -76529.267    7509.0092   -84038.276    5133.5945 
   98150    296.93267    -128.8803    276730.25   -76561.972    7568.4892   -84130.462     5121.288 
   98200    296.61484   -220.11764    276710.58   -76530.017    7560.3879   -84090.404    5120.0975 
   98250    296.98239   -463.95853    277433.82   -76470.028    7569.7564   -84039.785    5127.3837 
   98300    293.53749    -730.5231    278193.96   -76459.005    7481.9498   -83940.955     5134.146 
   98350    294.95357   -430.46456    278366.83   -76401.759    7518.0441   -83919.803    5138.2239 
   98400    293.89576   -422.57946    277875.26   -76439.627    7491.0815   -83930.708    5131.8789 
   98450    296.27321   -459.23346    276985.31   -76477.966    7551.6802   -84029.647    5121.3425 
   98500    293.16641   -567.30201    276652.93   -76531.135    7472.4913   -84003.627    5120.3406 
   98550    295.51588   -311.88999    276813.93    -76533.64    7532.3768   -84066.016    5123.0979 
   98600    294.58229     -521.958    277495.42   -76520.652    7508.5805   -84029.233    5127.5011 
   98650    297.51557   -748.55986    278097.15   -76471.906    7583.3465   -84055.252    5137.9084 
   98700    296.74294   -555.27054    278217.97   -76476.216    7563.6532    -84039.87    5141.3511 
   98750     298.1065   -918.78763    277873.73   -76448.977    7598.4087   -84047.386     5138.785 
   98800    295.05388   -336.92272    277226.65   -76465.021    7520.6008   -83985.622    5133.3516 
   98850    297.52866   -185.69306    276874.57   -76493.632    7583.6802   -84077.312    5131.4819 
   98900    295.46429   -501.46987    277274.83   -76500.227    7531.0618   -84031.289    5137.5856 
   98950     298.5386   -737.24157    278039.18   -76478.127    7609.4225    -84087.55    5146.6572 
   99000    296.56957   -837.14143    278251.14   -76475.038     7559.234   -84034.272     5151.845 
   99050    292.30042   -470.36966    277601.89   -76539.341    7450.4181   -83989.759    5145.4083 
   99100    298.65899   -233.14459    276960.79   -76497.679    7612.4912    -84110.17    5138.3235 
   99150    293.15727   -443.52416    276914.95   -76562.797    7472.2584   -84035.056    5140.0514 
   99200    292.64523   -546.67947     276997.3   -76623.864     7459.207   -84083.071    5145.8858 
   99250    285.91704   -323.44495    277098.56   -76648.508    7287.7128   -83936.221    5152.4882 
   99300    294.12089   -378.22469    277377.76   -76676.298    7496.8199   -84173.118    5154.8366 
   99350    289.46369   -456.48329    277529.75    -76719.95     7378.113   -84098.063     5156.126 
   99400    291.24733   -562.17349    277463.85   -76753.838    7423.5762   -84177.415     5159.876 
   99450    289.17797   -471.78798    277164.68   -76742.847    7370.8303   -84113.677    5157.5808 
   99500    290.48983   -760.25696    276972.99   -76737.782    7404.2682    -84142.05    5158.0042 
   99550    289.92074    -266.6678    276793.26   -76764.512    7389.7626   -84154.274     5157.156 
   99600    293.90367   -529.61469       276966   -76777.658    7491.2833   -84268.941    5161.7581 
   99650    292.92769   -605.45537    277226.32   -76716.128    7466.4067   -84182.535    5169.5671 
   99700    290.97553   -567.19926    277404.21   -76703.645    7416.6481   -84120.293    5175.6834 
   99750    291.83981   -581.15221    277255.38   -76679.683    7438.6778   -84118.361    5178.8226 
   99800      296.693   -532.93951    276956.02   -76713.578    7562.3801   -84275.958     5173.186 
   99850    289.62446   -460.13144    276905.29   -76745.338     7382.211   -84127.549    5175.0541 
   99900    293.25729    -510.4873    277145.65   -76719.432    7474.8078    -84194.24    5181.2505 
   99950    293.32872    -574.6754    277399.14   -76702.027    7476.6284   -84178.656    5186.0537 
  100000    291.71948   -494.63577    277304.63   -76711.312    7435.6106   -84146.923    5188.8517 
Loop time of 253.575 on 6 procs for 100000 steps with 8552 atoms

Performance: 340.728 ns/day, 0.070 hours/ns, 394.361 timesteps/s
99.5% CPU use with 6 MPI tasks x no OpenMP threads

MPI task timing breakdown:
Section |  min time  |  avg time  |  max time  |%varavg| %total
---------------------------------------------------------------
Pair    | 72.276     | 130.18     | 199.48     | 459.5 | 51.34
Neigh   | 30.645     | 36.297     | 40.491     |  66.4 | 14.31
Comm    | 7.6107     | 80.921     | 144.32     | 624.3 | 31.91
Output  | 0.1347     | 0.13692    | 0.1444     |   0.9 |  0.05
Modify  | 4.9979     | 5.065      | 5.1324     |   1.9 |  2.00
Other   |            | 0.9732     |            |       |  0.38

Nlocal:        1425.33 ave        1453 max        1400 min
Histogram: 1 1 0 0 1 0 2 0 0 1
Nghost:        2074.67 ave        2093 max        2060 min
Histogram: 1 1 0 2 0 0 0 1 0 1
Neighs:        0.00000 ave           0 max           0 min
Histogram: 6 0 0 0 0 0 0 0 0 0
FullNghs:      39754.0 ave       40120 max       39192 min
Histogram: 1 0 0 1 0 0 2 0 0 2

Total # of neighbors = 238524
Ave neighs/atom = 27.891020
Neighbor list builds = 20816
Dangerous builds = 0

# Create data file for import to other simulations
#
write_data data.${NAME}
write_data data.coexist_293K_-500atm_ML
System init for write_data ...

Total wall time: 0:04:13
