
# Create simulation box of size 50 x 50 x 50 Angstrom
#
lattice	            sc 1
Lattice spacing in x,y,z = 1.0000000 1.0000000 1.0000000
region 	            all block 0 ${X} ${YZ_LO} ${YZ_HI} ${YZ_LO} ${YZ_HI} units box
region 	            all block 0 53.4 ${YZ_LO} ${YZ_HI} ${YZ_LO} ${YZ_HI} units box
region 	            all block 0 53.4 -0.057899546443248795.0 ${YZ_HI} ${YZ_LO} ${YZ_HI} units box
region 	            all block 0 53.4 -0.057899546443248795.0 50.96501954644481.0 ${YZ_LO} ${YZ_HI} units box
region 	            all block 0 53.4 -0.057899546443248795.0 50.96501954644481.0 -0.057899546443248795.0 ${YZ_HI} units box
region 	            all block 0 53.4 -0.057899546443248795.0 50.96501954644481.0 -0.057899546443248795.0 50.96501954644481.0 units box
create_box          1 all
Created orthogonal box = (0.0000000 -0.057899546 -0.057899546) to (53.400000 50.965020 50.965020)
  3 by 1 by 2 MPI processor grid

# fill box with 4175 randomly distributed atoms
#
create_atoms        1 random 4608 63782 all
Created 4608 atoms
  create_atoms CPU = 0.001 seconds
mass                1 18.015

# Define potential
#
pair_style          sw
pair_coeff          * * /data/emrosky-sim/Freezing_Simulations/Melting/MLmW_fancy/ML_mW.sw mW
Reading sw potential file /data/emrosky-sim/Freezing_Simulations/Melting/MLmW_fancy/ML_mW.sw with DATE: 2019-02-27

# Run minimization
#
minimize            1.0e-8 1.0e-8 10000 1000
WARNING: Using 'neigh_modify every 1 delay 0 check yes' setting during minimization (../min.cpp:187)
Neighbor list info ...
  update every 1 steps, delay 0 steps, check yes
  max neighbors/atom: 2000, page size: 100000
  master list distance cutoff = 6.0032907
  ghost atom cutoff = 6.0032907
  binsize = 3.0016454, bins = 18 17 17
  1 neighbor lists, perpetual/occasional/extra = 1 0 0
  (1) pair sw, perpetual
      attributes: full, newton on
      pair build: full/bin/atomonly
      stencil: full/bin/3d
      bin: standard
Per MPI rank memory allocation (min/avg/max) = 4.234 | 4.248 | 4.253 Mbytes
Step Temp E_pair E_mol TotEng Press 
       0            0    7221215.7            0    7221215.7    4937117.2 
     648            0    -49836.37            0    -49836.37   -525.70288 
Loop time of 1.22362 on 6 procs for 648 steps with 4608 atoms

98.8% CPU use with 6 MPI tasks x no OpenMP threads

Minimization stats:
  Stopping criterion = max force evaluations
  Energy initial, next-to-last, final = 
      7221215.70520132  -49836.2196482138  -49836.3699906718
  Force two-norm initial, final = 1.6589645e+08 3.5070701
  Force max component initial, final = 88276514.0 0.96833675
  Final line search alpha, max atom move = 0.071500941 0.069236989
  Iterations, force evaluations = 648 1000

MPI task timing breakdown:
Section |  min time  |  avg time  |  max time  |%varavg| %total
---------------------------------------------------------------
Pair    | 0.96045    | 1.0522     | 1.1385     |   6.0 | 85.99
Neigh   | 0.026111   | 0.027173   | 0.028483   |   0.5 |  2.22
Comm    | 0.036327   | 0.12376    | 0.21613    |  17.6 | 10.11
Output  | 0          | 0          | 0          |   0.0 |  0.00
Modify  | 0          | 0          | 0          |   0.0 |  0.00
Other   |            | 0.02054    |            |       |  1.68

Nlocal:        768.000 ave         796 max         745 min
Histogram: 1 0 2 0 1 0 1 0 0 1
Nghost:        1574.33 ave        1593 max        1558 min
Histogram: 1 0 2 0 1 0 0 0 1 1
Neighs:        0.00000 ave           0 max           0 min
Histogram: 6 0 0 0 0 0 0 0 0 0
FullNghs:      21844.0 ave       23049 max       20903 min
Histogram: 1 0 2 0 0 1 1 0 0 1

Total # of neighbors = 131064
Ave neighs/atom = 28.442708
Neighbor list builds = 26
Dangerous builds = 0

# Add velocity/set timestep
#
velocity            all create ${TEMP} 120598 rot yes dist gaussian
velocity            all create 293 120598 rot yes dist gaussian
timestep            5.0

# Define output
#
compute	            1 all msd
thermo	            100
thermo_style        custom step temp press vol etotal ke pe c_1[4] density

# Neighbor lists
#
neigh_modify        delay 0 every 1 check yes

# Set fixes
#
fix                 1 all momentum 10 linear 1 1 1 rescale
fix                 2 all nve
fix                 3 all temp/csvr ${TEMP} ${TEMP} 500.0 928347
fix                 3 all temp/csvr 293 ${TEMP} 500.0 928347
fix                 3 all temp/csvr 293 293 500.0 928347
fix                 4 all press/berendsen iso ${PRES} ${PRES} 1000.0 modulus 20000
fix                 4 all press/berendsen iso -500 ${PRES} 1000.0 modulus 20000
fix                 4 all press/berendsen iso -500 -500 1000.0 modulus 20000

# Run 0.5 ns equilibration
#
dump                1 all custom 1000 eq.${NAME}.dump id type x y z vx vy vz
dump                1 all custom 1000 eq.liq_293K_-500atm_ML.dump id type x y z vx vy vz
run                 100000
Per MPI rank memory allocation (min/avg/max) = 3.484 | 3.499 | 3.503 Mbytes
Step Temp Press Volume TotEng KinEng PotEng c_1[4] Density 
     648          293    797.36195    139018.26   -45812.721    4023.6494    -49836.37 8.1918895e-34   0.99157127 
     700    170.95714   -586.12433    139858.29   -44821.636    2347.6847   -47169.321   0.28755427   0.98561564 
     800    216.98131   -746.18862    140027.57   -43568.306    2979.7157   -46548.022   0.80083242    0.9844241 
     900      244.505   -317.96403    140328.27   -42824.216    3357.6873   -46181.903    1.4386081   0.98231467 
    1000      258.776   -590.70749    140126.16   -42272.561    3553.6652   -45826.227    2.2141009    0.9837315 
    1100    272.69347   -627.14369     140247.1   -41869.593    3744.7881   -45614.381    3.0679554   0.98288316 
    1200    280.90825   -564.50822    140787.42   -41566.006    3857.5983   -45423.604     3.940888   0.97911103 
    1300    284.30678   -325.04684    140735.69   -41367.543    3904.2689   -45271.812    4.9310943   0.97947094 
    1400    288.34878   -533.62182    140769.99   -41290.967    3959.7762   -45250.743    5.9872742    0.9792323 
    1500    291.46213   -469.04607    141021.97   -41201.224    4002.5305   -45203.754    7.0979644   0.97748258 
    1600    286.45021    -534.0791    140850.67   -41167.638    3933.7039   -45101.341     7.981692   0.97867139 
    1700     291.9872    -520.8518    140393.33   -41155.269    4009.7411    -45165.01    8.7868595   0.98185947 
    1800     288.6139   -394.46188    140400.58   -41167.074     3963.417   -45130.491    9.7294597   0.98180877 
    1900    296.45598   -480.10501    140293.67   -41055.718     4071.109   -45126.827    10.838342   0.98255694 
    2000    291.01922   -499.15121    140164.51   -41069.572    3996.4481    -45066.02    12.085302   0.98346237 
    2100     288.6436   -523.28139    140238.34   -41125.154    3963.8248   -45088.979    13.152929   0.98294456 
    2200    294.73471   -665.22125    140320.98   -41038.432    4047.4715   -45085.903     14.13642   0.98236571 
    2300    289.03397   -363.96237    140720.09   -41009.605    3969.1856   -44978.791    15.274547   0.97957952 
    2400    287.60431   -654.16475    140844.57   -41021.447    3949.5526       -44971    16.604574   0.97871372 
    2500    294.44122   -569.80525    140786.41    -40988.09    4043.4411   -45031.531    17.694782   0.97911808 
    2600    296.13514   -226.37895    140987.65   -40895.396    4066.7031   -44962.099    18.847556   0.97772048 
    2700    290.74741   -451.02473     140879.8   -41019.383    3992.7156   -45012.099    20.358161   0.97846899 
    2800    294.62791   -452.90905    140594.54   -41025.166    4046.0049    -45071.17    21.646608   0.98045427 
    2900    300.44908   -224.97952    141263.67   -40977.211    4125.9447   -45103.155    22.798408   0.97581012 
    3000    293.80276   -356.22915    141234.42   -40977.865    4034.6734   -45012.539    23.846323   0.97601218 
    3100    294.07725   -589.79031    140750.77   -40977.357    4038.4428     -45015.8    24.815322   0.97936596 
    3200    295.63076   -384.20397    140682.68   -40964.974    4059.7766   -45024.751    26.118815   0.97984001 
    3300    295.25892   -516.67171    140587.39   -40947.284    4054.6703   -45001.955    27.327887    0.9805041 
    3400    296.83432   -436.21762     140468.3   -40943.729    4076.3046   -45020.033    28.682988   0.98133541 
    3500    294.39602   -630.53048    140305.11   -40844.439    4042.8203   -44887.259    29.936338   0.98247683 
    3600    293.09429   -673.82556     140162.3   -40900.444    4024.9443   -44925.388    31.220305   0.98347783 
    3700    295.46773   -700.25383    140218.28   -40916.152    4057.5378    -44973.69    32.464759   0.98308524 
    3800    294.89169   -398.46454    140451.38   -40879.726    4049.6272   -44929.353    33.761121   0.98145366 
    3900    282.71386   -740.00128    140639.83   -41046.748    3882.3941   -44929.142    34.906275   0.98013852 
    4000    294.83495   -461.53504    140696.83   -41018.324     4048.848   -45067.172    35.927694   0.97974146 
    4100     295.5547    -551.9932    140445.36    -40969.62    4058.7321   -45028.352    37.159591   0.98149572 
    4200    294.64982   -595.37694    140331.28   -40957.631    4046.3057   -45003.937    38.233516   0.98229358 
    4300    292.26132   -527.26405    140392.13   -40939.492    4013.5054   -44952.997     39.21512   0.98186784 
    4400    297.02273   -490.08774    140468.63   -40928.094    4078.8919   -45006.986    40.230725   0.98133313 
    4500    292.10285   -285.51986       140655   -40886.302    4011.3292   -44897.632    41.476668   0.98003285 
    4600    293.29117   -512.84195    140988.97   -40940.348     4027.648   -44967.996    42.997463   0.97771138 
    4700    289.71749   -609.00362    140369.21   -41029.616     3978.572   -45008.188    44.299787   0.98202819 
    4800    297.84114   -532.79855    140505.35   -40953.457    4090.1309   -45043.588    45.698979   0.98107662 
    4900    289.92873    -486.8526    140631.78   -41016.016    3981.4729   -44997.488    46.516595   0.98019465 
    5000     295.6746    -481.3659     140597.8   -40988.093    4060.3787   -45048.471    47.775741   0.98043155 
    5100    293.34244   -573.76955    140677.46   -41018.678     4028.352    -45047.03    49.122154   0.97987632 
    5200    285.36275   -565.03399    140301.09   -41117.736    3918.7702   -45036.506    49.859285   0.98250496 
    5300    292.72257   -391.13101    140394.22   -41042.953    4019.8396   -45062.793    50.950093    0.9818532 
    5400    298.53736   -639.85831     140231.8   -40942.522    4099.6917   -45042.213    51.756743   0.98299045 
    5500    293.72736   -462.95719    140330.93   -40930.032     4033.638    -44963.67    53.028954   0.98229603 
    5600    291.15718   -393.46442    140319.28   -40872.365    3998.3427   -44870.708     54.09407   0.98237761 
    5700    299.38038   -515.04523    140505.99   -40919.461    4111.2686    -45030.73    55.285457    0.9810722 
    5800    295.68938   -477.88925    140631.85   -40854.545    4060.5815   -44915.126    56.762578   0.98019414 
    5900    287.72489   -724.94164    140544.99   -41049.042    3951.2086   -45000.251    57.980424   0.98079994 
    6000    287.20149     -663.124    140468.56   -41104.839    3944.0208    -45048.86     59.06417   0.98133361 
    6100    290.60944     -567.639    140448.04   -41023.901    3990.8208   -45014.721    60.055617   0.98147695 
    6200    288.72594   -719.13928    140657.67   -41104.126    3964.9555   -45069.081    61.218691    0.9800142 
    6300    294.44973   -378.68883    140715.58    -41037.92     4043.558   -45081.478    62.351569    0.9796109 
    6400    290.38049   -663.12743    140363.74   -41025.013    3987.6767    -45012.69    63.240476   0.98206646 
    6500    288.62264   -495.98743    140241.19   -41064.611    3963.5369   -45028.148    63.861071    0.9829246 
    6600    289.11486    -312.9185    140143.99   -41090.828    3970.2963   -45061.125     65.09565   0.98360631 
    6700    287.85262   -218.02588    140701.84   -41143.437    3952.9626   -45096.399    66.211428   0.97970655 
    6800    286.79365   -633.34184    140926.84   -41107.927    3938.4202   -45046.347    67.516205   0.97814237 
    6900    294.99098     -541.284    140893.58   -41016.965    4050.9907   -45067.955    68.438162   0.97837328 
    7000    292.44178   -601.46265     140849.7   -41003.312    4015.9836   -45019.295    69.793774   0.97867813 
    7100    294.00563   -634.37718    140384.21   -41099.439    4037.4593   -45136.899    71.140219   0.98192323 
    7200    286.36188   -556.28943    140400.37   -41141.747    3932.4909   -45074.238    72.899313   0.98181024 
    7300    292.72696   -454.39139    140485.25   -41099.026    4019.8999   -45118.926    74.273556   0.98121698 
    7400    293.35678   -543.19637    140374.21   -41139.907     4028.549   -45168.456    75.967954   0.98199317 
    7500    291.42141   -468.04609     140103.5   -41070.866    4001.9712   -45072.837    77.394875   0.98389061 
    7600    292.78563   -654.11813    140367.93   -41070.548    4020.7056   -45091.253    79.514638   0.98203708 
    7700    289.47397   -441.00701     140299.4   -41080.411    3975.2279   -45055.639    80.389775   0.98251681 
    7800    290.13046   -500.27861    140245.57   -41077.339    3984.2432   -45061.582    81.537566   0.98289392 
    7900    287.42277   -454.41902    140123.93   -41188.278    3947.0595   -45135.338    82.778347   0.98374714 
    8000    290.78699    -478.2643    140073.96   -41102.582    3993.2591   -45095.841    83.877202   0.98409808 
    8100    292.29313   -456.33515    140188.08   -40998.517    4013.9423   -45012.459    84.592863   0.98329698 
    8200    296.11804   -777.83263    140078.84   -41033.492    4066.4681    -45099.96    85.610644   0.98406381 
    8300    292.17508   -662.85672     139919.4   -40974.186    4012.3211   -44986.507    86.515509   0.98518513 
    8400    292.36994   -584.75679    139887.19   -41030.301     4014.997   -45045.298    87.567265   0.98541202 
    8500    292.87926   -617.04946    139812.58   -41058.256    4021.9914   -45080.247    88.437805   0.98593789 
    8600    291.31563    -432.1311    140025.82   -41001.889    4000.5187   -45002.408     89.41481   0.98443642 
    8700    293.42766     -299.093     139962.8   -40943.394    4029.5224   -44972.917    90.338183   0.98487964 
    8800    294.66759   -379.04117    140061.32   -40927.123    4046.5498   -44973.672    91.646324    0.9841869 
    8900     290.7161   -586.24895    140439.33   -40916.433    3992.2856   -44908.718    93.100724   0.98153782 
    9000    297.14013   -766.99526    140232.86    -40819.52    4080.5042   -44900.024    94.276384   0.98298299 
    9100    299.25255   -541.77512    140192.98   -40898.257    4109.5131    -45007.77    95.864404   0.98326262 
    9200    290.16859   -424.91147    140361.75   -40958.636    3984.7668   -44943.403    97.372259   0.98208036 
    9300     293.6771   -389.77249    140220.01   -40864.662    4032.9477    -44897.61    98.421642   0.98307306 
    9400    291.34715   -544.24363    140371.81   -40923.399    4000.9515   -44924.351    99.954107   0.98200997 
    9500    294.01651    -471.7623    140297.89   -40973.798    4037.6088   -45011.407    101.06671   0.98252737 
    9600    290.33906   -378.78474    140605.97   -40998.373    3987.1079   -44985.481    102.85242   0.98037454 
    9700    291.96871   -561.87971    140731.24   -40930.526    4009.4871   -44940.013    104.44756   0.97950189 
    9800    292.84955   -535.75073    140540.15   -40897.676    4021.5833   -44919.259    105.78911   0.98083373 
    9900    294.95792   -327.37734     140683.9   -40927.682    4050.5368   -44978.219    107.17368    0.9798315 
   10000    293.11472   -339.92051    140691.93   -41031.269    4025.2248   -45056.493    108.58577   0.97977559 
   10100    292.69548    -441.5376    140715.15   -41031.044    4019.4675   -45050.511    109.50858   0.97961392 
   10200    292.34617   -633.17975    140388.95   -41077.886    4014.6707   -45092.557    110.83351   0.98189009 
   10300    295.32854   -619.14095    140494.21   -41006.363    4055.6263   -45061.989    112.07482   0.98115443 
   10400    292.05975   -517.92015    140420.97   -40927.394    4010.7374   -44938.131    113.33822   0.98166617 
   10500    290.09153   -419.98561    140510.39   -40910.815    3983.7086   -44894.523    114.73546   0.98104142 
   10600    296.76714   -560.89773    140421.47   -40923.473     4075.382   -44998.855    115.66184   0.98166266 
   10700    292.92903   -613.79945    140775.56   -40941.937    4022.6748   -44964.612    117.00967   0.97919356 
   10800    300.27399   -443.09989     140689.8    -40878.66    4123.5401     -45002.2    118.22056   0.97979038 
   10900    295.96541    -670.1796    140614.46   -40880.688    4064.3722    -44945.06    119.62563   0.98031536 
   11000    292.98714   -513.65022       140500    -40810.27    4023.4729   -44833.743    120.70084     0.981114 
   11100    297.95575   -474.72935    140317.73   -40878.514    4091.7048   -44970.218    121.48839   0.98238848 
   11200    302.11911   -532.74697    140387.14   -40864.402    4148.8784    -45013.28    122.63386   0.98190273 
   11300    294.13324   -461.81536    140517.54   -40921.685    4039.2117   -44960.897    123.42784   0.98099156 
   11400     293.0765   -502.05097    140328.31   -40998.925       4024.7   -45023.625    124.80082   0.98231437 
   11500    287.10585   -646.93861    140157.96   -41115.932    3942.7074    -45058.64    126.07681   0.98350832 
   11600    287.80308   -774.37671    140222.19    -41147.61    3952.2822   -45099.893    127.38486   0.98305778 
   11700    289.94405   -580.54451    140384.83   -41076.456    3981.6833    -45058.14     128.8294   0.98191889 
   11800    292.61332   -481.65401    140453.14   -41079.614    4018.3394   -45097.953    130.05642   0.98144136 
   11900    288.88587   -371.88508    140403.31   -41151.039    3967.1517    -45118.19    130.64057   0.98178966 
   12000    291.94895   -365.81754    140398.52   -41094.312    4009.2157   -45103.528    131.97969   0.98182316 
   12100    292.84526   -401.75356    140527.02   -41018.593    4021.5244   -45040.118    133.39127   0.98092534 
   12200    296.63009   -439.12092    140461.49   -40861.043    4073.4999   -44934.543    134.78396     0.981383 
   12300    298.63998   -530.20495    140516.75   -40834.345     4101.101   -44935.446     135.7867   0.98099706 
   12400    301.10254   -587.98834    140222.95   -40842.352    4134.9183    -44977.27    136.48723   0.98305244 
   12500    296.26007   -488.43365    140478.67   -40913.935    4068.4187   -44982.354    137.43521   0.98126297 
   12600    297.46084   -698.55846    140451.97   -40909.853    4084.9084   -44994.761    138.70759   0.98144951 
   12700    296.69498   -484.20696    140680.83    -40934.57     4074.391   -45008.961    140.47667   0.97985286 
   12800    290.49732   -374.45468    140497.96   -40957.752    3989.2812   -44947.033    141.54949   0.98112827 
   12900    286.93359   -201.42458    140419.33   -40991.182    3940.3418   -44931.524    142.60596   0.98167761 
   13000    287.87396   -444.86168    140463.08   -41014.016    3953.2557   -44967.272    143.54173   0.98137191 
   13100    292.81788    -557.1683    140308.57   -40992.199    4021.1485   -45013.347    144.52386   0.98245261 
   13200    296.45327   -540.14935    140104.08   -40894.309    4071.0717    -44965.38    145.36407   0.98388652 
   13300    295.93505     -631.423     140027.9   -40910.445    4063.9553     -44974.4    146.56934   0.98442182 
   13400    291.18697   -230.92095    140690.56   -40919.822    3998.7519   -44918.573    147.96927    0.9797851 
   13500    297.10403   -594.12972    140749.75   -40943.682    4080.0084    -45023.69    149.27852   0.97937305 
   13600    295.61449   -471.38843    140902.61   -40985.757    4059.5531    -45045.31    150.48635   0.97831059 
   13700    288.05831   -329.83234     140771.8    -41015.81    3955.7872   -44971.597    151.22625   0.97921965 
   13800    292.04102   -385.06802    140454.45   -41087.474    4010.4802   -45097.955    151.64436   0.98143218 
   13900    294.86514   -460.97341    140465.62   -41058.803    4049.2626   -45108.066    152.69143   0.98135414 
   14000     289.5693   -396.29981    140448.21   -41166.143     3976.537    -45142.68    153.46239   0.98147575 
   14100    288.77908   -352.73449     140388.9   -41073.579    3965.6853   -45039.264    154.27371   0.98189041 
   14200    290.63087   -684.14725    140404.83   -41086.263    3991.1151   -45077.378    155.06737   0.98177903 
   14300    286.74049    -572.2507    140233.66   -41122.319    3937.6901   -45060.009    156.36007   0.98297741 
   14400     293.6668   -590.95195       140025   -41021.288    4032.8064   -45054.095    157.47134   0.98444215 
   14500    290.61863   -511.81674    140096.66   -41086.278    3990.9471   -45077.225    159.03985   0.98393862 
   14600     294.5809   -754.65172    140123.52   -40932.617    4045.3593   -44977.976    160.23607   0.98375006 
   14700    296.18153   -477.46676    139979.54   -40987.322    4067.3401   -45054.662    161.34986   0.98476188 
   14800    293.06128   -630.08306    139942.87   -41008.009    4024.4909   -45032.499    162.95913   0.98501991 
   14900    293.58659   -388.46582    140053.43   -40972.877    4031.7049   -45004.582    164.53922   0.98424234 
   15000    297.02081   -710.18501    140209.57   -41089.604    4078.8655    -45168.47    165.53953    0.9831463 
   15100    291.18519   -444.67286    139783.56   -41077.429    3998.7274   -45076.156    165.94939   0.98614253 
   15200    291.10232   -614.46787    139857.87   -41142.249    3997.5893   -45139.839    166.95769   0.98561859 
   15300    292.21427   -631.66493     139640.1   -41081.985    4012.8593   -45094.844    167.77841   0.98715567 
   15400    293.63866   -625.05619    139849.25   -40987.914    4032.4199   -45020.334    168.86399   0.98567932 
   15500    296.64093     -495.272    139983.83   -41045.715    4073.6488   -45119.364    170.11104    0.9847317 
   15600    290.29076   -670.70833    140210.79   -41060.488    3986.4445   -45046.933    171.71296   0.98313773 
   15700    292.32078   -293.61149    140193.17   -41033.366    4014.3219   -45047.688    172.64554   0.98326126 
   15800    295.30933   -492.59506    140583.21   -40999.622    4055.3625   -45054.985    174.20505   0.98053326 
   15900    293.12671   -403.36877    140429.53   -40987.357    4025.3895   -45012.746    175.09602   0.98160635 
   16000    290.09911   -497.70361    140387.46   -41011.579    3983.8127   -44995.392    176.70661   0.98190051 
   16100     293.3793   -421.25489    140612.35   -40991.981    4028.8582   -45020.839    177.71137   0.98033006 
   16200    295.15952   -616.61444    140504.33   -40835.496    4053.3052   -44888.801    179.15203   0.98108377 
   16300    298.34269   -542.11964    140304.01   -40787.078    4097.0185   -44884.097    180.31739   0.98248453 
   16400    292.67455   -505.32936    140314.18   -40810.597    4019.1802   -44829.777    181.30597   0.98241329 
   16500    293.50128   -627.42685    140330.21   -40831.601    4030.5333   -44862.135    182.88401   0.98230109 
   16600    296.99288    -745.5144     140189.1   -40865.307    4078.4821   -44943.789    184.08922   0.98328984 
   16700    294.57025   -764.05842    139960.45    -40969.52     4045.213   -45014.733    185.16641   0.98489621 
   16800    293.79751   -385.85694    139960.47   -40892.465    4034.6013   -44927.066    186.38791   0.98489609 
   16900    295.06064   -441.82497    140030.26   -40963.845    4051.9474   -45015.793    188.00588   0.98440524 
   17000    291.35554   -327.74084    139847.69   -40941.144    4001.0667   -44942.211    188.81991   0.98569035 
   17100    295.99031   -428.70833    140003.52   -40921.751    4064.7141   -44986.465    189.88178   0.98459325 
   17200    296.54915   -285.43025    139984.41   -40929.234    4072.3884   -45001.623    190.89877   0.98472762 
   17300    291.24966   -615.57869     140147.6   -40936.868    3999.6128   -44936.481    192.42017   0.98358098 
   17400    290.52931   -315.47875    139976.24   -40934.935    3989.7205   -44924.656    193.38019    0.9847851 
   17500    294.88071   -765.14393    140004.63    -40948.87    4049.4765   -44998.346    194.77019   0.98458539 
   17600    290.33773   -331.77925    140079.65   -40956.698    3987.0896   -44943.788    195.44824    0.9840581 
   17700    296.29765   -734.16123    139969.44    -40941.42    4068.9347   -45010.355    196.19914   0.98483296 
   17800    293.59489   -490.02544    139757.08   -40993.538    4031.8188   -45025.357    198.04224   0.98632938 
   17900    293.69475   -366.71916    139758.98   -41060.108    4033.1901   -45093.298    199.02352   0.98631596 
   18000    286.87586   -451.56197    139930.25   -41152.236    3939.5491   -45091.786    200.24818   0.98510877 
   18100    288.98263   -410.59828    140258.14   -41079.865    3968.4805   -45048.346    201.21169   0.98280582 
   18200    292.95525   -594.89895    140638.13   -41034.429     4023.035   -45057.464    202.29231   0.98015035 
   18300     291.3875   -506.53044    140304.86   -41060.668    4001.5056   -45062.173    203.07606   0.98247854 
   18400    293.56996   -707.58001    140431.91    -41116.98    4031.4765   -45148.456    204.21058   0.98158967 
   18500      292.057   -304.41959    140565.35   -41041.293    4010.6996   -45051.993    205.33777   0.98065788 
   18600    295.33569   -419.64248     140813.4    -41038.15    4055.7245   -45093.874    206.33016    0.9789304 
   18700    299.38124    -638.4349    140848.07   -40916.844    4111.2805   -45028.125    207.77313   0.97868945 
   18800    292.37799   -489.78012    140833.58   -40981.991    4015.1076   -44997.098     208.6617   0.97879011 
   18900    285.27762   -667.44997    140783.37   -40989.528    3917.6012    -44907.13    209.78616    0.9791392 
   19000     292.9878    -673.3003    140487.23   -40959.491    4023.4818   -44982.973    210.39027   0.98120318 
   19100    292.04124   -354.88162     140177.9   -40993.426    4010.4832   -45003.909    211.19617   0.98336838 
   19200     294.9509   -372.18219    140247.02   -40962.977    4050.4404   -45013.418    212.34494   0.98288372 
   19300    291.89671   -524.51069    140399.83   -40926.685    4008.4984   -44935.183    212.75879   0.98181396 
   19400    294.58945   -517.17105    140260.09   -41008.233    4045.4766    -45053.71     213.7475   0.98279215 
   19500      293.947   -255.79122    140445.96   -40974.231    4036.6542   -45010.885    214.79414   0.98149151 
   19600    298.19458   -520.07617    140686.87   -40975.023    4094.9844   -45070.008    216.35119   0.97981079 
   19700    295.99857   -574.56101    140944.84   -40964.337    4064.8276   -45029.165    217.09013   0.97801747 
   19800    291.46059   -394.27296    140598.15   -40944.897    4002.5094   -44947.406    217.87921   0.98042911 
   19900     294.1499   -709.32354    140467.95   -40929.953    4039.4406   -44969.393    219.45022   0.98133785 
   20000    295.15065    -572.4305    140636.08   -40897.119    4053.1834   -44950.303    220.88535   0.98016464 
   20100    297.69507   -515.89353    140298.01   -40916.223    4088.1249   -45004.348    222.00733   0.98252655 
   20200    291.11414   -568.80059    140385.94   -40856.309    3997.7517   -44854.061    222.89826   0.98191115 
   20300    291.92236   -519.25928    140434.54   -40800.579    4008.8507   -44809.429    223.60884   0.98157135 
   20400    291.43381   -510.57228    140159.18   -40842.026    4002.1416   -44844.167    225.12789   0.98349976 
   20500    298.81823   -646.04609     140202.2   -40756.426    4103.5488   -44859.974    226.39024   0.98319794 
   20600    292.76232   -545.21444    140075.18   -40829.572    4020.3854   -44849.957    227.79235   0.98408952 
   20700    296.67332    -761.0348     140206.2    -40964.38    4074.0936   -45038.473     229.4957   0.98316991 
   20800    290.72517   -828.61441    140195.56   -40974.081    3992.4101   -44966.492    230.41489   0.98324453 
   20900     292.8154   -568.36223    140026.78   -40871.621    4021.1144   -44892.735    231.96563   0.98442969 
   21000      296.212    -730.3909    140257.61   -40834.129    4067.7585   -44901.888    233.60527   0.98280957 
   21100    293.43117   -467.63659    140260.98    -40936.44    4029.5705    -44966.01    235.75972   0.98278591 
   21200    291.85458     -436.819    140566.58   -41010.346    4007.9199   -45018.266    237.58671   0.98064931 
   21300    291.52457   -410.61874    140335.51   -41054.811     4003.388   -45058.199    238.61425   0.98226398 
   21400    300.27689   -512.80298    140583.57   -40938.195      4123.58   -45061.776    239.47751   0.98053076 
   21500    294.55062   -461.77902    140844.53   -40893.181    4044.9435   -44938.124    241.47407   0.97871399 
   21600     296.6301   -651.82471    140842.42   -40959.553    4073.5001   -45033.053    242.03827   0.97872869 
   21700    297.10442   -615.31362    140485.09   -40945.348    4080.0138   -45025.361    243.10947   0.98121812 
   21800    294.98858   -446.59111     140802.4   -40868.758    4050.9578   -44919.715    244.44301   0.97900685 
   21900    294.15936   -586.06975     140882.9   -40842.891    4039.5704   -44882.461    245.42772   0.97844745 
   22000    291.62785   -650.57432    140552.12   -40936.515    4004.8062   -44941.321     245.9413   0.98075016 
   22100    292.87368   -395.59522    140699.27   -40897.779    4021.9147   -44919.693    246.88711   0.97972449 
   22200    296.28722    -572.9643    141117.99   -40862.286    4068.7914   -44931.078    248.30742   0.97681744 
   22300    293.38989   -487.60659    141069.42   -40890.924    4029.0037   -44919.927    249.43689   0.97715375 
   22400    299.74387   -650.33477    140834.03   -40953.908    4116.2603   -45070.168    249.89396   0.97878696 
   22500    290.49535   -788.96539    140750.72   -40971.136    3989.2541   -44960.391    251.21557   0.97936633 
   22600    292.61576   -633.10876    140399.87   -40999.661    4018.3728   -45018.034    251.63821   0.98181371 
   22700    294.01978   -486.02443    140509.06   -40959.775    4037.6537   -44997.428     253.0455   0.98105074 
   22800    290.09388   -582.02094    140222.17   -41093.091    3983.7408   -45076.832    253.62221   0.98305794 
   22900    291.26795   -416.89744    140443.26   -41054.106    3999.8639    -45053.97    255.31046   0.98151036 
   23000    291.81382   -518.79644    140298.11   -40939.417    4007.3601   -44946.777    256.26499   0.98252581 
   23100     294.6747    -607.0004    140234.84   -40944.622    4046.6473   -44991.269    258.22303   0.98296915 
   23200    291.02316   -883.48186    140047.03   -40947.908    3996.5023    -44944.41    259.53325    0.9842873 
   23300    290.16316   -603.64786    140295.27   -41046.763    3984.6922   -45031.455    260.97504   0.98254574 
   23400    295.90098   -225.97275    140469.87   -40956.554    4063.4873   -45020.041    262.68296   0.98132447 
   23500     289.6986   -521.52419    140218.89   -40983.635    3978.3127   -44961.948    262.98855   0.98308093 
   23600    287.10004   -556.87058    139980.03   -41004.945    3942.6277   -44947.573    263.83775   0.98475842 
   23700    290.40816   -514.49211    140121.14   -41017.814    3988.0568   -45005.871    264.97437   0.98376672 
   23800    295.01631   -510.09747    140106.84   -40941.995    4051.3385   -44993.334    266.12327   0.98386712 
   23900    293.29017   -552.23286    140053.08   -40911.666    4027.6342     -44939.3     267.6834   0.98424479 
   24000    292.14253   -622.12918    139835.94   -40896.151    4011.8741   -44908.025    268.31325   0.98577314 
   24100    294.86772   -383.91305    139991.71   -40894.025     4049.298   -44943.323    269.89986   0.98467629 
   24200     301.8363   -769.72519    140274.39    -40796.71    4144.9947   -44941.705    271.41728   0.98269198 
   24300    294.48198   -164.79508    139806.26   -40892.576    4044.0009   -44936.576    272.47545   0.98598246 
   24400     296.6884   -421.18207       140206   -40840.344    4074.3007   -44914.644    274.84782   0.98317128 
   24500    291.72055   -618.50495    140236.67   -40924.488    4006.0793   -44930.567    276.33642   0.98295626 
   24600    290.05198   -264.44231    140020.73   -40893.987    3983.1655   -44877.153    277.35737   0.98447217 
   24700    291.92795   -710.19017    139972.49   -40880.056    4008.9273   -44888.983    278.40641   0.98481149 
   24800    292.40889   -464.01477    139614.36   -40897.585    4015.5319   -44913.117    279.25924   0.98733766 
   24900    295.19112   -544.06517     139699.4   -40951.641    4053.7392    -45005.38    280.21647   0.98673663 
   25000    295.00876   -346.88005    139649.22   -40981.746    4051.2349   -45032.981    281.95862   0.98709119 
   25100    291.48287   -437.52662    140127.96   -41026.566    4002.8153   -45029.381    283.08219   0.98371889 
   25200    287.75292   -202.51919    140211.43   -41052.726    3951.5934   -45004.319     284.4371   0.98313321 
   25300    286.79072   -628.48925    140471.29   -41111.424    3938.3799   -45049.804    285.84884   0.98131451 
   25400    294.46927   -601.42607     140315.3   -41013.462    4043.8263   -45057.288    287.14748   0.98240549 
   25500     289.4209    -427.4893    139933.86   -41092.369    3974.4991   -45066.868    287.88339   0.98508338 
   25600    290.34941   -528.20498    140148.47   -41118.881      3987.25   -45106.131    289.10603    0.9835749 
   25700    290.18406    -608.1186    140334.95   -41094.652    3984.9792   -45079.631    290.27136   0.98226787 
   25800    282.09737   -622.49878    140304.16    -41201.18    3873.9281   -45075.108    291.25297   0.98248348 
   25900    292.06138   -331.26503     140129.3   -41204.684    4010.7598   -45215.444     292.3249   0.98370944 
   26000    292.89173   -624.98812    140139.43   -41055.258    4022.1626   -45077.421     294.2874   0.98363832 
   26100     288.3575   -696.11738    140255.33   -41086.618    3959.8959   -45046.514     295.8852   0.98282551 
   26200    298.60318   -729.75732    140200.84   -40945.334    4100.5956    -45045.93    296.56761    0.9832075 
   26300     289.2748    -360.3303    140590.34   -41003.059    3972.4927   -44975.552    298.40148   0.98048359 
   26400    294.15246   -496.54474    140349.58   -40951.024    4039.4757     -44990.5    299.21121   0.98216553 
   26500    299.63419   -541.86275    139970.53   -40839.205     4114.754   -44953.959    300.20898   0.98482531 
   26600    290.13045   -425.85406    139982.49   -40950.209    3984.2431   -44934.452    301.62542   0.98474115 
   26700    294.79793   -449.36558    140470.57   -40889.549    4048.3397   -44937.889    303.72024   0.98131953 
   26800    290.44238   -605.57043    140045.82   -40968.273    3988.5267     -44956.8    304.35511   0.98429581 
   26900     289.4626    -822.0692    139992.38   -41070.418    3975.0718    -45045.49    305.15583   0.98467155 
   27000    287.01852   -598.80082    140258.37   -41072.261    3941.5082   -45013.769    307.72265   0.98280423 
   27100    293.54873   -183.83707    140578.75    -40954.96    4031.1849   -44986.145    309.12571   0.98056437 
   27200    293.15846   -274.24264    140415.35   -40892.897    4025.8255   -44918.723    310.65578   0.98170544 
   27300    290.12795   -276.86169    140469.49   -40837.631    3984.2087    -44821.84    312.09243   0.98132706 
   27400    298.15724   -539.16574     140401.9   -40893.996    4094.4717   -44988.468    314.10106   0.98179953 
   27500    290.28554   -540.15983    140207.55   -40936.292    3986.3729   -44922.665    315.43494   0.98316045 
   27600    297.93924    -425.9965    140175.66   -40870.444    4091.4779   -44961.922    317.19292   0.98338413 
   27700    297.67836   -592.00932    140075.84   -40878.535    4087.8954   -44966.431    318.77994    0.9840849 
   27800    289.51994   -704.42342    140301.04   -40913.531    3975.8592    -44889.39    320.43984   0.98250531 
   27900    300.62297   -795.83192    139962.32   -40862.198    4128.3326    -44990.53    321.07815   0.98488305 
   28000    297.06762   -671.55415    139608.37   -40837.841    4079.5084    -44917.35    321.22424   0.98738005 
   28100    294.25479   -597.32035     139735.3   -40924.506     4040.881   -44965.387    322.62459   0.98648316 
   28200    289.05919   -463.48721    139787.83    -41040.86    3969.5319   -45010.392    324.41973   0.98611242 
   28300    290.59424   -420.67695       139998    -41021.73    3990.6121   -45012.342    326.55746   0.98463201 
   28400    296.50533   -566.97346    140237.32   -40919.377    4071.7867   -44991.164    327.75511   0.98295176 
   28500     290.3886   -450.12622    139961.39   -41002.405    3987.7881   -44990.193     328.5212   0.98488959 
   28600    287.95457   -656.12036     139869.1   -41038.181    3954.3626   -44992.543    329.26985   0.98553945 
   28700    292.90158   -250.08733     140076.9   -41050.864    4022.2979   -45073.162    330.97828   0.98407744 
   28800    292.44725   -352.12702    139970.76   -41028.478    4016.0587   -45044.537    332.55909   0.98482364 
   28900     294.6169    -804.0266    140078.12   -41031.478    4045.8536   -45077.331    334.36383   0.98406889 
   29000    289.49597   -512.70905    140134.66   -41025.012      3975.53   -45000.542    335.62529   0.98367182 
   29100    292.84704   -381.36605    140022.51   -40990.824    4021.5489   -45012.372    336.47015   0.98445972 
   29200    293.58844     -606.397    139924.28   -41056.948    4031.7303   -45088.679    337.51199    0.9851508 
   29300    292.05129   -532.18893    139993.43   -40970.577    4010.6212   -44981.198    338.04851   0.98466417 
   29400     290.0527   -300.04687    140013.14   -41078.159    3983.1753   -45061.334    339.37607   0.98452556 
   29500    290.43084   -718.03675    140388.94   -41019.193    3988.3682   -45007.561    341.65423   0.98189016 
   29600    285.43197   -365.56191    140388.52   -41049.425    3919.7208   -44969.146    342.97452   0.98189305 
   29700    293.68687   -489.34754    140370.02   -40963.616    4033.0819   -44996.698    343.93325   0.98202251 
   29800     298.6761   -493.50242    139994.14   -40878.951    4101.5969   -44980.548    343.73235   0.98465921 
   29900    298.33179   -624.52026    139960.56   -40864.634    4096.8688   -44961.503    344.96875   0.98489545 
   30000    294.62081   -385.61065    140256.53   -40855.312    4045.9073   -44901.219    347.52398   0.98281709 
   30100    299.81313    -509.6868    140092.84    -40868.37    4117.2114   -44985.581    348.85664   0.98396544 
   30200    297.42968   -453.37351     140237.3   -40877.881    4084.4804   -44962.362    350.13151   0.98295187 
   30300    292.98556   -630.07622    139847.83   -40922.821    4023.4512   -44946.272    351.00029   0.98568936 
   30400    290.18717   -396.31089    139872.94   -41060.005     3985.022   -45045.027    352.44244   0.98551237 
   30500    289.45034   -380.29626    139773.61   -41049.556    3974.9034    -45024.46    353.24848   0.98621277 
   30600    288.15413   -709.49379    139446.92   -41078.219    3957.1031   -45035.322    355.38807   0.98852318 
   30700    296.24972   -307.50387    139757.64   -40972.776    4068.2765   -45041.053    357.37825   0.98632547 
   30800     296.5043   -580.65473    140024.02   -40953.559    4071.7725   -45025.331    358.76725   0.98444907 
   30900    291.70319   -725.93807    139896.29   -41010.379    4005.8409   -45016.219    359.05899    0.9853479 
   31000    292.26134   -491.86663    140127.97   -40957.697    4013.5057   -44971.202    360.64526   0.98371881 
   31100    289.94708   -512.26848    140459.09   -41074.815     3981.725    -45056.54    362.71339   0.98139979 
   31200    295.88886   -678.03402    140374.36   -41046.938    4063.3209   -45110.259    364.33657   0.98199215 
   31300    291.68341   -330.56669    140463.84   -41038.203    4005.5692   -45043.772     365.7453   0.98136656 
   31400    292.48396   -355.27948    140183.96   -41080.915    4016.5629   -45097.478    366.73431   0.98332587 
   31500     292.3818   -464.36429    140389.51   -40963.338    4015.1599   -44978.498    368.32668   0.98188614 
   31600    296.06937   -867.69036    139926.22   -41038.624    4065.7998   -45104.424    368.71765   0.98513713 
   31700     291.4044   -470.87719    139906.58   -41025.519    4001.7376   -45027.257    369.15566   0.98527543 
   31800    289.04545   -491.54488    139670.33   -41036.687    3969.3432    -45006.03    368.81764   0.98694204 
   31900    296.41369   -251.99077    139976.04    -40960.22    4070.5283   -45030.749    369.91839   0.98478653 
   32000    293.37755   -755.00169    140063.97    -40946.97    4028.8342   -44975.804    370.13543   0.98416828 
   32100    292.41255   -541.81667    140069.92   -40991.646    4015.5822   -45007.229    371.58254    0.9841265 
   32200      292.546   -485.07843    139939.74   -41004.914    4017.4148   -45022.329    372.26477   0.98504199 
   32300    288.10695   -346.20321    140185.69   -40998.757    3956.4552   -44955.212    373.02457   0.98331377 
   32400    291.35742   -428.28432    140573.54   -40873.265    4001.0925   -44874.357    375.44435   0.98060072 
   32500    294.84987    -415.9396    140558.55   -40969.094    4049.0529   -45018.147    376.16057   0.98070533 
   32600    293.61135   -569.68937     140605.4   -40986.983    4032.0449   -45019.028    377.53018   0.98037855 
   32700    290.61949   -909.91816    140408.97   -40931.214    3990.9588   -44922.173    378.62907   0.98175006 
   32800    288.95965    -601.7348    140181.22   -41016.024    3968.1649   -44984.188    379.59263   0.98334512 
   32900    289.76306   -589.27685    140451.64   -41104.804    3979.1978   -45084.002    381.03036   0.98145182 
   33000       289.37    -394.7766    140703.35   -41034.605    3973.8001   -45008.405     383.2348   0.97969608 
   33100    289.41374   -421.49599    140551.68   -40987.255    3974.4008   -44961.656    384.27785   0.98075324 
   33200     296.9939   -421.77275    140385.43   -40958.307    4078.4961   -45036.803    385.78105    0.9819147 
   33300    293.82578   -323.70796    140630.02   -40973.354    4034.9896   -45008.343     387.3017   0.98020689 
   33400    295.16829   -673.67498    140552.06   -40979.767    4053.4257   -45033.192    388.44862   0.98075062 
   33500    297.44015   -447.29968    140679.43   -40922.968    4084.6242   -45007.592    389.71619   0.97986263 
   33600    288.24396   -741.53994    140442.88   -40963.708    3958.3367   -44922.045    389.86966   0.98151304 
   33700    293.58141   -479.45237    140568.82   -40932.283    4031.6337   -44963.916    391.88513   0.98063363 
   33800    294.66829   -552.50848    140598.78   -40902.516    4046.5594   -44949.076    393.43649    0.9804247 
   33900    296.27917    -450.0748    140641.99   -40882.279    4068.6809    -44950.96    395.36415   0.98012351 
   34000    293.37362   -666.43454    140172.93   -40970.311    4028.7802   -44999.092    396.76285   0.98340324 
   34100    291.86436   -387.28608    140127.04   -41082.965    4008.0541   -45091.019    398.73149    0.9837253 
   34200    292.49134   -559.32054    139938.86   -41051.893    4016.6642   -45068.557    400.20723   0.98504813 
   34300    291.88094   -415.05996    139841.94   -41006.113    4008.2819   -45014.395    401.72705   0.98573086 
   34400    297.51757   -647.18106    139687.72   -40883.215    4085.6874   -44968.902     402.8891   0.98681913 
   34500    297.99981   -401.95637    139953.82     -40832.7    4092.3097    -44925.01    404.02567   0.98494287 
   34600    292.38825   -315.13951    139881.15   -40937.256    4015.2485   -44952.505     405.0454   0.98545456 
   34700    290.90336   -590.85111    140250.58   -40973.118    3994.8572   -44967.975    406.28768   0.98285877 
   34800    294.35135    -586.6425    140096.65   -41016.069     4042.207   -45058.276    406.88498   0.98393869 
   34900     286.8114    -394.2251    139865.61   -41004.797    3938.6639   -44943.461    407.28787   0.98556403 
   35000    291.85229   -475.14223    139833.78    -41076.27    4007.8884   -45084.158    408.36304   0.98578837 
   35100     293.5015   -199.22251    139992.03   -40974.912    4030.5363   -45005.449    409.51876   0.98467407 
   35200    297.99347   -271.71518    139998.32   -40843.806    4092.2227   -44936.029    410.22874   0.98462976 
   35300    297.24896   -329.21937    140322.66   -40947.372    4081.9986    -45029.37    411.75081   0.98235395 
   35400     289.7853    -347.4108    140341.07    -41045.65    3979.5032   -45025.154    412.75685   0.98222507 
   35500    289.44439   -458.37072    140505.55   -41018.521    3974.8217   -44993.343    414.25893   0.98107526 
   35600    291.81251   -392.44596     140398.8   -41020.997    4007.3421   -45028.339    415.41235   0.98182116 
   35700    293.04993    -451.2929    140613.71   -40969.618    4024.3351   -44993.953    417.26514   0.98032062 
   35800     292.9933   -632.37543    140633.98   -40965.575    4023.5574   -44989.133    418.26775   0.98017934 
   35900     297.4786   -273.23386    140471.08   -40938.431    4085.1522   -45023.583    419.73566   0.98131602 
   36000     293.0104   -491.22527    140481.98   -40963.569    4023.7923   -44987.361    420.53257   0.98123986 
   36100    292.12667   -252.59556     140350.5   -41029.757    4011.6563   -45041.414    420.74593   0.98215908 
   36200    294.12078    -431.3423    140570.75   -40974.466    4039.0406   -45013.506    422.47485   0.98062018 
   36300    295.32799   -424.07506     140956.3   -40952.362    4055.6187   -45007.981    424.62636     0.977938 
   36400    295.73582   -394.45619    140835.25   -40852.163    4061.2193   -44913.382    425.60749    0.9787785 
   36500    297.52373   -600.01726    140891.64   -40831.901     4085.772   -44917.673    427.40732   0.97838678 
   36600    294.07537   -706.86561    140764.57   -40961.947     4038.417   -45000.364    427.61777   0.97926999 
   36700    293.64154   -507.17025    140322.44   -40978.653    4032.4594   -45011.113    428.31743   0.98235547 
   36800    287.05835   -501.31639    140684.56   -41036.321    3942.0552   -44978.376    429.69926   0.97982694 
   36900    289.84566    -645.8309    140547.35   -41080.824    3980.3322   -45061.156    430.71968   0.98078344 
   37000    294.79663    -706.0932    140391.45   -41065.292    4048.3219   -45113.614    431.72597   0.98187257 
   37100    289.54655   -669.53819    140436.19   -41065.152    3976.2246   -45041.377    433.25432   0.98155976 
   37200    290.70428   -704.35439    140210.24   -41046.286    3992.1232    -45038.41    434.56496   0.98314155 
   37300    293.76308   -384.28359    140144.66    -41017.22    4034.1285   -45051.348    434.33717   0.98360167 
   37400    286.56604   -291.71312    140214.96   -41088.551    3935.2945   -45023.845    435.53392   0.98310845 
   37500    287.73791   -440.11077    140208.56   -41086.765    3951.3873   -45038.152    436.51924   0.98315335 
   37600    291.46579    -427.5433    140117.31   -41070.768    4002.5807   -45073.349    438.00864   0.98379366 
   37700    288.06787   -609.32343    139799.46   -41131.214    3955.9185   -45087.133    439.74944   0.98603038 
   37800    292.65262   -510.19628    139689.21   -41119.203    4018.8791   -45138.082    441.28964   0.98680865 
   37900    293.22994   -516.57168    140230.73   -41105.642    4026.8071   -45132.449    444.55376   0.98299794 
   38000    287.53336   -425.19257    140311.89    -41073.51    3948.5783   -45022.088    446.00275   0.98242935 
   38100    293.82966   -693.77791    140075.69   -41052.068    4035.0429    -45087.11    446.47445   0.98408591 
   38200    283.96089    -403.4655    140109.83    -41121.27     3899.519   -45020.789    447.63113   0.98384612 
   38300    287.84262    -191.9706    140310.08    -41159.52    3952.8253   -45112.345    449.21117   0.98244198 
   38400    287.97677   -539.64915    140103.43   -41251.613    3954.6675   -45206.281    449.09099   0.98389109 
   38500    292.07778    -581.1361     140085.1   -41190.142     4010.985   -45201.127    450.18999   0.98401985 
   38600    296.98026   -740.59912    140162.03   -41100.514    4078.3087   -45178.823    451.82442   0.98347972 
   38700    289.35725   -491.48732    139849.96   -41109.622     3973.625   -45083.247    453.58714   0.98567435 
   38800    293.22742   -435.20852    139935.68   -41057.387    4026.7725    -45084.16    454.55218   0.98507055 
   38900    292.32832   -409.47857    140351.86   -40932.664    4014.4255    -44947.09      456.584   0.98214952 
   39000    294.12851   -350.79567    140296.22   -40902.004    4039.1468   -44941.151    457.89424   0.98253904 
   39100    290.55065   -560.62523    140424.29   -40968.359    3990.0135   -44958.373    459.02202   0.98164296 
   39200    293.08338   -507.59748    140600.14   -40920.406    4024.7945     -44945.2    460.73909    0.9804152 
   39300    297.33271    -676.1011    140643.19   -40911.915    4083.1488   -44995.064    462.02551   0.98011514 
   39400    299.09122    -648.8861    140537.35   -40951.025    4107.2977   -45058.323    463.06984   0.98085323 
   39500    295.87744    -490.2541    140307.49   -40904.485    4063.1641   -44967.649    464.08076   0.98246016 
   39600    294.68545   -516.02294    140270.16   -40914.892    4046.7951   -44961.687    465.07038    0.9827216 
   39700    289.28281   -363.43696    140269.62   -40987.776    3972.6027   -44960.379    465.82214   0.98272542 
   39800    288.68903   -586.64678    140554.96    -40971.42    3964.4487   -44935.869    468.49106   0.98073037 
   39900     287.9797   -318.63545    140597.85   -41141.706    3954.7077   -45096.414    469.92439   0.98043118 
   40000    290.77541   -455.42023    140766.15   -41035.072    3993.1001   -45028.173    471.59714   0.97925898 
   40100    292.18045   -418.14457    140405.57    -40961.61    4012.3949   -44974.005    472.19227   0.98177385 
   40200    296.80055   -594.19031    140362.95   -40922.595    4075.8409   -44998.436    473.33017   0.98207196 
   40300    290.94996    -396.8691     140141.3   -41017.404    3995.4971   -45012.901     473.9069   0.98362523 
   40400    292.74392   -302.53585    140271.73   -41020.133    4020.1328   -45040.266    475.25137    0.9827106 
   40500    290.91083   -641.51837    140523.75    -40999.04    3994.9597       -44994    477.91322    0.9809482 
   40600     297.4705   -396.90145    140851.27   -40982.887     4085.041   -45067.928    479.36472   0.97866719 
   40700    293.51334   -610.75072    140508.29   -40963.399    4030.6989   -44994.097    479.34804   0.98105609 
   40800    291.73785   -465.66558    140437.17   -41018.392    4006.3168   -45024.709    480.85081   0.98155291 
   40900    289.34555   -316.41951    140502.71   -41016.437    3973.4644   -44989.901    482.78039   0.98109505 
   41000    293.06073   -569.08822    140326.08   -40984.511    4024.4834   -45008.994    482.82888   0.98232997 
   41100    288.33432   -510.31555    140539.12   -40967.593    3959.5775   -44927.171    483.61155   0.98084092 
   41200    296.71479   -200.40633    140313.43   -40927.537    4074.6631     -45002.2    483.64169   0.98241858 
   41300    290.94136   -607.81865    140504.42   -41051.667    3995.3789   -45047.046    485.20053    0.9810831 
   41400    292.19504   -377.47026    140595.19   -41013.803    4012.5952   -45026.398    487.49297   0.98044975 
   41500    292.92818   -539.48414    140386.92   -41027.202    4022.6631   -45049.865    488.24146   0.98190428 
   41600    292.31996   -484.74142    140174.93    -40966.54    4014.3107   -44980.851    489.44371   0.98338922 
   41700    291.39779   -194.48077    140180.01   -41046.619    4001.6469   -45048.265      490.304   0.98335359 
   41800    296.23487   -324.04702     140385.2   -40944.511    4068.0726   -45012.584      491.695   0.98191628 
   41900    295.01228   -494.38605    140323.47   -40941.737    4051.2833   -44993.021    492.84667   0.98234828 
   42000    293.29656   -522.07463    140370.96   -40947.098     4027.722    -44974.82     494.8893   0.98201591 
   42100    294.65527   -484.99789    140513.04   -40944.071    4046.3806   -44990.452    495.91404   0.98102293 
   42200    288.37672    -488.9573    140387.34   -40930.411    3960.1598   -44890.571    497.50469   0.98190136 
   42300    291.40576    -818.9241    140159.31   -41041.897    4001.7564   -45043.653    498.16452   0.98349884 
   42400    294.06188   -369.17856    140306.73   -40979.231    4038.2318   -45017.463    500.53615   0.98246544 
   42500    288.54646   -865.56522    140284.67   -41047.405    3962.4908   -45009.896    501.57572   0.98261995 
   42600    290.44831    -414.4784    140057.28   -41036.565    3988.6081   -45025.173     501.8365   0.98421532 
   42700    290.75527   -373.64108    140372.59   -41134.052    3992.8235   -45126.876    503.15232   0.98200448 
   42800    287.22198   -389.87758    140422.15   -41078.433    3944.3023   -45022.735    504.25372   0.98165791 
   42900    292.00254   -451.09278    140848.89   -41051.141    4009.9517   -45061.093    507.14747   0.97868376 
   43000    294.08708   -482.29867     141030.9   -40988.691    4038.5779   -45027.268    509.28154   0.97742065 
   43100    292.18553   -571.91753    140948.58   -41022.189    4012.4646   -45034.653    509.72176   0.97799153 
   43200    289.84494   -635.73285       140804   -41032.408    3980.3223    -45012.73    511.27266   0.97899571 
   43300    286.41148   -497.50248    140624.47   -41065.512     3933.172   -44998.684    511.69093   0.98024562 
   43400    288.29856   -358.50853    140669.29   -41038.492    3959.0865   -44997.578    513.41525   0.97993328 
   43500    288.12292   -629.75717    140852.69   -41004.624    3956.6745   -44961.298    515.76416   0.97865731 
   43600    296.26979   -541.32523    140722.78   -41019.937    4068.5521    -45088.49    517.14292   0.97956081 
   43700    293.69972   -509.95861    140474.62   -40982.292    4033.2584    -45015.55    518.33469   0.98129124 
   43800    290.06649   -651.70546    140131.99    -40951.76    3983.3648   -44935.125    518.44206   0.98369056 
   43900    292.48023   -439.12982    139986.07   -41051.896    4016.5116   -45068.408    519.52105   0.98471597 
   44000    290.61943   -410.54067    140121.01   -40985.458     3990.958   -44976.416    520.86143   0.98376764 
   44100    301.25241   -564.22877    140035.67   -40870.077    4136.9764   -45007.053    521.60557   0.98436715 
   44200     291.7828   -538.01821    140352.67   -40986.755    4006.9341   -44993.689    523.58405    0.9821439 
   44300    291.09537   -510.69083    140342.31   -41097.379    3997.4939   -45094.873    524.27992   0.98221637 
   44400    290.91203   -409.81471    140113.12       -41049    3994.9762   -45043.976    524.86966   0.98382303 
   44500    289.64044   -669.11913    140244.27    -41051.48     3977.514   -45028.994    526.16945   0.98290301 
   44600     295.5793   -516.74379    140316.76   -41081.149    4059.0699   -45140.219    527.63104   0.98239525 
   44700    293.06895   -649.50342    140471.48   -41122.465    4024.5963   -45147.062    528.72409    0.9813132 
   44800    288.05968   -369.22534    140358.77   -41073.386    3955.8061   -45029.193     529.6433   0.98210123 
   44900    289.66684   -506.74338    140433.33   -41101.818    3977.8765   -45079.694    530.77716   0.98157979 
   45000    289.82121   -412.08743     140450.1   -41086.761    3979.9963   -45066.758    532.18965   0.98146257 
   45100    293.03033   -413.47651    140773.82   -41028.431    4024.0659   -45052.497    535.23887   0.97920563 
   45200    287.32126   -641.51537    140678.32   -41082.548    3945.6656   -45028.214    536.28138   0.97987039 
   45300    287.06564   -555.07375    140575.03   -41099.143    3942.1552   -45041.298    536.84245   0.98059034 
   45400    292.34346    -486.2247    140747.67   -41090.685    4014.6334   -45105.318    537.45468   0.97938756 
   45500    294.59671   -714.51205    141001.03   -41024.002    4045.5764   -45069.578    539.01643   0.97762771 
   45600    292.38839   -772.90745    140790.63   -41082.644    4015.2504   -45097.895    539.77669   0.97908874 
   45700    294.52474    -578.0788    140436.75   -41011.434    4044.5881   -45056.022    538.24726   0.98155588 
   45800    293.84153   -301.34566    140500.32   -41005.112    4035.2058   -45040.318    539.85165   0.98111178 
   45900    287.56268   -587.03214    139884.23    -40993.46    3948.9809   -44942.441     540.0983   0.98543285 
   46000    288.69831   -310.02841    140202.15   -41000.368    3964.5761   -44964.944    542.71007   0.98319828 
   46100    296.81127   -558.90492    140479.38   -40964.794     4075.988   -45040.782    544.32884   0.98125799 
   46200     300.4439   -350.58154     140193.7   -40951.865    4125.8734   -45077.738    545.52532   0.98325756 
   46300     289.5473   -628.59808    140276.52   -40990.407     3976.235   -44966.642      547.426   0.98267705 
   46400    289.02022   -520.73338     140468.9   -40995.368    3968.9967   -44964.365    550.15218   0.98133124 
   46500    294.50538   -435.97574    140494.56   -40920.379    4044.3222   -44964.701    551.11604   0.98115199 
   46600    293.99637   -771.42855    140527.39   -40869.213    4037.3322   -44906.545    552.77883   0.98092277 
   46700    294.95132   -483.43622    140298.85   -40850.015    4050.4461   -44900.461    553.44775   0.98252065 
   46800    294.61886   -649.53223    140303.67   -40824.434    4045.8806   -44870.314    555.25921   0.98248693 
   46900     292.0719   -453.81385    140113.58   -40864.205    4010.9042    -44875.11    555.65362   0.98381982 
   47000    290.13361   -430.86664    140275.76   -40937.117    3984.2865   -44921.404    557.79005   0.98268235 
   47100    291.43781   -568.04134    140295.18   -40952.546    4002.1965   -44954.743    560.07818   0.98254634 
   47200     294.1609   -565.12657    140183.98   -40963.109    4039.5916   -45002.701    560.17159   0.98332572 
   47300    297.66984   -341.82999    140629.72   -40908.009    4087.7784   -44995.787    563.10654   0.98020903 
   47400    297.90917   -796.83379    140593.53   -40910.409     4091.065   -45001.474    564.20638   0.98046129 
   47500    300.94069   -526.71212    140670.51   -40934.617    4132.6956   -45067.313    565.56426   0.97992476 
   47600    298.41095   -576.27149    140385.62   -40918.027    4097.9558   -45015.983    566.45578   0.98191338 
   47700    291.79547   -603.58063    140339.47   -41026.978    4007.1082   -45034.086    568.24714   0.98223627 
   47800    295.18859    -475.5155    140328.08    -41060.76    4053.7044   -45114.464    569.32494   0.98231598 
   47900    289.89784   -587.53147    140091.19   -41055.665    3981.0487   -45036.714    570.21229   0.98397708 
   48000    287.49581   -328.74608    140061.84   -41026.044    3948.0627   -44974.106    571.34696   0.98418328 
   48100    292.51496   -641.29526    140041.65   -41038.178    4016.9885   -45055.167    573.24871   0.98432511 
   48200    291.10151   -505.11555    139798.29   -41027.099    3997.5782   -45024.677    573.17665   0.98603862 
   48300    291.90952   -630.25467    140070.13   -41028.671    4008.6743   -45037.345    575.07692   0.98412503 
   48400    293.03752   -623.11301    139784.19   -40992.076    4024.1647   -45016.241    574.41559   0.98613812 
   48500    289.72929   -544.01409    139708.59   -41059.205    3978.7342    -45037.94    575.98021   0.98667172 
   48600    293.41824   -477.08168    139426.53   -41033.453     4029.393   -45062.846    576.04452   0.98866775 
   48700    290.92843   -502.00245    139441.97   -41120.626    3995.2014   -45115.827    577.04083   0.98855827 
   48800    296.38395   -663.48542    139765.02   -41044.131    4070.1198   -45114.251    579.86499   0.98627335 
   48900    289.55397   -398.71976    139676.57   -41029.998    3976.3265   -45006.325    580.98971   0.98689792 
   49000    298.18764   -442.01686    139891.67   -41018.847    4094.8892   -45113.737    582.13234   0.98538048 
   49100    285.60276   -665.00097    140166.11   -41115.451    3922.0661   -45037.518    584.26624   0.98345108 
   49200    285.56547    -432.6508    140279.74   -41164.045    3921.5541   -45085.599    586.21617   0.98265451 
   49300    294.63376   -663.60057    140246.94   -41090.348    4046.0851   -45136.433    587.11145   0.98288428 
   49400    289.33309   -674.57148    140305.68    -41091.35    3973.2933   -45064.644    588.15972   0.98247279 
   49500    290.34992   -653.28728    140512.81   -41067.838     3987.257   -45055.095     590.2192   0.98102454 
   49600    288.89992   -482.88065    140132.26   -41103.312    3967.3447   -45070.657    591.89344   0.98368868 
   49700    294.52276   -688.12836    140320.92   -41018.398    4044.5609   -45062.959    593.85111   0.98236614 
   49800    298.44962   -570.73225    140425.62   -41000.984    4098.4868   -45099.471    595.32398   0.98163365 
   49900    290.69539   -606.21125    140599.95   -41040.305    3992.0011   -45032.306    597.04664   0.98041657 
   50000    289.89027   -394.28379    140495.46   -41083.854    3980.9447   -45064.799    597.79246   0.98114574 
   50100    295.24574   -540.87089    140455.66   -41085.793    4054.4892   -45140.282     599.2747    0.9814237 
   50200    290.84986   -302.32044    140338.48   -41105.411    3994.1225   -45099.534    599.74374   0.98224322 
   50300    291.18748   -465.39403    140558.84   -41046.795    3998.7588   -45045.554    600.61519   0.98070331 
   50400    289.06503   -604.65295    140452.16   -41089.445    3969.6121   -45059.057    601.93294   0.98144816 
   50500    291.85531   -417.49759    140379.23   -41119.141    4007.9298    -45127.07    603.93289   0.98195803 
   50600    294.37019   -284.96364    140331.83   -41094.797    4042.4656   -45137.262     604.4226   0.98228977 
   50700    291.03091   -721.07292    140544.96   -40963.363    3996.6087   -44959.971    606.31354   0.98080013 
   50800     296.1425   -299.44867    140364.69   -40933.265    4066.8042   -45000.069    606.35714   0.98205981 
   50900    293.55324   -312.36994    140818.25   -40982.303    4031.2468    -45013.55    608.62685   0.97889665 
   51000     285.5223   -619.53601    140370.88   -41008.434    3920.9612   -44929.396    608.17924   0.98201646 
   51100    299.42199   -549.37929    140149.36    -40954.53    4111.8399    -45066.37    608.51563   0.98356867 
   51200    294.53032   -660.57725    140001.77   -40829.258    4044.6646   -44873.922    608.93351   0.98460555 
   51300    293.42492   -759.05505    140133.22   -40876.347    4029.4846   -44905.832    610.38751   0.98368196 
   51400    289.16794   -670.95841    139865.83   -41072.281    3971.0253   -45043.306     610.2875   0.98556249 
   51500    289.68662   -444.87291    139466.05   -41069.844    3978.1481   -45047.992    610.80709   0.98838761 
   51600    296.51471   -554.96747    139707.84   -41033.383    4071.9155   -45105.298     611.8508     0.986677 
   51700    285.42128   -493.35702    139747.63   -41038.918     3919.574   -44958.492    612.69213   0.98639608 
   51800    286.99174   -696.06012    139868.61   -41040.052    3941.1405   -44981.192    613.93287   0.98554294 
   51900    289.31343   -432.11971    139941.47   -41100.488    3973.0233   -45073.511    615.47634   0.98502977 
   52000    295.43238   -431.07257    140153.51   -41012.659    4057.0523   -45069.711    616.85762   0.98353953 
   52100     289.5417   -505.98281    139976.85   -41080.602     3976.158    -45056.76    617.55322   0.98478083 
   52200     289.1047   -375.24322    140056.13   -41092.529    3970.1568   -45062.686    618.13519   0.98422336 
   52300    290.49642   -406.43512    140475.24   -41038.748    3989.2688   -45028.017    620.61302    0.9812869 
   52400    290.09601   -224.87436    140402.45    -40980.12    3983.7701    -44963.89    621.16036   0.98179567 
   52500    288.71358   -720.06342     140197.1   -41017.687    3964.7858   -44982.472    621.40355   0.98323375 
   52600    293.80004   -478.66181    139958.13   -41102.261    4034.6361   -45136.897    622.10503   0.98491254 
   52700    293.29345   -459.95793    140140.11   -41089.432    4027.6792   -45117.111    623.12475   0.98363354 
   52800    290.61141   -593.43085     140462.2   -41124.799    3990.8478   -45115.647    624.61876   0.98137802 
   52900    291.34217    -529.6879    140350.12   -41188.485    4000.8832   -45189.368    625.76724   0.98216174 
   53000    284.12112   -815.37954     140415.2   -41251.406    3901.7194   -45153.125    626.83838   0.98170652 
   53100    287.30093   -593.09782    140227.43   -41252.893    3945.3865    -45198.28    626.76594   0.98302107 
   53200    293.47506   -645.38107    140092.61   -41074.154    4030.1732   -45104.327    627.57805   0.98396706 
   53300    296.87936   -419.14271    140175.91   -41078.568    4076.9231   -45155.491      628.372   0.98338238 
   53400    292.54146   -732.51867    140316.62   -40979.434    4017.3525   -44996.786    630.14006   0.98239621 
   53500    295.93762    -482.9239    140384.21   -40992.011    4063.9906   -45056.002    632.00981   0.98192323 
   53600    293.52499   -436.66565    140404.91   -40984.382    4030.8588    -45015.24    632.89702   0.98177845 
   53700    290.36502   -766.61116    140254.48   -41075.244    3987.4643   -45062.708    632.72022    0.9828315 
   53800    291.80143   -638.32867    139845.71   -41127.375    4007.1899   -45134.565    632.31206   0.98570431 
   53900     293.8734   -282.82222    140152.94   -41167.351    4035.6434   -45202.994    634.21057   0.98354352 
   54000    292.77734   -476.56265    140219.08   -41087.531    4020.5918   -45108.122    635.46065   0.98307959 
   54100    293.81539   -720.72263    140296.88   -41069.601    4034.8468   -45104.448    636.38933   0.98253444 
   54200    286.68016   -451.52451    139942.38   -41167.974    3936.8616   -45104.836    637.91776   0.98502337 
   54300     292.2746   -398.14001    140326.14   -41057.176    4013.6877   -45070.864    640.03168   0.98232958 
   54400    289.56546   -522.77681    140359.27   -41151.501    3976.4843   -45127.985    641.42433   0.98209767 
   54500    291.95344   -609.00543    140382.06   -41115.329    4009.2774   -45124.607     642.4782   0.98193826 
   54600    292.92862   -218.65023    140720.86   -41111.555    4022.6692   -45134.225    644.30281   0.97957414 
   54700    295.96153   -598.11239    140847.86   -41123.923    4064.3189   -45188.242    644.16902   0.97869091 
   54800    294.78486   -802.69531     140663.3   -41108.161    4048.1602   -45156.321    644.72738   0.97997499 
   54900    292.99042   -570.29321    140598.66   -41046.918    4023.5179   -45070.435    645.94081   0.98042554 
   55000    294.99801   -508.99939    140409.69    -40970.42    4051.0874   -45021.507    646.44454   0.98174502 
   55100    295.20967    -454.5861    140592.22   -40975.214    4053.9939   -45029.207     647.7845   0.98047045 
   55200    293.27887   -722.61137     140444.4   -40968.679     4027.479   -44996.158    647.87489   0.98150244 
   55300    291.99684   -300.87198    140491.69   -40979.278    4009.8734   -44989.151    649.28393   0.98117205 
   55400    289.54791   -283.60523    140317.45   -40962.539    3976.2433   -44938.782    649.69175   0.98239037 
   55500    293.57371   -702.68632    140414.46     -40913.7     4031.528   -44945.228    651.08907    0.9817117 
   55600    298.95016   -385.53399    140396.29   -40866.617    4105.3606   -44971.978    652.24128   0.98183873 
   55700    294.78845   -534.04718    140518.43    -40944.87    4048.2094   -44993.079    653.83012   0.98098535 
   55800    291.30889   -531.02264    140364.08   -41099.342    4000.4261   -45099.768    655.35635   0.98206402 
   55900    291.54056   -566.81337    140028.88    -41156.49    4003.6075   -45160.097    655.47838   0.98441491 
   56000    292.79156   -280.80047    140063.03   -41157.951     4020.787   -45178.738    656.60002   0.98417491 
   56100     286.7719    -447.9944    140126.37   -41173.161    3938.1215   -45111.283    658.40382      0.98373 
   56200    294.50611    -512.8609    140265.63   -41114.183    4044.3322   -45158.515    659.98338   0.98275334 
   56300    298.57828   -501.79688    140327.53   -41005.655    4100.2537   -45105.909    661.96114   0.98231987 
   56400     294.7237   -758.10875    140432.73   -40885.437    4047.3203   -44932.757    664.02814   0.98158396 
   56500    288.64202   -552.85433    140196.35   -40997.795     3963.803   -44961.598    663.78362   0.98323895 
   56600     290.9228   -330.68323    140236.37   -40967.278    3995.1241   -44962.402    665.01468   0.98295839 
   56700    295.67769   -442.85793    140481.86   -40955.914     4060.421   -45016.335    667.30763   0.98124068 
   56800    294.37606   -603.59162    140170.99   -40928.549    4042.5463   -44971.096     667.2504   0.98341687 
   56900    290.96212   -649.11748    140286.43   -40962.724     3995.664   -44958.388    668.41154   0.98260765 
   57000    291.14204   -443.74088    140440.68   -41018.085    3998.1349    -45016.22    669.97061   0.98152838 
   57100    285.15037   -549.64563    140478.63   -41139.795    3915.8536   -45055.648     671.0643   0.98126326 
   57200     290.5744   -540.96088    140516.93   -41201.491    3990.3396   -45191.831    672.25567   0.98099577 
   57300    287.52031   -412.65981    140651.85   -41167.213    3948.3991   -45115.612    673.36553   0.98005477 
   57400    284.30865   -404.79519    140427.12   -41127.198    3904.2947   -45031.492    673.16269   0.98162319 
   57500    288.76422   -295.88779    140144.04   -41086.589    3965.4812    -45052.07     672.6177   0.98360598 
   57600    285.44185   -628.26648    140200.07   -41163.761    3919.8564   -45083.618    672.84695   0.98321288 
   57700    294.68305   -514.43318    140255.64   -41038.347    4046.7621   -45085.109    673.78639   0.98282334 
   57800    289.28887   -824.45503    140266.92   -40991.803     3972.686   -44964.489     674.3411    0.9827443 
   57900    294.43162   -464.51951    140293.93   -41102.965    4043.3092   -45146.274    675.21508   0.98255509 
   58000    292.94149   -456.94686     140411.1   -41067.627     4022.846   -45090.473    676.84989   0.98173518 
   58100     298.3974   -631.87522    140289.94   -40953.308    4097.7698   -45051.078    678.07799   0.98258307 
   58200    285.87206   -541.79221    140465.18   -41066.604    3925.7644   -44992.368    679.80661   0.98135718 
   58300    291.17766   -274.59515    140543.16   -41011.877    3998.6239   -45010.501    681.52422   0.98081273 
   58400    292.99472   -537.81738    140598.71   -40991.695    4023.5769   -45015.272    683.30273   0.98042519 
   58500    297.12511   -398.31381    140474.41   -40910.078    4080.2979   -44990.376    683.96007   0.98129273 
   58600    289.00115   -332.56219    140073.94   -40982.204    3968.7349   -44950.939    683.33421   0.98409826 
   58700    292.51605   -300.23923    140012.59   -40992.697    4017.0035   -45009.701    684.26276   0.98452941 
   58800    296.05564    -439.1727    140210.56   -40927.303    4065.6113   -44992.914    686.48422   0.98313933 
   58900     295.3387   -379.76663    140345.85   -40943.065    4055.7659   -44998.831    688.95868   0.98219158 
   59000    298.98011   -566.95125    140068.64   -40988.717    4105.7719   -45094.489    689.43919   0.98413548 
   59100    294.52018   -509.90998     140172.5   -41035.505    4044.5254    -45080.03    691.28141   0.98340625 
   59200     290.9639   -425.71741    140341.95   -41068.596    3995.6885   -45064.285    693.30467   0.98221893 
   59300    293.12477   -556.01149    140296.53   -41022.948    4025.3629    -45048.31    693.95115   0.98253689 
   59400      289.475   -612.15235    140097.55   -41009.113     3975.242   -44984.355    693.14858   0.98393239 
   59500    297.94886   -624.61706    140363.05   -40988.565    4091.6101   -45080.175     694.5358   0.98207128 
   59600     296.5051   -595.67201    140404.59   -40925.894    4071.7835   -44997.677    696.05048   0.98178071 
   59700    297.94853   -561.54181    140162.72   -40928.235    4091.6056    -45019.84     695.6744   0.98347493 
   59800    291.49962   -347.79277     140269.5    -40984.14    4003.0453   -44987.186     697.2589   0.98272622 
   59900    291.00482   -647.42297    140285.48   -40991.289    3996.2504    -44987.54    698.15081   0.98261431 
   60000    286.18475   -411.82354     140385.4   -41018.433    3930.0583   -44948.492    699.32956   0.98191492 
   60100    289.05265   -382.77001    140261.25   -41086.284     3969.442   -45055.726    698.94431     0.982784 
   60200    291.54364   -342.89855    140128.46   -41081.141    4003.6498   -45084.791    699.78589   0.98371534 
   60300    296.23127   -502.54659    140047.56   -41001.942    4068.0231   -45069.965     699.4768    0.9842836 
   60400    290.02943   -345.02659    140250.43   -41062.552    3982.8558   -45045.408    700.61427   0.98285985 
   60500    289.65584   -647.53112    140298.53   -41130.185    3977.7255    -45107.91    701.83044   0.98252291 
   60600    291.93285   -193.23101    140213.77   -41044.123    4008.9947   -45053.118    701.96823   0.98311681 
   60700    293.91685   -213.75711    140353.21   -41075.812    4036.2401   -45112.052    703.35746   0.98214008 
   60800    289.56032   -287.71898    140667.76   -41082.258    3976.4136   -45058.672    704.81147   0.97994394 
   60900    300.09323   -457.46543    140797.47   -41022.672    4121.0578    -45143.73    705.98733   0.97904114 
   61000    292.99438   -386.24652    140673.95   -41016.637    4023.5723   -45040.209    707.70972   0.97990082 
   61100    298.23087   -737.25253    140699.33   -40977.861    4095.4829   -45073.344    709.17586   0.97972408 
   61200    291.98892   -557.65872    140119.07   -41005.619    4009.7647   -45015.384    709.41586   0.98378126 
   61300    291.46687   -240.43512    140484.38   -40933.568    4002.5956   -44936.164     713.1424   0.98122309 
   61400    295.98208    -367.6097    140684.05   -40850.408    4064.6011   -44915.009    713.85831   0.97983046 
   61500    296.11075   -723.91253    140752.02   -40862.191    4066.3681   -44928.559    714.66915   0.97935729 
   61600    293.50297   -517.44543    140879.63   -40914.816    4030.5564   -44945.373    716.24617    0.9784702 
   61700    297.03789   -686.50091    140486.66   -40944.203    4079.1001   -45023.304    714.94166   0.98120717 
   61800    295.04041   -431.91139     140694.5   -40947.927    4051.6695   -44999.596    717.96144   0.97975767 
   61900     294.3118   -691.24351    140457.38   -40966.367    4041.6638   -45008.031    717.85171   0.98141172 
   62000    294.84185   -632.11774    140705.21   -40928.275    4048.9429   -44977.218    719.79019   0.97968311 
   62100    296.61074   -768.43842    140350.67   -40949.422    4073.2343   -45022.657    719.25724   0.98215791 
   62200    294.04489   -495.37124    140127.33   -40974.239    4037.9984   -45012.237     719.4242    0.9837233 
   62300    289.96473   -635.77452    139811.29   -40998.155    3981.9673   -44980.122    719.03614   0.98594696 
   62400    292.44295   -342.01781    140188.91    -41054.71    4015.9997    -45070.71    720.66709   0.98329116 
   62500    292.73122   -724.51444    140408.72   -41035.724    4019.9584   -45055.682    722.72686   0.98175181 
   62600    293.77554   -589.67292    140147.59   -40974.106    4034.2996   -45008.406    723.57912    0.9835811 
   62700    296.75731   -511.96532    140053.66   -41030.722     4075.247   -45105.969    725.35238   0.98424071 
   62800    295.46192   -301.69204    140124.29   -40993.845    4057.4579   -45051.303     727.0852   0.98374465 
   62900    289.24516   -223.14999    140459.77   -41054.172    3972.0857   -45026.258    730.08294   0.98139503 
   63000    292.57265   -502.10529    140323.56   -41001.564    4017.7808   -45019.345    730.69882    0.9823476 
   63100    291.27756   -519.73119    140304.07   -40994.937    3999.9959   -44994.933    731.38548   0.98248411 
   63200    290.05389    -257.4444    140427.99   -40997.593    3983.1918   -44980.785    732.79055   0.98161712 
   63300    287.47458   -493.14738    140299.53   -41095.072    3947.7711   -45042.843    733.85704   0.98251587 
   63400    285.42434   -379.66393    140091.64   -41136.949     3919.616   -45056.565    734.83652   0.98397388 
   63500    294.15621   -591.46285    140216.14   -40988.053    4039.5272    -45027.58    736.47923   0.98310021 
   63600     297.2151   -700.77078    139912.73   -40976.166    4081.5337   -45057.699    736.24491   0.98523212 
   63700    291.13461   -382.36711    139967.38   -41114.666    3998.0328   -45112.699    737.55527   0.98484745 
   63800    289.00101   -551.46029    139864.92   -41097.615    3968.7329   -45066.348    738.17598   0.98556888 
   63900    286.74048   -532.27808    139805.19   -41100.036      3937.69   -45037.726      738.269   0.98598996 
   64000    289.61496   -437.55342    139788.18    -41137.08    3977.1641   -45114.244    739.20149   0.98610999 
   64100    289.72501   -372.43716    139704.81   -41112.369    3978.6753   -45091.044    739.50684   0.98669845 
   64200    288.96369   -498.68126    139885.94   -41118.581    3968.2205   -45086.801    740.92723    0.9854208 
   64300    288.22299     -393.678    139990.33   -41153.196    3958.0487   -45111.245    742.03223   0.98468596 
   64400    285.84851   -699.05121    140098.71   -41148.583    3925.4409   -45074.024    743.58561   0.98392423 
   64500    288.87168   -525.69106    140178.63    -41141.91    3966.9569   -45108.867    744.42469   0.98336329 
   64600     290.1288   -354.91106    140313.73   -41096.817    3984.2204   -45081.037    746.68432   0.98241649 
   64700    290.32831   -504.45738    140418.72   -41014.106    3986.9602   -45001.066    748.18181   0.98168192 
   64800    295.09738   -594.99568    140222.04   -40948.154    4052.4519   -45000.606     748.9633   0.98305888 
   64900    292.99983   -668.42216    140151.56    -40960.52     4023.647   -44984.167    750.51256   0.98355322 
   65000    288.88018   -627.97923    140040.49   -41014.862    3967.0736   -44981.936    750.64508   0.98433327 
   65100    290.38806   -631.29199    139796.78   -41077.455    3987.7807   -45065.235    752.56744   0.98604933 
   65200    293.46871   -678.65087    139927.42   -41062.644     4030.086    -45092.73    753.36711   0.98512867 
   65300      290.427     -706.176     140183.3   -41066.134    3988.3154    -45054.45    755.55852   0.98333049 
   65400    288.19498   -340.04335    140405.35   -41126.911     3957.664   -45084.575    758.17002   0.98177539 
   65500    300.38833   -560.29535    140456.74   -41003.031    4125.1104   -45128.142    759.67319   0.98141615 
   65600    294.74055   -437.83652    140355.38   -40929.532    4047.5517   -44977.084    760.17184   0.98212489 
   65700    292.91879   -409.98705    140189.45   -40968.021    4022.5342   -44990.556    759.76245   0.98328736 
   65800     291.7937   -520.21351    139856.17   -40997.289    4007.0838   -45004.373    759.87977   0.98563057 
   65900    295.67307   -362.33063    139761.47    -41011.82    4060.3576   -45072.177    759.82726   0.98629842 
   66000     292.3413    -531.9486    139957.61   -41117.905    4014.6038   -45132.509    762.15353   0.98491619 
   66100    296.00309   -238.31454    140308.55   -41029.905    4064.8897   -45094.795     765.2683   0.98245274 
   66200    296.08109   -140.67486     140607.7   -40955.781    4065.9608   -45021.742    767.69306   0.98036252 
[...]
   84600    288.03692   -914.53971     140189.4   -41130.192    3955.4935   -45085.685    996.81799   0.98328771 
   84700    286.61958   -319.11087    140146.73   -41089.208    3936.0297   -45025.238    998.00911    0.9835871 
   84800    291.46981   -465.73478    140502.26   -41011.325     4002.636   -45013.961    999.66276   0.98109824 
   84900     290.1579   -340.11168    140047.77   -41050.325    3984.6201   -45034.945    998.68705   0.98428212 
   85000    292.10058   -431.63559    140202.94   -41018.204    4011.2981   -45029.502    1000.5375   0.98319275 
   85100      294.166   -673.28408    140013.63   -41037.823    4039.6616   -45077.485    999.81481   0.98452216 
   85200    292.94881   -488.07509    139689.69    -40976.23    4022.9465   -44999.177    1000.4892    0.9868052 
   85300    291.96032   -528.20886     140234.1   -40979.172    4009.3719   -44988.544    1005.2229   0.98297428 
   85400    291.30586   -550.94758    140405.08   -40998.633    4000.3845   -44999.018    1007.2466   0.98177725 
   85500     296.4626    -517.4112    140215.31   -41017.764    4071.1998   -45088.963    1007.9216   0.98310601 
   85600    291.29975   -431.75132    140376.93     -40998.7    4000.3006   -44999.001    1009.7443   0.98197415 
   85700    291.49997   -717.47742    140332.75   -41018.283    4003.0501   -45021.333    1011.3922   0.98228327 
   85800    291.25431   -478.41509    140451.43   -40994.131    3999.6766   -44993.808    1012.2258   0.98145327 
   85900    293.60136   -460.87596    140775.61   -41026.218    4031.9076   -45058.126    1013.2862   0.97919316 
   86000    294.44913   -690.30181    140478.57   -41080.155    4043.5497   -45123.704    1012.8498   0.98126366 
   86100    298.19597   -536.07889     140357.9   -41037.236    4095.0035   -45132.239    1014.2194   0.98210726 
   86200    294.89856   -262.98545    140117.09   -41100.682    4049.7215   -45150.403    1015.4273   0.98379521 
   86300    294.11572   -486.60356    140107.64   -41114.322    4038.9711   -45153.293    1017.3182   0.98386154 
   86400    285.40661    -350.8047    140353.41   -41121.026    3919.3725   -45040.399    1020.1136   0.98213874 
   86500    289.23429   -463.61497    140533.64   -41023.227    3971.9365   -44995.164    1022.4439   0.98087911 
   86600    289.88811    -323.9601       140240   -41011.155    3980.9151    -44992.07    1022.5894   0.98293295 
   86700    291.08111   -551.24082    140508.43   -41010.977    3997.2982   -45008.275    1024.9066   0.98105516 
   86800    298.91569   -350.51052    140680.92   -40953.083    4104.8872    -45057.97    1026.7613   0.97985225 
   86900    292.18825   -562.55885     140640.5    -41004.21    4012.5019   -45016.711    1029.1253   0.98013387 
   87000    286.04816    -256.0749     140411.1   -41065.785    3928.1826   -44993.967    1029.3225   0.98173516 
   87100    293.58028   -616.49188    140071.07   -41027.336    4031.6182   -45058.954    1028.8451   0.98411838 
   87200    291.37913   -308.74736    140338.55   -40990.207    4001.3907   -44991.597    1031.9509    0.9822427 
   87300    294.41676   -689.35769    140553.55   -40899.099    4043.1052   -44942.204    1032.2674   0.98074022 
   87400    294.32212   -320.77861    140531.47   -41016.125    4041.8055   -45057.931    1034.1729   0.98089428 
   87500    290.08215   -350.80717    140482.61   -41068.769    3983.5798   -45052.349    1034.0348   0.98123542 
   87600    292.36625   -448.96038    140511.59   -41051.305    4014.9464   -45066.251    1035.2827   0.98103306 
   87700    289.84149   -469.15902    140591.62   -41059.804    3980.2748   -45040.079    1036.5004   0.98047464 
   87800    289.37618   -424.72088    140363.71   -40947.057     3973.885   -44920.942    1037.0644   0.98206663 
   87900    299.25098   -399.27191    140468.81   -40910.801    4109.4916   -45020.292    1038.1808   0.98133184 
   88000    288.50185   -569.91789    140461.84   -40996.818    3961.8782   -44958.697    1039.5078   0.98138054 
   88100    291.84798   -561.04745    140425.15   -40960.887    4007.8292   -44968.716    1040.8767   0.98163693 
   88200     293.5236   -193.53446    140675.81   -40915.765    4030.8398   -44946.605    1042.6349   0.97988786 
   88300    290.97945   -664.88437    140650.05   -40895.335     3995.902   -44891.237    1043.3353   0.98006734 
   88400    291.67641    -387.0746    140564.01   -41009.229    4005.4731   -45014.702    1043.5744    0.9806672 
   88500    284.66224   -646.79214     140230.5   -41013.061    3909.1503   -44922.211    1044.9186   0.98299954 
   88600    295.67368    -645.1573    140130.05    -41009.99     4060.366   -45070.356    1045.5818   0.98370416 
   88700    296.44987   -743.26941    140456.91   -40989.066    4071.0251   -45060.091    1047.8187   0.98141502 
   88800    293.43012   -655.05507    140136.41    -41022.97     4029.556   -45052.526     1046.097   0.98365953 
   88900    294.19462   -343.75308    140365.33   -41077.841    4040.0546   -45117.895     1048.106   0.98205528 
   89000    292.34837   -732.93201    140098.27    -40961.71    4014.7009   -44976.411    1048.2008   0.98392735 
   89100    294.34423    -354.2638    140382.81    -40922.81    4042.1092   -44964.919    1049.8345   0.98193301 
   89200    285.18228   -452.87422    140255.79   -41018.869    3916.2919   -44935.161    1050.8706   0.98282228 
   89300    295.54299   -408.25275    140223.14   -40956.489    4058.5712    -45015.06    1051.8413   0.98305114 
   89400    288.10586   -567.59327    140337.65   -40956.459    3956.4402   -44912.899    1053.5101   0.98224903 
   89500    287.49958   -571.91247    140007.52   -41056.904    3948.1144   -45005.019    1054.5268   0.98456512 
   89600    294.61908   -572.47668    139993.07   -40972.683    4045.8835   -45018.566    1055.2119   0.98466673 
   89700    289.89993   -731.11749    139898.75   -41012.956    3981.0775   -44994.033    1056.2797   0.98533062 
   89800    287.68882   -507.67487    139996.57   -40964.855    3950.7132   -44915.568    1057.7969   0.98464208 
   89900    292.78607   -695.30127    140083.87   -41022.859    4020.7117   -45043.571    1058.9246    0.9840285 
   90000    293.58825    -142.1819    139686.97   -40975.752    4031.7276    -45007.48    1057.5749   0.98682444 
   90100    293.28177   -513.47436    140142.64   -40961.316    4027.5189   -44988.835    1061.4542   0.98361581 
   90200    288.24651    -279.5158     140078.3   -41105.117    3958.3718   -45063.489    1061.8581   0.98406761 
   90300     287.8623   -523.00016     139964.9   -41090.186    3953.0955   -45043.282    1063.5872   0.98486493 
   90400    292.78893   -257.24779    140396.66   -40968.791    4020.7509   -44989.542    1067.9974   0.98183614 
   90500    296.25062   -417.39829    140599.89   -40984.593    4068.2889   -45052.882    1071.1248   0.98041695 
   90600    294.01492   -460.77724    140653.96   -40937.059    4037.5869   -44974.645    1071.2444   0.98004007 
   90700    293.30643   -512.76665    140511.06   -40936.413    4027.8575    -44964.27    1072.4338   0.98103678 
   90800    293.16558   -539.28909     140303.3   -40992.035    4025.9233   -45017.958    1072.7268   0.98248948 
   90900     293.7725   -443.47303       140157   -41064.298    4034.2579   -45098.556    1072.5238   0.98351501 
   91000     292.9277   -576.23271    140352.27   -40996.152    4022.6566   -45018.809    1074.4469   0.98214672 
   91100    289.06879   -313.71143    140342.25   -40965.317    3969.6638   -44934.981    1075.3411   0.98221684 
   91200    290.25412   -491.49957    140037.94   -40987.992    3985.9413   -44973.933    1074.2723   0.98435125 
   91300    289.28514   -433.89562    139980.16   -41081.792    3972.6348   -45054.426     1074.359   0.98475751 
   91400     295.2965   -455.27279    139640.41   -41068.682    4055.1863   -45123.869    1072.8067   0.98715347 
   91500    290.35666   -526.88065    139529.79    -41051.63    3987.3495    -45038.98    1072.8128   0.98793614 
   91600     287.3377   -306.74257    139764.12   -41073.195    3945.8914   -45019.086    1075.5502   0.98627973 
   91700    286.09877   -518.51662    139821.18   -41166.698    3928.8777   -45095.576    1077.4599   0.98587721 
   91800     289.6427   -371.78164    139799.85   -41146.697     3977.545   -45124.242    1077.5186   0.98602767 
   91900      288.399   -648.58924    139876.19   -41093.954    3960.4657    -45054.42     1079.111   0.98548947 
   92000    287.00847   -385.34132    140045.91   -41028.091    3941.3702   -44969.461    1080.6779   0.98429523 
   92100    293.43726   -584.18393    140216.21   -40935.404    4029.6542   -44965.059    1083.4409   0.98309975 
   92200    295.72961   -465.83596    140361.81   -40878.679    4061.1341   -44939.813    1084.7952   0.98207997 
   92300    288.42183   -683.26758    140310.24   -40957.632    3960.7793   -44918.411     1084.479   0.98244086 
   92400    297.74303   -607.17452    140363.03   -40931.787    4088.7835   -45020.571    1084.9403    0.9820714 
   92500    301.97026   -411.43686    140315.55   -40923.755    4146.8343    -45070.59    1085.5706   0.98240369 
   92600    298.27143   -645.24657    140420.78   -40928.165    4096.0398   -45024.205    1086.3509   0.98166752 
   92700    287.39861   -683.42703    140457.44   -41070.799    3946.7278   -45017.527    1088.2107   0.98141129 
   92800    291.47781   -638.23242    140305.36   -41028.802    4002.7458   -45031.548    1088.9855   0.98247509 
   92900    290.56204   -536.73267    140613.25    -40977.51    3990.1699    -44967.68    1092.0878   0.98032381 
   93000    293.28276   -551.76407    140696.66     -41013.1    4027.5324   -45040.632    1091.6947   0.97974262 
   93100    293.25538   -483.86881    140314.76   -41028.081    4027.1564   -45055.237    1091.0988   0.98240927 
   93200    292.77736     -590.177     140727.8   -40985.214    4020.5921   -45005.806    1093.8021   0.97952584 
   93300    298.07044    -426.0222    140244.09   -40979.608    4093.2797   -45072.888    1091.9146   0.98290426 
   93400    291.61362   -698.42357    140229.89   -41048.776    4004.6108   -45053.387    1093.8775   0.98300385 
   93500    297.14529   -368.58275    139920.25   -41034.506    4080.5751   -45115.081    1093.7586   0.98517916 
   93600    296.44348   -725.29043    140090.45   -41103.041    4070.9373   -45173.979    1095.9734   0.98398228 
   93700    291.54026     -451.479    140315.18   -41096.125    4003.6034   -45099.728    1097.8553   0.98240632 
   93800    294.38338   -513.36205    140431.79   -40967.409    4042.6468   -45010.055    1100.1923   0.98159057 
   93900    295.56723   -557.40612    140076.07   -41041.965    4058.9041   -45100.869     1099.194   0.98408323 
   94000     288.8977   -570.33166    140034.09   -41098.735    3967.3142   -45066.049    1100.9514   0.98437831 
   94100    289.11246   -417.33883     140010.9   -41068.608    3970.2634   -45038.872    1101.1177   0.98454134 
   94200    292.03297   -703.59983    140014.29   -41079.277    4010.3696   -45089.647    1102.4948   0.98451749 
   94300    293.30534   -363.37097    140309.94   -41028.466    4027.8425   -45056.309    1104.3001   0.98244301 
   94400    290.05216   -654.46995     140392.7    -41120.88    3983.1679   -45104.048    1106.3982   0.98186383 
   94500    288.19212   -226.70581    140384.14   -41171.791    3957.6248   -45129.415    1106.8156   0.98192374 
   94600    289.42522   -458.91419     140781.7   -41189.605    3974.5585   -45164.164    1110.5063   0.97915084 
   94700    291.91974   -520.90451    140707.58    -41077.32    4008.8146   -45086.134    1111.8951    0.9796666 
   94800    294.29433   -641.62292    140896.32   -41008.952    4041.4239   -45050.376    1112.8334   0.97835424 
   94900    294.39515   -397.42308    140761.21   -41054.719    4042.8084   -45097.528     1113.771   0.97929337 
   95000    294.92294   -767.46153    140908.85   -41054.934    4050.0564   -45104.991    1115.0246   0.97826724 
   95100    298.45391   -787.28862     140650.9   -40938.053    4098.5458   -45036.599    1114.7405   0.98006137 
   95200    287.32384   -431.51395    140577.76   -41024.423    3945.7011   -44970.124    1116.4591   0.98057127 
   95300    293.18223   -531.40004    140585.22   -40954.811     4026.152   -44980.963    1116.9158   0.98051929 
   95400    289.85122   -684.85753    140516.25   -40937.086    3980.4086   -44917.494    1116.6903   0.98100057 
   95500    291.53488   -111.59963    140211.92   -41015.296    4003.5296   -45018.825    1115.7837   0.98312977 
   95600    293.49285    -461.7954    140385.14   -41031.357    4030.4175   -45061.775    1116.8589   0.98191675 
   95700    292.93133   -817.12938    140185.33   -41013.458    4022.7064   -45036.165     1117.107    0.9833163 
   95800    286.14423    -298.8785    140213.09   -41036.112     3929.502   -44965.614    1118.1683   0.98312158 
   95900    297.42835   -541.59428    140329.81   -40984.111    4084.4621   -45068.573    1119.2224   0.98230385 
   96000    296.86924   -343.33711    140335.18   -40959.448    4076.7842   -45036.232    1119.1348   0.98226628 
   96100    290.92104   -769.10321    140115.83   -40933.249    3995.0999   -44928.349    1119.5103   0.98380404 
   96200    289.39485   -315.48044    140047.64   -40959.259    3974.1414   -44933.401    1120.4858   0.98428303 
   96300    292.53425   -580.17135    140102.05   -40949.193    4017.2534   -44966.446    1122.3496   0.98390076 
   96400    294.30777   -608.15622    140113.39   -40955.393    4041.6085   -44997.002    1124.6103   0.98382113 
   96500    295.33901   -423.04581    140124.29   -40949.821    4055.7701   -45005.591    1126.0205   0.98374465 
   96600    297.10483   -418.81465    140234.39   -40917.668    4080.0194   -44997.687    1129.0461   0.98297227 
   96700    296.03114   -483.65084    140253.25   -40840.032    4065.2748   -44905.307     1131.142   0.98284008 
   96800    291.10483   -679.42175    139938.71    -40823.46    3997.6239   -44821.084    1129.3919   0.98504924 
   96900    299.37106   -618.38011    139614.71   -40877.122    4111.1406   -44988.262    1128.8864   0.98733521 
   97000     291.1891    -487.9206    139667.15   -40907.607    3998.7811   -44906.388    1130.7573   0.98696447 
   97100     295.0086   -503.42993    140023.85   -40912.884    4051.2327   -44964.117    1134.5562   0.98445029 
   97200    296.70845   -623.95426    139882.21   -40967.748    4074.5761   -45042.324    1135.4482   0.98544706 
   97300    289.36575    -407.8893    139859.04   -41014.276    3973.7418   -44988.018    1137.0555   0.98561037 
   97400    292.54438   -454.49775    139816.05   -40956.544    4017.3926   -44973.936    1138.9431    0.9859134 
   97500    293.13232   -826.88743    139818.27   -40908.616    4025.4665   -44934.083    1139.7483   0.98589776 
   97600    289.24724      -461.18    139668.48   -40975.797    3972.1143   -44947.911    1140.2092   0.98695508 
   97700    290.34163   -669.03886    139528.99   -40996.509    3987.1431   -44983.652    1142.2566   0.98794178 
   97800    289.60564   -354.39312    139695.35   -40993.098     3977.036   -44970.134    1145.2412   0.98676525 
   97900    294.60287   -409.36472     139976.3   -40864.371     4045.661   -44910.032    1147.1216    0.9847847 
   98000    297.71034   -471.72858    139996.83   -40899.395    4088.3346   -44987.729    1148.7104   0.98464026 
   98100    292.75681   -407.41278    139807.35   -40933.222    4020.3098   -44953.532    1149.3795   0.98597477 
   98200    294.13612   -391.99743    139910.14   -40870.116    4039.2513   -44909.367    1151.0018   0.98525036 
   98300    296.68706   -590.27851    140178.39   -40826.004    4074.2824   -44900.286    1153.3821   0.98336493 
   98400    291.69358   -515.31234    140161.91   -40883.526    4005.7089   -44889.235     1154.352   0.98348058 
   98500    296.27646   -469.57081    140317.52   -40899.249    4068.6437   -44967.893    1157.8641   0.98238993 
   98600    292.85381   -448.55538    140354.09    -40956.27    4021.6418   -44977.912    1159.9266   0.98213393 
   98700    291.79122   -427.08233    140371.16   -40964.053    4007.0498   -44971.102    1162.0369   0.98201453 
   98800    297.04999   -457.40585    140074.27   -41030.065    4079.2663   -45109.331    1162.1741   0.98409592 
   98900     300.1772   -655.47488    140307.71    -40949.42     4122.211   -45071.631    1163.9562   0.98245861 
   99000    288.31344   -348.53974    140275.42   -40940.798    3959.2908   -44900.089    1165.5318   0.98268479 
   99100    290.58158   -483.52322    140204.23   -40967.059    3990.4383   -44957.497    1165.6369    0.9831837 
   99200    294.11746   -418.19169    140085.37    -40953.31    4038.9951   -44992.305    1166.8677   0.98401796 
   99300    295.36568   -531.91887    139748.09   -40951.773    4056.1363   -45007.909    1165.7549   0.98639287 
   99400    293.49573   -511.87707     140027.2   -40923.683    4030.4571    -44954.14    1168.4629   0.98442673 
   99500    296.81606   -443.15201     140036.3   -40963.693    4076.0539   -45039.747    1169.5954   0.98436273 
   99600      294.109   -560.54371    140308.83    -41032.38    4038.8789   -45071.259    1173.5859   0.98245077 
   99700    290.67726   -736.93134    140332.45   -40998.124    3991.7522   -44989.876    1175.7235   0.98228538 
   99800    290.81794    -649.0284     139978.7   -41018.112    3993.6841   -45011.796    1174.2137   0.98476782 
   99900    295.68179   -298.76457    140038.22   -40943.764    4060.4774   -45004.241    1176.1328   0.98434922 
  100000    292.92636   -789.33001    139832.42    -41006.68    4022.6381   -45029.319    1177.3635   0.98579796 
  100100    289.25271   -103.57109    140182.96   -41025.455    3972.1895   -44997.644    1179.4969   0.98333292 
  100200    296.16798   -491.29878    140246.91   -40924.215     4067.154   -44991.369    1180.5305   0.98288449 
  100300    291.21753    -759.1522    140290.45   -40969.372    3999.1715   -44968.543    1182.3528   0.98257945 
  100400    292.79848   -555.26702    140189.08   -40972.773     4020.882   -44993.655    1182.9654   0.98328998 
  100500    290.01215    -501.2613    140292.37   -41020.606    3982.6184   -45003.225    1184.4868   0.98256605 
  100600    291.04847   -408.64674    140609.12   -40972.673    3996.8499   -44969.523    1187.3269    0.9803526 
  100648    291.29252   -678.70272    140634.65   -40953.837    4000.2013   -44954.038    1187.7459   0.98017461 
Loop time of 117.321 on 6 procs for 100000 steps with 4608 atoms

Performance: 368.221 ns/day, 0.065 hours/ns, 852.364 timesteps/s
99.0% CPU use with 6 MPI tasks x no OpenMP threads

MPI task timing breakdown:
Section |  min time  |  avg time  |  max time  |%varavg| %total
---------------------------------------------------------------
Pair    | 97.608     | 98.8       | 101.11     |  12.6 | 84.21
Neigh   | 7.0529     | 7.2292     | 7.6375     |   8.5 |  6.16
Comm    | 6.4188     | 8.5801     | 9.7748     |  37.9 |  7.31
Output  | 0.17254    | 0.17335    | 0.1769     |   0.4 |  0.15
Modify  | 1.8383     | 1.918      | 2.0141     |   4.0 |  1.63
Other   |            | 0.6201     |            |       |  0.53

Nlocal:        768.000 ave         774 max         761 min
Histogram: 1 1 0 0 0 1 1 0 0 2
Nghost:        1568.17 ave        1585 max        1552 min
Histogram: 1 0 0 0 3 1 0 0 0 1
Neighs:        0.00000 ave           0 max           0 min
Histogram: 6 0 0 0 0 0 0 0 0 0
FullNghs:      21867.3 ave       22202 max       21546 min
Histogram: 1 1 0 1 0 0 1 0 1 1

Total # of neighbors = 131204
Ave neighs/atom = 28.473090
Neighbor list builds = 7073
Dangerous builds = 0

undump              1
unfix               2
unfix               3
unfix               4


################################################
#######         Run Simulation         #########
################################################

reset_timestep      0
log                 log.run_${NAME}
log                 log.run_liq_293K_-500atm_ML
