
# Define the lattice
#
variable	    lattice_constant equal 6.36339
lattice		    diamond ${lattice_constant}
lattice		    diamond 6.36339
Lattice spacing in x,y,z = 6.3633900 6.3633900 6.3633900

# Define region
# multiples of lattice spacing
#
region 		    simbox block 0 9 0 8 0 8

# Create Atoms
#
create_box          1 simbox
Created orthogonal box = (0.0000000 0.0000000 0.0000000) to (57.270510 50.907120 50.907120)
  3 by 1 by 2 MPI processor grid
create_atoms        1 box
Created 4608 atoms
  create_atoms CPU = 0.001 seconds
mass                1 18.015

# Define potential
#
pair_style          sw
pair_coeff          * * /data/emrosky-sim/Freezing_Simulations/Melting/MLmW_fancy/ML_mW.sw mW
Reading sw potential file /data/emrosky-sim/Freezing_Simulations/Melting/MLmW_fancy/ML_mW.sw with DATE: 2019-02-27

# Add velocity/set timestep
#
velocity            all create ${TEMP} 120598 rot yes dist gaussian
velocity            all create 293 120598 rot yes dist gaussian
timestep            5.0

# Define output
#
compute	            1 all msd
thermo              100
thermo_style        custom step temp press vol etotal ke pe c_1[4]

# Neighbor lists
#
neigh_modify        delay 0 every 1 check yes

# Set fixes
#
fix                 1 all momentum 10 linear 1 1 1 rescale
fix                 2 all nve
fix                 3 all temp/csvr ${TEMP} ${TEMP} 500.0 928347
fix                 3 all temp/csvr 293 ${TEMP} 500.0 928347
fix                 3 all temp/csvr 293 293 500.0 928347
fix                 4 all press/berendsen iso ${PRES} ${PRES} 1000.0 modulus 20000
fix                 4 all press/berendsen iso -500 ${PRES} 1000.0 modulus 20000
fix                 4 all press/berendsen iso -500 -500 1000.0 modulus 20000

# Run 0.5 ns equilibration
#
dump		    1 all custom 1000 eq.${NAME}.dump id type x y z vx vy vz
dump		    1 all custom 1000 eq.ice_293K_-500atm_ML.dump id type x y z vx vy vz
run                 100000
Neighbor list info ...
  update every 1 steps, delay 0 steps, check yes
  max neighbors/atom: 2000, page size: 100000
  master list distance cutoff = 6.0032907
  ghost atom cutoff = 6.0032907
  binsize = 3.0016454, bins = 20 17 17
  1 neighbor lists, perpetual/occasional/extra = 1 0 0
  (1) pair sw, perpetual
      attributes: full, newton on
      pair build: full/bin/atomonly
      stencil: full/bin/3d
      bin: standard
Per MPI rank memory allocation (min/avg/max) = 4.779 | 4.779 | 4.779 Mbytes
Step Temp Press Volume TotEng KinEng PotEng c_1[4] 
       0          293   -623.02534    148418.52   -51873.535    4023.6494   -55897.184            0 
     100    194.24268    -359.6607    148361.46    -50234.33    2667.4555   -52901.785  0.096059436 
     200    224.66861   -399.84659    148684.57    -49260.66    3085.2823   -52345.942   0.10771644 
     300    247.64979   -450.02602     148891.9   -48643.159    3400.8735   -52044.032   0.13112546 
     400    263.10269   -469.15967    149033.39   -48233.782    3613.0819   -51846.864   0.13498629 
     500     278.5747   -447.93213    149134.74   -47946.739    3825.5526   -51772.291   0.13324181 
     600     286.4937   -454.27956    149216.97    -47670.94    3934.3011   -51605.242   0.14769752 
     700    289.74029   -512.09544    149276.49   -47624.165    3978.8852   -51603.051   0.13619307 
     800    288.48494    -528.4622    149295.59   -47528.196     3961.646   -51489.842   0.15090686 
     900    295.14555   -524.84672    149295.35   -47507.465    4053.1134   -51560.579   0.15084432 
    1000    291.27399    -511.6083    149272.21   -47554.923    3999.9468    -51554.87   0.14351786 
    1100    292.44689   -523.26319    149302.26   -47496.848    4016.0538   -51512.901   0.14077378 
    1200    291.01642   -493.33637    149306.03     -47486.5    3996.4097   -51482.909   0.14889259 
    1300    292.47637   -539.20356    149302.32   -47409.571    4016.4587    -51426.03   0.14951916 
    1400    291.51927   -511.82499    149324.81   -47511.938    4003.3152   -51515.254   0.14717976 
    1500    289.78872   -517.54116    149270.89   -47537.201    3979.5502   -51516.751   0.14224149 
    1600    293.88387   -460.34282    149273.53   -47471.696    4035.7873   -51507.483   0.14825596 
    1700    292.78338   -461.21382    149272.61   -47496.134    4020.6747   -51516.809    0.1432765 
    1800    293.59731   -485.64888    149247.35   -47491.098    4031.8521    -51522.95    0.1484461 
    1900    291.59025   -510.86857    149302.06   -47398.869    4004.2899   -51403.159   0.15088999 
    2000    298.47094   -530.72586    149351.26   -47345.562    4098.7796   -51444.342   0.14084598 
    2100    292.60055   -535.91192    149322.46   -47520.526    4018.1639    -51538.69   0.14903668 
    2200    291.52502   -489.88206    149301.28   -47444.751    4003.3941   -51448.145   0.13420083 
    2300    294.52884   -537.51319    149301.71   -47381.024    4044.6444   -51425.668   0.15711758 
    2400    297.54675   -472.67088     149308.5   -47406.786    4086.0881   -51492.874   0.14678438 
    2500    299.75356   -465.73274    149314.42   -47458.243    4116.3933   -51574.636   0.13495622 
    2600    289.38393   -516.81035    149303.54   -47490.632    3973.9915   -51464.623    0.1518744 
    2700    298.09544   -450.07123    149316.92   -47460.909    4093.6231   -51554.532   0.13088785 
    2800    302.14127   -472.42941    149304.85   -47357.989    4149.1827   -51507.172   0.14995678 
    2900    299.17319   -501.77986       149329   -47388.065    4108.4234   -51496.489   0.14818292 
    3000    292.53306   -497.69366    149282.05   -47444.013    4017.2372    -51461.25   0.14953436 
    3100    291.61123   -500.32164     149305.4   -47419.195    4004.5781   -51423.773   0.14926005 
    3200    297.62922   -469.80002     149292.5   -47530.883    4087.2206   -51618.104   0.14194622 
    3300     296.3369    -481.0594    149244.51   -47587.625    4069.4737   -51657.098   0.13262734 
    3400    286.39987   -522.75164    149252.98   -47518.547    3933.0125   -51451.559   0.14974526 
    3500     292.8395   -525.74074     149263.5   -47487.448    4021.4454   -51508.893   0.14679497 
    3600    290.57689   -487.46521    149283.05   -47485.398    3990.3738   -51475.772   0.14793137 
    3700    290.02149   -496.80063    149273.32   -47447.032    3982.7468   -51429.778   0.14913482 
    3800    291.67212    -504.5943     149293.7   -47437.652    4005.4142   -51443.066    0.1528309 
    3900    291.77332   -477.98281    149290.99   -47444.115    4006.8039   -51450.919   0.15129624 
    4000    292.27294   -519.84023    149286.08    -47496.34     4013.665   -51510.005   0.14472475 
    4100    292.37217   -518.50368    149266.29    -47509.41    4015.0277   -51524.437    0.1556019 
    4200     287.2603   -518.76941    149276.22   -47468.123    3944.8284   -51412.951    0.1415752 
    4300    288.25301   -525.45146    149233.09   -47599.029    3958.4609    -51557.49   0.15615968 
    4400     291.2702   -523.32895    149267.76   -47491.668    3999.8948   -51491.563   0.14168828 
    4500    290.58041    -486.4343     149270.3   -47550.202    3990.4222   -51540.624   0.15107985 
    4600    291.34305    -486.9124    149246.27   -47579.435    4000.8952    -51580.33   0.14430929 
    4700    296.19747   -486.05239    149263.68   -47481.051     4067.559    -51548.61   0.13794859 
    4800    296.38501   -433.81333    149271.32   -47373.117    4070.1345   -51443.251   0.14854178 
    4900    297.20642   -452.93757    149296.89   -47344.503    4081.4145   -51425.918   0.14764858 
    5000    292.40987    -507.9072    149280.33    -47477.27    4015.5454   -51492.816   0.15038087 
    5100     294.2491   -511.58274    149271.35   -47406.716    4040.8028   -51447.519   0.14839268 
    5200    291.11547   -474.46825    149276.72   -47472.166    3997.7699   -51469.936   0.15112535 
    5300    289.69845   -505.76061    149246.93    -47579.36    3978.3106   -51557.671   0.14288203 
    5400    292.99348    -448.3245    149252.58   -47546.292    4023.5599   -51569.852   0.14245107 
    5500    293.01907   -505.98085    149241.67   -47505.434    4023.9113   -51529.345   0.14997471 
    5600    293.26476   -504.58535    149236.34   -47550.146    4027.2852   -51577.432   0.14567145 
    5700    290.48222   -538.33107     149244.5   -47538.481    3989.0738   -51527.554   0.14503426 
    5800    293.39996    -499.4153    149271.25    -47482.91    4029.1419   -51512.052   0.14849659 
    5900    287.73996   -500.19304     149269.1   -47557.045    3951.4155    -51508.46   0.14544922 
    6000     292.1378   -515.83491    149260.69   -47536.944    4011.8093   -51548.754    0.1458811 
    6100    286.77693   -492.61938     149249.5    -47618.35    3938.1906    -51556.54   0.14425604 
    6200    293.53649   -501.01608     149233.4   -47593.581    4031.0168   -51624.598   0.14417184 
    6300    290.56915   -499.42753    149270.22   -47469.718    3990.2676   -51459.985   0.15512072 
    6400    291.49017   -522.04657    149275.86   -47529.196    4002.9156   -51532.111   0.14460174 
    6500    288.70598   -465.04763    149260.52   -47541.484    3964.6814   -51506.165   0.14764983 
    6600     294.3335    -491.7909    149244.62   -47546.892    4041.9619   -51588.854   0.14313533 
    6700    289.59817   -497.98763    149249.89   -47606.137    3976.9334   -51583.071    0.1430366 
    6800    287.55817   -505.85498     149240.7   -47554.128     3948.919   -51503.047   0.14329923 
    6900    294.57757   -490.45167    149280.93   -47479.873    4045.3135   -51525.186   0.14451919 
    7000    290.04599   -491.66739    149274.72   -47478.053    3983.0833   -51461.136   0.15430798 
    7100    291.18281   -504.16705       149301   -47490.214    3998.6947   -51488.909   0.13823483 
    7200     292.8798   -445.72533    149277.03   -47602.234    4021.9987   -51624.233   0.14675273 
    7300    287.55424   -501.35455    149268.65   -47654.797    3948.8651   -51603.662   0.13556472 
    7400     294.1455   -467.44041    149293.45   -47541.036    4039.3802   -51580.416    0.1414163 
    7500    296.17756   -468.12224     149299.7   -47471.772    4067.2855   -51539.057    0.1434937 
    7600    290.94883   -485.59104    149309.66   -47448.123    3995.4815   -51443.605   0.14672326 
    7700    290.94101   -512.07758    149298.92   -47542.485    3995.3741   -51537.859   0.14779412 
    7800    288.49835   -480.02538    149291.37   -47604.604    3961.8301   -51566.434   0.14668436 
    7900    291.63181   -485.74989    149293.43   -47546.384    4004.8606   -51551.244   0.14092822 
    8000    297.06001     -523.571    149302.39   -47443.274    4079.4039   -51522.678   0.14511489 
    8100    293.42439   -452.37451    149304.27   -47401.688    4029.4774   -51431.166   0.14618474 
    8200     294.6444   -468.94297    149298.24   -47425.383    4046.2313   -51471.614   0.14409124 
    8300     296.0498   -473.02208    149308.35   -47387.785    4065.5311   -51453.316   0.15775778 
    8400    297.85154   -464.90889     149336.1   -47364.647    4090.2737   -51454.921    0.1434992 
    8500    294.28183    -507.5005    149318.74   -47450.732    4041.2523   -51491.984   0.15090049 
    8600    293.95914   -507.32202    149297.74   -47466.964    4036.8209   -51503.785   0.14249384 
    8700    294.86981   -478.15685    149292.67   -47435.367    4049.3268   -51484.694   0.15505683 
    8800    291.13372   -492.46037    149271.69   -47476.362    3998.0205   -51474.383   0.14694464 
    8900    288.37646   -495.27658    149260.59   -47541.726    3960.1563   -51501.882   0.15549301 
    9000    289.76094   -485.81363     149252.1   -47458.573    3979.1688   -51437.742   0.15160014 
    9100    290.43219    -538.2939    149281.66   -47517.267    3988.3867   -51505.654   0.14556975 
    9200    291.00849   -500.12282    149285.04   -47401.801    3996.3009   -51398.101   0.16003712 
    9300    291.05371   -525.04023    149267.11   -47562.348    3996.9218   -51559.269   0.14168361 
    9400    291.69962   -456.92435    149269.95       -47523    4005.7918   -51528.792   0.14958307 
    9500    293.37518   -464.05399    149278.66    -47569.19    4028.8016   -51597.991    0.1439395 
    9600    290.07017   -501.89762    149269.77   -47560.178    3983.4152   -51543.593   0.14413551 
    9700    296.77088   -496.98994    149280.68   -47433.568    4075.4333   -51509.001   0.15098284 
    9800    297.54283    -492.0291    149328.72   -47393.881    4086.0342   -51479.915   0.14908622 
    9900    294.63659   -511.09766    149323.51   -47423.189     4046.124   -51469.313   0.14801175 
   10000     293.5609   -489.50795    149318.21   -47480.937    4031.3521    -51512.29   0.14843546 
   10100    297.25953    -453.4952    149307.35   -47425.959    4082.1439   -51508.103   0.14540419 
   10200    292.13092   -497.95114     149347.4     -47398.1    4011.7147   -51409.814    0.1519302 
   10300    290.73549   -539.98722    149313.27   -47396.851    3992.5518   -51389.403   0.16002924 
   10400    295.17791    -509.3918    149292.06   -47392.948    4053.5578   -51446.506   0.15173408 
   10500    294.85838   -493.67668    149293.98    -47446.02    4049.1698    -51495.19   0.15214821 
   10600    296.22237   -496.07203    149291.39    -47470.37    4067.9009   -51538.271   0.14770062 
   10700    293.62549   -481.69972    149258.13   -47491.852     4032.239   -51524.091   0.14759027 
   10800    292.68403   -509.23474    149246.19   -47628.413    4019.3103   -51647.723   0.14375802 
   10900    287.38306   -544.70706    149220.56   -47613.983    3946.5143   -51560.497   0.15857428 
   11000    286.57437   -542.30259    149215.31   -47628.442    3935.4088   -51563.851   0.15080957 
   11100    291.31337   -516.90047    149264.76   -47535.352    4000.4876    -51535.84    0.1476774 
   11200     285.3085   -471.03159    149265.44   -47642.493    3918.0251   -51560.519   0.15090124 
   11300    293.81152   -426.90211    149266.66   -47557.789    4034.7937   -51592.583   0.13778717 
   11400    293.54833   -469.18798    149275.56    -47536.18    4031.1794   -51567.359   0.15015055 
   11500    295.36116   -476.47392    149275.55   -47432.285    4056.0742    -51488.36    0.1462288 
   11600    293.79388   -532.87973    149297.64   -47438.591    4034.5515   -51473.143    0.1557139 
   11700    294.30636    -507.7404    149343.16   -47303.248    4041.5892   -51344.837    0.1519838 
   11800    296.17859   -518.03197    149311.14   -47374.693    4067.2997   -51441.993   0.15201264 
   11900    294.65729   -479.02787    149292.85   -47420.396    4046.4083   -51466.805   0.15001123 
   12000    295.39652   -518.51064    149311.38   -47380.802    4056.5598   -51437.362   0.15583633 
   12100    297.26575   -494.69465    149288.62   -47435.528    4082.2292   -51517.757    0.1462396 
   12200    296.92294   -544.47167    149285.89   -47436.888    4077.5216    -51514.41   0.14669507 
   12300    290.14267   -517.61248    149249.29   -47493.583    3984.4109   -51477.994   0.15408005 
   12400    292.11081   -512.22528    149265.84   -47487.694    4011.4386   -51499.133   0.14621108 
   12500     292.5517   -497.45627    149246.26   -47413.251    4017.4932   -51430.744   0.15782288 
   12600    301.84584   -475.16032    149272.36   -47377.454    4145.1257   -51522.579   0.14706041 
   12700    298.03002   -503.88663    149249.32   -47459.353    4092.7246   -51552.077   0.15116165 
   12800    295.79972   -488.79662    149247.26    -47439.55    4062.0969   -51501.647    0.1451632 
   12900     296.3178   -476.86144    149232.94    -47505.96    4069.2115   -51575.172   0.14940934 
   13000    292.32401    -493.4322    149232.89   -47474.785    4014.3663   -51489.151   0.14734756 
   13100    292.40074   -495.40795    149248.54   -47554.496      4015.42   -51569.916   0.14739937 
   13200    289.83147   -474.82593    149237.93   -47582.658    3980.1374   -51562.796   0.14315804 
   13300    288.18352   -483.51524    149232.83   -47666.402    3957.5066   -51623.909   0.14341303 
   13400    286.94596    -490.3603     149176.3   -47645.335    3940.5118   -51585.846   0.15056715 
   13500    295.10938   -501.72194    149227.25   -47558.841    4052.6167   -51611.458   0.14501028 
   13600    295.26803   -480.68986    149241.65   -47505.137    4054.7954   -51559.932   0.15236798 
   13700    293.48338   -514.77165    149248.71   -47543.627    4030.2875   -51573.915   0.14461692 
   13800    296.87525   -517.08777    149243.74   -47486.855    4076.8667   -51563.722   0.15010157 
   13900    293.82354   -518.75047    149243.35   -47479.439    4034.9588   -51514.398    0.1473052 
   14000    296.23138   -475.41921    149264.28   -47362.523    4068.0247   -51430.548   0.15164865 
   14100    292.11258   -488.13893     149235.7   -47450.364    4011.4628   -51461.827     0.150781 
   14200    291.66207   -486.31453    149265.47   -47466.283    4005.2761    -51471.56   0.14732561 
   14300    293.60735   -501.79502    149275.35   -47501.978    4031.9899   -51533.968   0.14979087 
   14400    292.35533   -533.02597    149260.21   -47560.713    4014.7964    -51575.51    0.1455722 
   14500    289.97171   -514.81471    149262.13   -47581.018    3982.0632   -51563.082   0.14811483 
   14600    294.53136   -514.90459    149264.53   -47531.142     4044.679   -51575.821   0.14449551 
   14700    293.67504   -496.29802    149294.24   -47483.078    4032.9195   -51515.997   0.14567364 
   14800    297.21068   -453.82072    149305.79   -47456.715     4081.473   -51538.188   0.14681015 
   14900    294.16662   -518.24793    149301.43   -47470.045    4039.6701   -51509.715   0.14789332 
   15000    291.78957   -516.93341     149263.8   -47528.676    4007.0271   -51535.703   0.14798678 
   15100    289.31367   -506.96521       149258   -47544.119    3973.0266   -51517.145   0.14407792 
   15200    295.31594   -495.98715    149270.67   -47473.098    4055.4533   -51528.551   0.15035025 
   15300    291.89144   -525.14148    149255.43   -47562.193    4008.4261   -51570.619   0.14717766 
   15400    293.85111   -486.38687    149259.74   -47546.931    4035.3373   -51582.269    0.1441442 
   15500    294.13996   -480.96745    149269.29   -47482.061    4039.3041   -51521.365   0.14710964 
   15600    298.10892   -468.48043    149301.44   -47356.385    4093.8082   -51450.193    0.1533913 
   15700    290.67323    -513.4739    149305.44   -47376.257    3991.6968   -51367.953    0.1512008 
   15800    296.53708     -521.013    149294.53   -47381.385    4072.2227   -51453.608   0.16299718 
   15900     296.7091   -512.08461    149307.59   -47405.531     4074.585   -51480.116   0.14789571 
   16000    292.27045   -514.72174     149276.9   -47453.767    4013.6309   -51467.398   0.15489617 
   16100    297.21319   -510.37411    149229.44   -47482.352    4081.5075   -51563.859   0.14795553 
   16200    294.06171   -509.00778    149264.01   -47498.133    4038.2294   -51536.363   0.14600096 
   16300    290.02233   -507.42789     149243.9   -47509.843    3982.7584   -51492.601   0.16009629 
   16400     288.9001   -515.86673    149287.35   -47527.716    3967.3471   -51495.063   0.14344797 
   16500    293.05786   -482.08782    149303.66   -47441.663     4024.444   -51466.107   0.15193937 
   16600     293.5729   -470.49118    149294.38   -47364.072    4031.5168   -51395.589   0.15177461 
   16700    296.90939   -486.02379       149290   -47408.159    4077.3355   -51485.495    0.1543989 
   16800    289.71948   -519.75606    149293.98   -47461.515    3978.5994   -51440.115   0.15189378 
   16900    290.34931   -493.21593    149271.11   -47488.449    3987.2486   -51475.697   0.15731157 
   17000    291.70502   -517.46891    149272.68   -47542.991    4005.8659   -51548.857   0.14969433 
   17100    290.01032   -498.43159    149276.98   -47494.063    3982.5933   -51476.656   0.15046044 
   17200    293.92322   -478.42799     149232.2   -47545.874    4036.3277   -51582.201   0.14826036 
   17300    287.33413   -504.90058     149222.5   -47643.414    3945.8423   -51589.257   0.14561457 
   17400    286.81411   -509.39538    149230.93   -47638.842    3938.7011   -51577.543   0.14882179 
   17500    292.95524   -463.06537    149243.44   -47528.381    4023.0347   -51551.415   0.14797773 
   17600    292.66042   -516.33448    149246.96   -47541.793    4018.9861   -51560.779   0.14829926 
   17700    289.74949   -485.22062    149237.98   -47605.059    3979.0115    -51584.07   0.14979763 
   17800    292.78461   -493.80812    149220.36   -47548.771    4020.6916   -51569.463   0.15469858 
   17900    294.69116   -504.41004    149249.47   -47491.884    4046.8734   -51538.757   0.14973913 
   18000    301.89737    -482.3428    149277.68   -47402.648    4145.8334   -51548.481   0.15560543 
   18100    297.03962   -524.38507    149275.53   -47413.699    4079.1239   -51492.823   0.15133837 
   18200    293.93126   -511.68851    149261.85   -47456.816     4036.438   -51493.254   0.15349739 
   18300    294.55879   -499.85138     149258.6   -47461.172    4045.0557   -51506.228   0.15880034 
   18400    294.20792   -523.10229    149256.87   -47568.747    4040.2374   -51608.984   0.14888438 
   18500    292.44348   -487.98897    149230.39   -47496.611    4016.0069   -51512.618    0.1530854 
   18600    298.15182    -501.5805    149253.86   -47447.211    4094.3973   -51541.609   0.15151749 
   18700    295.00592   -490.03074    149231.34   -47460.206     4051.196   -51511.402   0.15148673 
   18800    292.71164   -521.73148    149209.11   -47476.646    4019.6895   -51496.336   0.15776253 
   18900    292.12677   -512.60419    149234.77   -47431.302    4011.6577    -51442.96   0.16283731 
   19000    294.10757   -520.52646    149238.14   -47463.429    4038.8592   -51502.288   0.15333665 
   19100    295.01431   -526.10401     149259.5   -47379.726    4051.3112   -51431.037   0.15983789 
   19200     294.7006   -505.76848     149239.9   -47406.782    4047.0031   -51453.785   0.15750088 
   19300    297.08117   -530.75664    149277.84   -47304.693    4079.6945   -51384.387   0.15868146 
   19400    298.69541   -513.29576    149268.71    -47365.23    4101.8622   -51467.092   0.16227301 
   19500    295.18505   -497.32577    149258.48   -47365.245    4053.6558     -51418.9   0.15127337 
   19600    299.41426   -504.96167    149247.88   -47356.582    4111.7339   -51468.316   0.15922554 
   19700    293.29123   -516.75212    149243.14   -47407.283    4027.6488   -51434.932   0.15272541 
   19800    300.32251   -492.67684    149231.78   -47355.653    4124.2065   -51479.859   0.15894374 
   19900    293.02324   -534.48356    149228.35   -47438.375    4023.9685   -51462.344   0.16008974 
   20000     292.8975   -521.62423    149230.71   -47464.936    4022.2419   -51487.178   0.15877474 
   20100    287.21831   -476.98937    149191.87   -47502.329    3944.2519   -51446.581   0.15285561 
   20200    291.41386   -504.19478    149202.87   -47484.729    4001.8676   -51486.597   0.15927244 
   20300    291.85115   -470.27371    149205.69   -47438.799    4007.8727   -51446.672   0.15924174 
   20400    285.05842   -572.91263    149222.62   -47510.551     3914.591   -51425.142   0.15915995 
   20500    288.38439   -517.39715    149204.64   -47546.232    3960.2652   -51506.498    0.1559424 
   20600    295.47551    -471.7658    149193.23   -47564.913    4057.6446   -51622.558   0.14880509 
   20700    295.13638   -513.37447    149187.36   -47509.029    4052.9874   -51562.017   0.15620721 
   20800    297.37166   -452.27081    149213.45   -47360.403    4083.6836   -51444.086    0.1533911 
   20900    294.54396   -508.08452    149232.45   -47463.972    4044.8521   -51508.824   0.15912461 
   21000    292.03668   -497.01097    149224.71   -47485.471    4010.4205   -51495.892   0.14813576 
   21100    298.89691   -469.42767    149256.28   -47370.525    4104.6292   -51475.154   0.15741798 
   21200    291.27763   -514.03512    149244.25   -47384.251    3999.9968   -51384.247   0.15525177 
   21300    296.72172   -531.55153    149254.08   -47388.265    4074.7582   -51463.023   0.15595609 
   21400    294.78729   -490.51428    149234.23   -47422.004    4048.1935   -51470.197   0.15735415 
   21500    300.01494   -476.54369    149260.77   -47329.833    4119.9828   -51449.816   0.14887557 
   21600    298.16378   -466.94481    149272.04   -47336.411    4094.5615   -51430.972   0.15949472 
   21700     291.3442   -522.78712    149249.91    -47471.95     4000.911   -51472.861   0.15159975 
   21800      294.782   -499.94994    149242.61   -47507.555    4048.1209   -51555.676   0.14897684 
   21900    292.14275   -508.17508    149231.84   -47480.706    4011.8772   -51492.583   0.15266713 
   22000    293.78452   -493.47422     149222.8   -47518.288    4034.4229   -51552.711   0.15046316 
   22100    291.61809   -482.99502    149189.41    -47558.05    4004.6723   -51562.723   0.15365789 
   22200    292.58792   -517.99783    149182.08    -47642.28    4017.9905    -51660.27   0.14749592 
   22300    288.73789   -479.13557    149191.09   -47524.014    3965.1196   -51489.134   0.15259895 
   22400    292.67759   -495.61868    149219.41    -47474.87     4019.222   -51494.092   0.15567321 
   22500    295.22281   -513.80887    149231.55   -47423.146    4054.1743   -51477.321   0.15300813 
   22600    297.76897   -469.87749    149229.39   -47464.989    4089.1398   -51554.129   0.15192843 
   22700     288.9526   -511.80316    149210.53   -47527.881    3968.0682    -51495.95   0.15476008 
   22800    298.62532   -492.48561    149234.33   -47450.111    4100.8997    -51551.01   0.14778938 
   22900    288.35719   -506.35418    149235.12   -47487.563    3959.8917   -51447.454   0.15790112 
   23000    295.26913   -500.70363    149213.16   -47555.258    4054.8105   -51610.069   0.14243836 
   23100    292.02215   -517.01707    149243.08    -47500.41     4010.221   -51510.631   0.15301974 
   23200    295.23898   -481.03622    149267.89   -47447.939    4054.3964   -51502.335   0.14942244 
   23300    294.81216   -486.67537    149265.71   -47448.041    4048.5351   -51496.576   0.14977264 
   23400    294.16407   -496.82227    149263.44   -47498.666    4039.6351   -51538.302   0.15498126 
   23500     297.3791   -450.24455    149276.94   -47384.789    4083.7858   -51468.574   0.14832242 
   23600    287.91961   -465.44236    149274.17   -47392.222    3953.8825   -51346.105   0.16178057 
   23700    297.55574   -484.02696    149281.24   -47389.072    4086.2116   -51475.284   0.14743877 
   23800    300.61116   -479.14851    149283.12   -47402.619    4128.1704   -51530.789   0.15844691 
   23900    292.62754   -507.49948    149250.78   -47491.082    4018.5345   -51509.616   0.14887695 
   24000    299.87574   -445.29502    149265.53   -47442.709    4118.0711    -51560.78   0.15496482 
   24100    294.90739   -512.93279    149253.61   -47367.333    4049.8429   -51417.176   0.15540474 
   24200    289.24662   -542.22167    149224.71   -47494.654    3972.1058    -51466.76    0.1547114 
   24300    292.32218   -490.92156    149209.66   -47536.702    4014.3412   -51551.044   0.15288993 
   24400    289.85917   -512.10069    149200.79   -47559.778    3980.5177   -51540.295   0.15186494 
   24500    293.73101   -500.99951    149224.29   -47514.145    4033.6881   -51547.833   0.14972525 
   24600    293.83087   -490.77558    149200.55   -47562.418    4035.0595   -51597.477   0.14937094 
   24700    287.14862   -522.46975    149205.17   -47562.806    3943.2948   -51506.101   0.15344083 
   24800     288.6179   -476.10778    149236.01   -47504.661    3963.4719   -51468.132   0.14879796 
   24900    292.55918   -470.74246     149237.6   -47569.964    4017.5958    -51587.56   0.15592274 
   25000    290.55736   -492.95248    149235.26   -47551.548    3990.1056   -51541.654   0.14423873 
   25100    291.06906   -483.89301    149223.98   -47602.276    3997.1327   -51599.409   0.15085086 
   25200    286.04859   -509.26622    149192.78   -47737.496    3928.1886   -51665.684   0.14161493 
   25300    290.87479   -483.31136    149228.96   -47571.015    3994.4648    -51565.48   0.14626697 
   25400    286.53218    -457.4058     149237.9   -47610.604    3934.8295   -51545.434   0.14948486 
   25500    291.94633   -503.26391    149262.22   -47497.674    4009.1798   -51506.854   0.14904369 
   25600    298.17035   -484.39224    149297.19   -47418.646    4094.6517   -51513.298   0.14985709 
   25700    290.27762   -528.67308    149285.11   -47508.676    3986.2641    -51494.94   0.14957095 
   25800     296.2947   -493.24134    149295.24   -47363.485    4068.8941   -51432.379   0.15696633 
   25900    294.78862   -526.02807    149275.32   -47387.264    4048.2118   -51435.475   0.15494186 
   26000     296.7078   -505.42051    149262.19   -47437.329    4074.5671   -51511.896   0.15227035 
   26100    296.63948   -510.03067    149283.13   -47418.714     4073.629   -51492.343   0.14517179 
   26200    288.23725   -516.99663    149247.65   -47529.448    3958.2445   -51487.693    0.1516746 
   26300    291.12264   -491.89362    149222.92   -47483.266    3997.8684   -51481.135   0.15330788 
   26400    289.60087   -510.06829    149241.74   -47549.012    3976.9706   -51525.982    0.1453031 
   26500    292.75302   -481.41496    149245.52   -47455.256    4020.2577   -51475.514   0.15099741 
   26600    289.65653   -484.80047    149271.97   -47402.897    3977.7349   -51380.632    0.1511787 
   26700    295.14645   -502.96665    149279.12   -47405.316    4053.1258   -51458.442   0.15637017 
   26800    295.42079   -514.11681    149267.33   -47456.992    4056.8931   -51513.885    0.1503511 
   26900    294.88885    -494.4321    149280.54   -47393.141    4049.5883    -51442.73   0.15380476 
   27000    298.19201   -499.94086     149302.4   -47425.074    4094.9492   -51520.023   0.14701587 
   27100     294.7774   -476.59176    149279.35   -47366.841    4048.0577   -51414.899   0.15712082 
   27200    296.69658   -487.03795       149285   -47442.286    4074.4131   -51516.699   0.14667974 
   27300    297.97214   -434.60123    149317.13    -47268.13    4091.9298    -51360.06   0.15143656 
   27400    295.42352   -533.75891    149283.43   -47391.121    4056.9306   -51448.052   0.15561495 
   27500    292.83552   -498.66164    149281.54   -47509.382    4021.3907   -51530.772   0.14180458 
   27600    290.56507   -485.51738    149245.01   -47555.904    3990.2115   -51546.116   0.14896609 
   27700    298.19427   -474.33903       149248   -47451.559    4094.9802   -51546.539   0.14587053 
   27800    295.57938   -512.46858    149256.57   -47426.099    4059.0709    -51485.17   0.15303209 
   27900    292.06753   -499.82365    149243.93   -47484.651    4010.8442   -51495.496   0.14941591 
   28000    292.05624   -514.97025     149253.1   -47563.367    4010.6891   -51574.056    0.1485056 
   28100    293.11464   -487.23825    149247.77   -47539.382    4025.2237   -51564.606   0.14401519 
   28200    290.99061   -486.43352    149264.57   -47505.373    3996.0554   -51501.428   0.15281714 
   28300    291.38977   -502.41901    149224.48   -47521.915    4001.5368   -51523.452   0.14827144 
   28400     293.2759   -491.51785    149234.55   -47459.099    4027.4382   -51486.537   0.15033286 
   28500    291.34545   -501.42011    149234.81   -47489.814    4000.9281   -51490.742   0.15290756 
   28600    290.29862    -531.6652    149228.58   -47493.551    3986.5524   -51480.103   0.14779143 
   28700    295.22438   -465.23781    149245.34   -47492.121    4054.1959   -51546.317   0.15490349 
   28800    290.89389   -526.10451    149215.68   -47536.551     3994.727   -51531.278    0.1490959 
   28900    285.86442   -517.82651    149217.27   -47502.971    3925.6594    -51428.63   0.15543306 
   29000    291.66763    -496.3593    149216.36   -47442.447    4005.3526     -51447.8    0.1520529 
   29100    295.09471   -498.23833    149241.38   -47448.178    4052.4152   -51500.593    0.1516576 
   29200    292.66768     -504.833    149263.14   -47378.158    4019.0858   -51397.243   0.15614322 
   29300    299.75349    -468.4383    149294.14   -47385.324    4116.3923   -51501.716    0.1513843 
   29400    294.91299   -532.16724    149288.06   -47398.328    4049.9198   -51448.248   0.15284603 
   29500    295.24089   -530.08627     149283.8   -47445.778    4054.4226     -51500.2   0.15310591 
   29600    296.66652   -491.64105    149268.26   -47409.703    4074.0003   -51483.703   0.15325861 
   29700    295.20108   -531.37755    149248.92   -47489.839     4053.876   -51543.715   0.15137468 
   29800    292.42007   -504.62886    149225.48   -47586.042    4015.6855   -51601.727   0.15071364 
   29900    290.63508   -486.87131    149250.19   -47563.585    3991.1729   -51554.758    0.1435688 
   30000    290.15367   -501.82951    149244.94   -47524.726     3984.562   -51509.288   0.15269105 
   30100    291.63492   -479.13007    149261.05   -47493.157    4004.9034    -51498.06   0.14941219 
   30200    290.97176   -489.45543    149258.53   -47506.035    3995.7964   -51501.831   0.15229373 
   30300    290.92024   -496.98774    149269.56   -47498.662    3995.0889   -51493.751   0.15147311 
   30400    290.75711   -517.33847    149257.17   -47533.774    3992.8488   -51526.623   0.15316938 
   30500    287.10811   -507.46484    149219.86   -47632.891    3942.7385    -51575.63   0.14778522 
   30600    293.01938   -442.51723    149240.47   -47513.678    4023.9156   -51537.593   0.15009159 
   30700    293.69679   -461.87596    149232.04   -47538.169    4033.2182   -51571.387   0.15187816 
   30800    294.45727    -498.0399    149239.57   -47471.219    4043.6615   -51514.881   0.14823383 
   30900    291.34275   -515.04496    149257.14   -47445.344     4000.891   -51446.235   0.16015779 
   31000    288.11463    -499.4305    149255.73   -47480.461    3956.5606   -51437.021   0.15261783 
   31100     292.6224   -484.64985    149238.31   -47496.074    4018.4641   -51514.538   0.15322997 
   31200    298.15978   -500.86868    149248.18    -47437.31    4094.5066   -51531.816   0.15506854 
   31300    298.62387   -485.82841    149288.94   -47372.143    4100.8797   -51473.023   0.15171178 
   31400    293.21989   -510.62155    149276.27   -47496.598    4026.6691   -51523.268   0.15212337 
   31500    296.35534   -530.26272    149265.38   -47446.545    4069.7269   -51516.272    0.1547993 
   31600    290.45171   -540.97777    149237.43   -47459.434    3988.6548   -51448.089     0.152749 
   31700    295.14689   -484.31194    149226.38   -47425.297    4053.1318   -51478.429   0.15679941 
   31800    291.20304   -517.68297    149235.83   -47495.804    3998.9725   -51494.776   0.15835807 
   31900    297.03015   -496.75618    149232.95   -47492.185    4078.9938   -51571.179   0.14760595 
   32000    293.78933   -480.24099    149250.58    -47437.91     4034.489   -51472.399   0.16128026 
   32100    295.32903   -505.43039    149263.54    -47481.31     4055.633   -51536.943   0.14758041 
   32200    286.76566   -485.21873     149223.1   -47602.709    3938.0357   -51540.744   0.15329124 
   32300    289.12181   -469.27338    149216.18   -47540.158    3970.3918   -51510.549   0.15206149 
   32400    288.51533   -502.61685     149222.6   -47635.977    3962.0633   -51598.041   0.15198071 
   32500    296.94422   -528.57856    149237.36   -47491.688    4077.8138   -51569.501   0.15274333 
   32600     294.9799   -530.06205     149260.5   -47449.627    4050.8386   -51500.465   0.15458458 
   32700    294.41807   -480.25191    149250.86   -47539.214    4043.1232   -51582.338   0.14853643 
   32800    296.93605   -466.53003    149287.13   -47410.099    4077.7016   -51487.801   0.15306557 
   32900    294.55353   -538.15977    149282.85   -47482.386    4044.9835   -51527.369   0.15944166 
   33000    291.84016   -511.66839    149275.22   -47468.396    4007.7219   -51476.118   0.14904876 
   33100    291.40938    -491.7829     149226.7   -47499.699     4001.806   -51501.505   0.16164511 
   33200    294.39363   -494.81147    149237.24   -47473.098    4042.7876   -51515.886   0.15001293 
   33300    297.02957   -448.03955     149257.5   -47474.089    4078.9859   -51553.075   0.15337285 
   33400    297.85569   -489.07597    149258.96   -47500.986    4090.3307   -51591.317   0.15127175 
   33500    291.37087   -504.75123    149220.28    -47520.86    4001.2773   -51522.137   0.15059669 
   33600    292.60215   -514.57887    149209.23   -47536.247    4018.1859   -51554.433   0.15291723 
   33700    294.06904   -462.37523    149229.35   -47425.408    4038.3301   -51463.738   0.15177635 
   33800    301.47926   -487.95907    149267.61   -47317.637    4140.0916   -51457.728   0.15561503 
   33900    298.97685   -505.95844    149271.89   -47348.479    4105.7271   -51454.206   0.15548457 
   34000    294.09107   -515.34795    149247.93   -47494.763    4038.6327   -51533.396   0.15474141 
   34100    288.63715     -538.809    149238.78    -47515.52    3963.7362   -51479.256   0.15179745 
   34200    290.17024   -467.31884    149220.88   -47511.501    3984.7895    -51496.29   0.15413732 
   34300    294.59831   -453.96256    149232.59   -47541.849    4045.5983   -51587.447   0.14763592 
   34400    297.94443   -453.86932    149260.42   -47474.205    4091.5493   -51565.754   0.14613005 
   34500    295.50899   -496.35416    149259.37   -47397.423    4058.1044   -51455.527   0.15840932 
   34600    293.24419   -530.26487    149278.65     -47395.2    4027.0028   -51422.202   0.15553286 
   34700    294.24288   -540.35954    149243.72   -47507.965    4040.7174   -51548.683      0.15178 
   34800    293.45031   -495.99721    149239.05    -47500.83    4029.8334   -51530.663   0.15510105 
   34900    294.84234   -477.32367    149255.15   -47483.878    4048.9495   -51532.828   0.15153225 
   35000      294.406   -508.75773    149252.97   -47461.662    4042.9575   -51504.619   0.15165489 
   35100    292.85944    -525.5079     149266.6   -47476.002    4021.7191   -51497.721   0.16219066 
   35200    297.00575   -530.14779    149286.14   -47418.581    4078.6588   -51497.239   0.15008274 
   35300     293.6671   -492.74768    149266.14   -47499.134    4032.8105   -51531.945   0.15872077 
   35400    291.01964   -479.85049    149269.21   -47501.851    3996.4539   -51498.305   0.15270015 
   35500    295.26444   -484.06252    149253.39   -47488.722     4054.746   -51543.468   0.14860042 
   35600    292.90261   -529.92663    149279.84   -47459.698     4022.312    -51482.01   0.15968879 
   35700    289.68801   -558.82559    149272.66   -47479.533    3978.1673     -51457.7   0.15263942 
   35800    298.65349   -491.82734    149287.05   -47304.539    4101.2866   -51405.825   0.16198732 
   35900    291.88472   -520.97248     149276.9   -47427.989    4008.3337   -51436.323   0.15149157 
   36000    299.00623   -489.31264     149224.6   -47478.535    4106.1305   -51584.665   0.15183151 
   36100    288.08591   -502.82578    149221.67   -47522.652    3956.1662   -51478.818   0.15260686 
   36200     287.9419   -509.96297    149220.65   -47554.214    3954.1887   -51508.403   0.15817519 
   36300    293.55371   -501.57665    149222.18   -47489.246    4031.2532     -51520.5   0.15248721 
   36400    291.75436   -502.32793    149241.82    -47549.06    4006.5435   -51555.603   0.15633587 
   36500    295.07153   -508.75715    149234.42   -47519.279    4052.0969   -51571.376   0.14826739 
   36600    290.30506    -526.1667    149232.97   -47519.517     3986.641   -51506.158   0.15256167 
   36700     287.7324   -486.43038    149230.13   -47558.341    3951.3116   -51509.653   0.15486365 
   36800    284.39096   -510.41653    149213.15   -47630.161     3905.425   -51535.586   0.15195977 
   36900    290.15552   -485.37813    149214.17   -47550.198    3984.5873   -51534.785    0.1499668 
   37000    289.16823    -480.6009    149230.64   -47534.551    3971.0293   -51505.581   0.14645137 
   37100    292.90133   -516.27589    149218.03   -47579.071    4022.2944   -51601.366   0.15461051 
   37200    288.58408   -516.68876     149219.3   -47581.101    3963.0074   -51544.108   0.14899453 
   37300    293.23874   -485.00075    149221.77   -47577.772     4026.928     -51604.7   0.15516646 
   37400    294.87716   -498.98181    149239.33   -47594.088    4049.4276   -51643.516    0.1440267 
   37500    291.09374   -491.03476    149252.19   -47565.024    3997.4716   -51562.496   0.15079193 
   37600    289.16795   -522.99869    149221.89   -47610.662    3971.0254   -51581.688   0.14942364 
   37700    290.19883   -499.18806    149220.57   -47694.881     3985.182   -51680.063   0.14471514 
   37800    286.15677   -486.10361     149175.7   -47707.827    3929.6742   -51637.501   0.15243845 
   37900    289.16004   -524.62783    149221.84   -47611.755    3970.9168   -51582.671   0.14594831 
   38000     293.5505   -504.33166    149230.54   -47548.093    4031.2092   -51579.302   0.15352315 
   38100     298.7276   -490.34221    149224.51   -47480.706    4102.3042    -51583.01   0.15044585 
   38200    294.71872   -513.39372    149244.41   -47448.406     4047.252   -51495.658   0.15566022 
   38300    290.72178   -504.91997    149241.48   -47497.987    3992.3635   -51490.351   0.15299741 
   38400    297.42566   -518.21329    149263.17   -47436.179    4084.4252   -51520.604   0.15369556 
   38500    287.05988   -485.32315    149261.51   -47494.265    3942.0762   -51436.341   0.14819147 
   38600    295.73951   -488.83695    149224.59   -47450.104    4061.2699   -51511.374   0.15469926 
   38700    290.89993   -507.95539    149225.02   -47420.229    3994.8101   -51415.039   0.15581569 
   38800    295.01983   -473.12138    149235.48   -47460.217     4051.387   -51511.604   0.15109787 
   38900    293.86272   -514.23419    149251.57   -47398.444    4035.4968   -51433.941   0.16228034 
   39000    295.03061   -487.53446    149248.56    -47458.17     4051.535   -51509.706   0.14734539 
   39100    290.97917   -483.74912    149219.35   -47476.198    3995.8982   -51472.096   0.15932098 
   39200    288.00304   -514.91737    149198.14   -47605.622    3955.0282    -51560.65   0.15062825 
   39300    289.60278   -515.59903    149173.04   -47616.068    3976.9969   -51593.065   0.15106644 
   39400    292.75133   -510.49225    149204.35    -47487.35    4020.2345   -51507.584   0.15514657 
   39500    295.32015   -469.14774    149210.17   -47472.449    4055.5111   -51527.961   0.15217843 
   39600    296.71412   -486.19228    149222.48   -47472.605    4074.6539   -51547.259   0.15323518 
   39700    293.57057   -521.53264    149210.05   -47452.704    4031.4849   -51484.189   0.16132076 
   39800    294.09579   -509.30836    149191.55   -47473.588    4038.6974   -51512.285   0.15566007 
   39900    291.69204   -515.11589    149208.29   -47438.576    4005.6878   -51444.264   0.15460698 
   40000    296.99873   -521.35472    149206.98   -47513.231    4078.5623   -51591.794   0.15606718 
   40100    292.31593   -491.29755     149188.6   -47518.426    4014.2553   -51532.681   0.14677308 
   40200    291.97681   -483.08842    149161.17   -47492.998    4009.5984   -51502.597   0.15798505 
   40300    293.10035   -460.15865    149176.47   -47500.995    4025.0275   -51526.022   0.15357045 
   40400    289.35972   -504.75302     149178.8   -47595.623    3973.6589   -51569.282   0.15312121 
   40500    297.42412   -481.58594    149194.67   -47449.743    4084.4041   -51534.147   0.15136616 
   40600    294.77255   -542.12272    149242.95   -47529.122    4047.9912   -51577.113   0.15744118 
   40700    289.43084   -515.16142    149212.21   -47529.378    3974.6356   -51504.014   0.15076991 
   40800    290.20667    -521.1504    149216.88   -47511.184    3985.2898   -51496.474   0.15699358 
   40900      294.211   -459.16488    149214.96    -47494.32    4040.2796   -51534.599   0.15422939 
   41000    290.93731   -517.20629    149228.41   -47565.345    3995.3233   -51560.669   0.14701752 
   41100    293.75146   -459.96783     149206.3   -47535.129     4033.969   -51569.098   0.15659712 
   41200    298.46487   -452.28067    149203.64    -47413.74    4098.6963   -51512.436   0.14894915 
   41300    291.11476   -513.11661    149218.45   -47503.103    3997.7603   -51500.863   0.15239201 
   41400    296.07947   -505.14623    149243.52   -47447.856    4065.9385   -51513.794    0.1610072 
   41500    290.57767   -538.22173    149265.73   -47462.927    3990.3846   -51453.311   0.15397293 
   41600    294.76972   -490.35202     149260.2   -47470.705    4047.9523   -51518.657   0.15522541 
   41700      286.468   -503.90847    149233.71   -47577.904    3933.9481   -51511.852   0.15500727 
   41800    290.07827   -485.19629    149256.29   -47487.427    3983.5266   -51470.953   0.15086796 
   41900    292.82874      -474.47    149233.44   -47560.384    4021.2975   -51581.682   0.15418471 
   42000    288.35057    -462.1691     149218.4   -47530.817    3959.8007   -51490.618    0.1513604 
   42100    294.30805   -497.50812    149229.88   -47613.832    4041.6123   -51655.444   0.14577226 
   42200    293.11757   -495.65301    149215.46   -47573.327    4025.2639   -51598.591   0.15388485 
   42300    295.37334   -505.67149    149229.41    -47538.39    4056.2415   -51594.632   0.14709059 
   42400    287.94697   -514.36169     149226.2   -47560.155    3954.2582   -51514.414   0.15469243 
   42500    295.55049   -465.24388    149243.46   -47527.629    4058.6742   -51586.304   0.15037601 
   42600     294.4163     -498.838    149231.91   -47563.093    4043.0989   -51606.192   0.14639279 
   42700    286.45458   -549.41908    149193.42   -47633.005    3933.7638   -51566.768   0.15358116 
   42800    286.47395   -516.18967     149205.7   -47542.821    3934.0298   -51476.851   0.15578064 
   42900    289.28419   -481.76135    149212.34   -47559.399    3972.6217   -51532.021   0.15157089 
   43000    293.11955   -485.65148    149217.04   -47584.123    4025.2912   -51609.414   0.14733809 
   43100     292.5891   -506.23334    149196.26   -47499.534    4018.0067   -51517.541   0.15685792 
   43200     293.2329   -524.93159    149195.05   -47515.216    4026.8478   -51542.063   0.14958424 
   43300    291.47987   -484.64736    149170.85   -47505.422    4002.7741   -51508.196   0.15562271 
   43400    294.26402   -508.78649    149202.47   -47436.532    4041.0077    -51477.54   0.15968811 
   43500    292.56539    -496.5878     149234.5   -47497.534    4017.6811   -51515.215   0.15302127 
   43600    292.09259   -536.06597    149210.85   -47538.998    4011.1883   -51550.187   0.15465253 
   43700    289.70333   -499.46754    149180.04   -47583.407    3978.3777   -51561.784   0.15001083 
   43800    282.07938     -488.828    149146.83   -47615.352     3873.681   -51489.033   0.15340669 
   43900    294.63148    -459.6415    149157.73    -47522.16    4046.0538   -51568.214    0.1556688 
   44000    291.33684   -522.91868    149188.44   -47609.593    4000.8099   -51610.403   0.14792355 
   44100    295.20723   -444.14752    149171.65    -47563.09    4053.9605    -51617.05   0.14988023 
   44200    291.97207   -498.21162    149228.36   -47521.378    4009.5333   -51530.911   0.15493268 
   44300    291.27452   -499.35354    149211.89   -47529.061    3999.9542   -51529.015   0.15107677 
   44400    293.76799   -478.52625    149184.08    -47540.04    4034.1959   -51574.236   0.15595054 
   44500    289.77981   -528.18362    149201.17   -47550.372    3979.4278     -51529.8   0.15044287 
   44600     290.8546   -499.56552    149183.95   -47550.404    3994.1875   -51544.591   0.15380815 
   44700    288.37315   -496.71222     149196.4   -47540.345    3960.1107   -51500.456   0.15415703 
   44800    290.88629     -523.123    149199.83    -47499.03    3994.6228   -51493.653   0.15570695 
   44900    295.12175    -498.2696    149212.67   -47484.952    4052.7866   -51537.738   0.15468553 
   45000    290.72693   -515.59649    149206.84   -47526.691    3992.4343   -51519.125   0.15925932 
   45100    299.81227   -500.63124    149251.91   -47408.746    4117.1995   -51525.945   0.15436392 
   45200    291.39995   -523.81414    149240.21   -47455.246    4001.6766   -51456.923   0.15950353 
   45300    296.66142   -487.99915    149231.86   -47477.857    4073.9303   -51551.787    0.1547212 
   45400     293.4322   -483.50352     149236.2   -47540.573    4029.5846   -51570.158   0.15364194 
   45500    289.81947   -506.48641    149224.16   -47477.507    3979.9725    -51457.48   0.15703785 
   45600    295.93758   -486.84456    149235.85   -47468.964    4063.9899   -51532.954   0.14926269 
   45700    294.14288   -525.69923    149246.75   -47426.015    4039.3442   -51465.359   0.16108835 
   45800    290.17761    -523.6993    149243.54    -47503.38    3984.8906    -51488.27      0.15409 
   45900    295.12872   -523.39154    149260.09   -47363.515    4052.8822   -51416.397   0.15970512 
   46000    297.91033   -489.59281    149252.54   -47427.871     4091.081   -51518.952    0.1528239 
   46100    298.24349   -496.37212     149243.9    -47332.48    4095.6561   -51428.136   0.16003084 
   46200    299.52197   -482.84399     149240.4   -47393.315    4113.2129   -51506.528   0.15097087 
   46300    298.31796   -478.44251    149273.34   -47386.279    4096.6788   -51482.958   0.15743855 
   46400    294.60875   -517.22974       149261    -47429.65    4045.7417   -51475.391   0.15506477 
   46500    295.39684   -510.85216    149268.48   -47395.612    4056.5643   -51452.176   0.15852845 
   46600    294.25349   -554.46605    149225.16   -47450.834    4040.8631   -51491.698   0.16356748 
   46700    300.57951   -508.47803     149251.4   -47393.031    4127.7357   -51520.767   0.15463107 
   46800    300.26957   -517.72662    149244.18   -47400.713    4123.4794   -51524.193   0.15939223 
   46900    294.16658   -467.27814    149258.76   -47459.401    4039.6696    -51499.07   0.14881228 
   47000    297.04727    -498.8753    149254.43   -47493.327     4079.229   -51572.556   0.14927569 
   47100    293.18552    -548.4648    149237.35   -47502.527     4026.197   -51528.724   0.15637487 
   47200    290.77116   -513.69557    149197.94   -47464.543    3993.0417   -51457.585   0.16035621 
   47300    290.27575   -500.42513     149208.2   -47592.624    3986.2385   -51578.862   0.15036446 
   47400     293.2979   -476.33896    149186.61   -47517.598    4027.7403   -51545.338   0.15454052 
   47500    296.92614    -471.7901    149220.12   -47527.583    4077.5655   -51605.149   0.14773152 
   47600    291.89188   -486.98242    149229.71   -47524.269    4008.4321   -51532.701   0.14757545 
   47700    295.30358   -459.49477     149267.9   -47450.976    4055.2836   -51506.259   0.15742376 
   47800    290.67352   -491.24147    149278.61   -47510.135    3991.7009   -51501.836    0.1517777 
   47900    290.52121   -471.30232    149278.99   -47564.609    3989.6093   -51554.218   0.14529087 
   48000    287.21124   -512.09366     149249.8   -47515.399    3944.1548   -51459.554   0.15590808 
   48100     287.8236   -477.12992    149228.38   -47565.246     3952.564    -51517.81   0.14508648 
   48200    290.78698   -474.27383    149219.61   -47552.217    3993.2589   -51545.476   0.15327602 
   48300    292.34414   -516.01877    149263.89   -47499.589    4014.6427   -51514.232   0.15054536 
   48400    291.67744   -510.94762    149264.89   -47544.028    4005.4872   -51549.516   0.14510152 
   48500    291.57293   -502.47247    149223.36   -47626.563    4004.0521   -51630.615    0.1512367 
   48600    290.54892   -514.58976    149213.05   -47618.631    3989.9897   -51608.621    0.1497316 
   48700    291.00294    -521.4785    149248.37   -47506.655    3996.2246   -51502.879   0.15074735 
   48800    293.97806    -482.2806       149236   -47499.045    4037.0807   -51536.125   0.15946756 
   48900    289.71845   -514.90165    149239.19   -47523.236    3978.5853   -51501.821   0.14678594 
   49000    289.77982   -535.10932    149234.92   -47553.906     3979.428   -51533.334   0.15292118 
   49100    293.62809   -492.86134    149246.11   -47463.962    4032.2747   -51496.236   0.15315325 
   49200    293.85947    -503.6681    149240.84   -47504.798    4035.4522    -51540.25   0.14814422 
   49300    285.24202   -525.35547    149245.27    -47573.31    3917.1123   -51490.423   0.15376034 
   49400    293.27867   -486.65185    149240.45   -47594.607    4027.4763   -51622.084   0.14426028 
   49500    290.49518    -488.2718    149230.76   -47523.996    3989.2518   -51513.248   0.15038965 
   49600    290.45896   -486.92983    149252.28   -47526.137    3988.7544   -51514.892   0.15019654 
   49700    290.45702   -484.16507    149247.17   -47527.994    3988.7277   -51516.722   0.15410737 
   49800    290.62194   -542.74144    149263.24   -47543.951    3990.9925   -51534.943   0.14605819 
   49900    292.50033   -494.48875    149251.21   -47524.186    4016.7877   -51540.974   0.15460662 
   50000    291.10155     -492.345    149263.95   -47532.406    3997.5788   -51529.985   0.14576851 
   50100    291.99278   -531.93032     149259.7   -47387.115    4009.8176   -51396.932   0.15525354 
   50200    292.89583   -493.43058    149265.24   -47464.069     4022.219   -51486.288   0.15562558 
   50300    292.06976   -468.52566    149281.31   -47478.833    4010.8749   -51489.708   0.14760518 
   50400    294.75169   -510.06065       149273   -47500.671    4047.7046   -51548.376   0.15120829 
   50500    293.86164   -471.65885    149267.97   -47407.691     4035.482   -51443.173   0.15531373 
   50600    303.66965   -483.01724    149270.54   -47332.444    4170.1713   -51502.615   0.14898385 
   50700    289.28297   -538.90841    149239.76   -47577.511     3972.605   -51550.116   0.15204752 
   50800    295.73083   -472.29222    149236.84   -47553.726    4061.1507   -51614.877    0.1485238 
   50900    287.71065   -524.39184    149219.94   -47580.081    3951.0129   -51531.094    0.1482092 
   51000    286.51928   -510.40768    149225.83   -47532.302    3934.6523   -51466.954   0.15895929 
   51100    294.19101   -524.87224    149255.16   -47549.547     4040.005   -51589.552    0.1444954 
   51200    289.97746   -463.65265    149233.88   -47606.089    3982.1421   -51588.232   0.14794555 
   51300    288.88392   -491.53381    149224.55   -47614.814     3967.125   -51581.939   0.14941465 
   51400    291.67097   -477.94072     149256.9   -47558.794    4005.3983   -51564.193   0.14504519 
   51500    293.13103   -519.87959    149275.14   -47615.611    4025.4488    -51641.06   0.14915305 
   51600    289.58725   -494.55942    149267.57    -47531.93    3976.7835   -51508.713   0.14924493 
   51700    296.26192   -487.22876    149271.62   -47426.349     4068.444   -51494.793    0.1532384 
   51800    292.53353   -559.57384    149282.49    -47474.19    4017.2435   -51491.433   0.15513553 
   51900    293.27366   -493.93823    149240.71   -47534.021    4027.4075   -51561.428   0.14857324 
   52000    293.70735   -487.03345    149250.38    -47521.68    4033.3632   -51555.043   0.15015036 
   52100    289.10345   -489.47733    149234.95   -47598.386    3970.1397   -51568.525   0.15138727 
   52200    287.94546   -488.45556     149227.9   -47651.132    3954.2375   -51605.369   0.14927003 
   52300    293.17362   -505.06364    149224.53   -47629.628    4026.0337   -51655.661   0.14582054 
   52400    292.04055   -515.60121    149191.46   -47719.013    4010.4737   -51729.487   0.14994651 
   52500    291.22771   -451.13712    149227.39   -47563.289    3999.3113     -51562.6   0.14246216 
   52600    292.48207   -508.32956    149257.41   -47532.769    4016.5369   -51549.306   0.15276589 
   52700    294.41377   -478.18557    149266.32   -47469.228    4043.0642   -51512.292    0.1486489 
   52800     293.4706     -489.584    149282.06   -47437.857     4030.112   -51467.969   0.15386593 
   52900    294.07744   -539.40284    149267.14   -47458.314    4038.4454   -51496.759   0.15663842 
   53000     293.6181   -477.64238     149287.6   -47411.962    4032.1376   -51444.099   0.15085882 
   53100    291.90419   -509.37451    149284.72    -47559.51    4008.6011   -51568.111   0.14960703 
   53200    293.98159   -509.35975    149254.46   -47598.784    4037.1292   -51635.913   0.14867348 
   53300    293.56122   -496.75854    149251.93   -47561.072    4031.3564   -51592.428   0.14649367 
   53400    293.21511   -494.99293    149282.47   -47495.456    4026.6034   -51522.059   0.15435964 
   53500    294.04795   -499.39445    149284.82   -47481.642    4038.0406   -51519.682   0.15256644 
   53600    291.33451   -509.23388    149256.46   -47552.434     4000.778   -51553.212   0.14578758 
   53700    293.97407   -516.21577    149268.34   -47531.642     4037.026   -51568.668   0.15415419 
   53800    287.99818   -488.92904    149254.56   -47559.018    3954.9614    -51513.98   0.14679208 
   53900    289.87192   -493.01785    149250.27    -47564.81    3980.6927   -51545.503   0.15157204 
   54000    293.33119   -483.13107    149254.79   -47574.889    4028.1975   -51603.087   0.14649707 
   54100    290.86828   -530.98629    149240.65   -47550.764    3994.3753   -51545.139    0.1505084 
   54200     292.3699   -490.88258    149259.64   -47494.864    4014.9966    -51509.86   0.14943867 
   54300    296.91229   -483.06196    149266.97   -47422.878    4077.3754   -51500.254   0.15572359 
   54400    299.92154   -514.66939    149296.82    -47343.48    4118.7002    -51462.18   0.14930942 
   54500    293.84145   -508.51525    149299.27   -47415.332    4035.2047   -51450.537   0.15419888 
   54600    302.04944   -504.66559    149257.87   -47427.186    4147.9217   -51575.108   0.15651833 
   54700    291.69312    -476.4227    149255.08   -47490.307    4005.7026    -51496.01   0.14702589 
   54800    297.64743   -496.19449    149267.12   -47413.616    4087.4707   -51501.087   0.15902715 
   54900    291.54553   -515.18408    149264.16   -47428.859    4003.6758   -51432.535   0.15388402 
   55000    294.11256   -504.90791    149266.45   -47462.132    4038.9277   -51501.059   0.15075749 
   55100    294.57165   -503.34886     149257.9   -47482.625    4045.2323   -51527.857   0.15717498 
   55200    292.80038   -470.96981    149223.24   -47595.859    4020.9081   -51616.767   0.14157324 
   55300    288.85007   -479.83861    149199.73   -47641.331    3966.6601   -51607.991   0.14824885 
   55400     286.1577   -498.14742    149222.03   -47603.386    3929.6869   -51533.073   0.15289829 
   55500     290.7777   -518.27893     149213.9   -47561.155    3993.1315   -51554.286   0.14772649 
   55600    292.49566   -486.46619     149244.6   -47453.118    4016.7236   -51469.842   0.16152971 
   55700    294.12636   -506.18623    149253.83   -47412.163    4039.1173   -51451.281   0.15588395 
   55800    296.06868   -515.94063    149274.21   -47404.967    4065.7904   -51470.757   0.14908317 
   55900    294.31275   -513.13518    149253.67   -47419.067    4041.6769   -51460.744   0.15757765 
   56000    293.19231   -480.58491    149265.68   -47428.376    4026.2903   -51454.666   0.15235707 
   56100    291.85133   -500.29405    149267.77   -47415.606    4007.8752   -51423.481   0.15274652 
   56200    294.75422   -488.83026    149278.64   -47453.152    4047.7394   -51500.892   0.15520048 
   56300    290.15955   -493.90783    149259.51   -47523.437    3984.6427    -51508.08   0.14741272 
   56400    291.38992   -510.28401    149257.12    -47575.07    4001.5389   -51576.609   0.14862735 
   56500    286.85927    -501.1838    149244.13   -47621.662    3939.3213   -51560.983   0.14890369 
   56600    292.72836   -483.10383    149238.34    -47680.22    4019.9192   -51700.139   0.14139188 
   56700    288.68412   -504.05949    149240.64   -47658.959    3964.3812    -51623.34    0.1477184 
   56800     291.3979   -475.95485    149281.89   -47544.277    4001.6485   -51545.925   0.15041767 
   56900    286.49403    -521.9747     149291.7   -47648.217    3934.3056   -51582.523   0.14412977 
   57000    291.18216   -505.14778    149263.41   -47633.125    3998.6857   -51631.811   0.15099617 
   57100    285.57554   -540.32167    149307.93   -47552.682    3921.6924   -51474.374   0.15188801 
   57200    294.29817   -520.01849     149301.2   -47505.143    4041.4766    -51546.62   0.14398174 
   57300    283.41159   -536.51292    149267.62    -47637.74    3891.9757   -51529.716   0.15032996 
   57400    294.93377   -520.20581    149283.25   -47515.851    4050.2051   -51566.056   0.14647601 
   57500    290.55348   -509.84168    149289.11   -47479.141    3990.0524   -51469.193   0.15014739 
   57600    291.26003   -513.34382    149281.91   -47595.996    3999.7551   -51595.751     0.152023 
   57700    294.27937   -450.02261    149306.85   -47505.721    4041.2185   -51546.939   0.13897566 
   57800     299.5523   -481.06232    149312.12   -47457.406    4113.6295   -51571.036   0.15015023 
   57900    298.04774   -512.75087    149315.06   -47493.408     4092.968   -51586.376    0.1465763 
   58000    294.16723   -516.00661    149314.12   -47453.146    4039.6785   -51492.825    0.1465971 
   58100    295.29416   -486.38578     149302.9   -47500.979    4055.1542   -51556.133   0.15504456 
   58200    298.19865   -497.32358     149324.1   -47396.721    4095.0404   -51491.762   0.14838136 
   58300    294.88101   -515.88254    149289.16   -47463.801    4049.4806   -51513.281   0.15191708 
   58400      293.172    -516.7689    149301.63   -47509.454    4026.0114   -51535.466   0.14949586 
   58500    292.73703    -502.3941    149293.42   -47514.646    4020.0382   -51534.685   0.14718477 
   58600    294.98419   -446.36127    149275.56   -47544.396    4050.8975   -51595.294   0.14563838 
   58700    294.08255   -488.66967    149280.78   -47498.127    4038.5156   -51536.643   0.15027924 
   58800    297.41778   -480.19191    149269.09   -47540.632     4084.317   -51624.949   0.14163119 
   58900    293.22731   -499.69883    149298.29   -47459.561     4026.771   -51486.332   0.15409261 
   59000    295.72816    -502.6321    149342.87   -47426.569    4061.1142   -51487.683   0.14993808 
   59100    295.25002    -492.7189    149295.74   -47383.709     4054.548   -51438.257   0.15215638 
   59200    293.57495   -507.10987    149272.26   -47511.547     4031.545   -51543.092   0.15597142 
   59300    296.98463   -506.96121    149265.86   -47488.433    4078.3688   -51566.801   0.14699355 
   59400     290.1521   -488.45272    149273.57   -47474.558    3984.5403   -51459.099   0.15115918 
   59500    286.89592   -527.57393    149259.66   -47581.803    3939.8246   -51521.628   0.14816522 
   59600    291.27416   -499.23914    149255.86   -47556.721    3999.9491    -51556.67   0.14861242 
   59700    293.81424   -502.88483    149291.85   -47491.455    4034.8311   -51526.286   0.14950148 
   59800    287.98351   -519.54135       149266   -47605.805      3954.76   -51560.565   0.14760196 
   59900    290.32484   -468.49079    149270.53    -47598.22    3986.9125   -51585.132   0.14214707 
   60000    290.14093   -503.73527    149272.99    -47563.28     3984.387   -51547.667   0.15619649 
   60100    292.12585   -511.48689    149251.48     -47524.4    4011.6451   -51536.045   0.15190703 
   60200      290.616    -520.0125    149264.69   -47492.059    3990.9109    -51482.97   0.15307783 
   60300    290.12458    -491.3748    149286.11   -47455.046    3984.1625   -51439.208   0.15800733 
   60400    291.05937   -498.97375    149287.11    -47397.71    3996.9996    -51394.71   0.14825624 
   60500    293.05853   -508.44838    149288.56   -47427.427    4024.4532    -51451.88   0.15101271 
   60600    293.14703   -498.78871    149282.07   -47491.159    4025.6685   -51516.828   0.15130748 
   60700    305.10534   -463.58869    149295.51   -47312.317    4189.8872   -51502.204   0.15141666 
   60800    295.85206   -476.17576    149292.92   -47335.078    4062.8155   -51397.893   0.15642678 
   60900    295.00808    -539.3624     149284.9   -47429.978    4051.2256   -51481.203   0.15280761 
   61000    293.74215   -493.21899    149280.06   -47475.475    4033.8411   -51509.316   0.14849808 
   61100    295.46989   -523.52127    149286.07   -47460.986    4057.5674   -51518.553   0.15711427 
   61200    298.95219   -492.09671    149287.77    -47398.36    4105.3884   -51503.748   0.15094967 
   61300    289.39467   -527.50317    149275.89   -47491.788    3974.1389   -51465.927   0.15156878 
   61400    289.28322   -519.17315    149262.56    -47544.92    3972.6084   -51517.529   0.15979705 
   61500    294.55661   -484.25231    149252.95   -47478.751    4045.0257   -51523.777   0.14552538 
   61600    294.27273   -510.95338    149241.47   -47529.178    4041.1273   -51570.305   0.15195837 
   61700    289.90717   -499.38796    149233.73   -47591.594    3981.1768   -51572.771    0.1506173 
   61800    287.79204   -495.99656       149274   -47579.725    3952.1306   -51531.856    0.1426655 
   61900    294.36767   -462.57197    149284.09   -47474.367     4042.431   -51516.798   0.15163793 
   62000    286.83961   -495.72784    149289.09   -47487.378    3939.0512    -51426.43   0.14862428 
   62100    288.00732    -510.7049    149259.89    -47557.55    3955.0871   -51512.637   0.14917266 
   62200     296.4001   -519.63051    149272.63   -47451.158    4070.3416   -51521.499   0.15692052 
   62300    292.20559   -493.33539    149279.23   -47494.239    4012.7401   -51506.979   0.14908183 
   62400    292.80552   -512.48772    149283.53   -47545.096    4020.9787   -51566.075   0.14484646 
   62500    291.40267   -493.35978    149274.38   -47534.596     4001.714    -51536.31   0.15403208 
   62600    292.22495   -507.68788    149285.65   -47567.342    4013.0059   -51580.348   0.13969777 
   62700    283.69534   -529.03467     149254.9   -47601.752    3895.8723   -51497.624   0.15117181 
   62800    288.55234   -515.90059    149247.63   -47568.131    3962.5715   -51530.702   0.15373684 
   62900    288.73134   -516.92389    149270.73   -47479.234    3965.0297   -51444.263   0.15043012 
   63000    294.78265   -488.17955    149266.19   -47508.818    4048.1299   -51556.948   0.14644171 
   63100    288.80301   -461.24838    149246.05   -47577.929    3966.0138   -51543.943   0.14464037 
   63200    295.43189   -525.47602    149256.02   -47458.165    4057.0455   -51515.211    0.1509498 
   63300    290.30141   -502.19599    149262.42   -47558.401    3986.5908   -51544.992   0.14957793 
   63400    286.91865    -511.7708    149212.79   -47643.195    3940.1367   -51583.332   0.14893628 
   63500    285.01605   -509.76296    149227.54   -47619.495    3914.0091   -51533.504   0.14552528 
   63600    286.75579    -494.6234    149201.85   -47668.282    3937.9003   -51606.182   0.15453771 
   63700    291.60993   -508.68064    149214.47   -47636.278    4004.5602   -51640.838   0.14250156 
   63800    287.38553   -475.54696    149217.92   -47707.406    3946.5482   -51653.954   0.14283048 
   63900    290.74274   -491.14073    149200.84   -47592.574    3992.6514   -51585.226   0.15318495 
   64000     291.4489   -494.21999    149220.75    -47507.02    4002.3489   -51509.369   0.14689823 
   64100    295.05697   -481.74709     149245.6   -47458.265    4051.8969   -51510.162   0.15319588 
   64200    291.51582   -538.21995    149230.11   -47444.877    4003.2679   -51448.145   0.16089508 
   64300    289.05486   -519.59363    149246.89   -47488.666    3969.4724   -51458.139   0.15216148 
   64400    287.67581   -515.41885    149223.96   -47543.873    3950.5346   -51494.407    0.1535925 
   64500    286.87977    -493.6968    149227.27   -47535.519    3939.6028   -51475.122   0.15252908 
   64600    290.18383   -493.27563    149213.95    -47569.22    3984.9761   -51554.196   0.14491309 
   64700    286.19361   -517.00916    149212.13   -47571.944      3930.18   -51502.124   0.15744061 
   64800    288.81375   -474.95251    149205.48   -47517.827    3966.1614   -51483.989   0.14614818 
   64900    294.34471   -484.05975    149234.03   -47434.319    4042.1158   -51476.435   0.15249907 
   65000     291.2902   -531.99369    149224.86   -47420.373    4000.1695   -51420.542   0.16126254 
   65100    291.90564    -514.6855    149230.25   -47493.612     4008.621   -51502.233   0.14569017 
   65200    294.42573   -487.47814    149204.94   -47507.428    4043.2284   -51550.656   0.15467261 
   65300     295.2701   -497.90442    149222.01   -47439.654    4054.8238   -51494.477    0.1494734 
   65400    294.47283   -523.01658    149223.96   -47484.975    4043.8752   -51528.851   0.15498197 
   65500    297.86339   -480.53415    149234.77   -47416.474    4090.4363   -51506.911   0.15330126 
   65600    295.32012   -491.74702    149253.71   -47434.301    4055.5107   -51489.812   0.15330599 
   65700    295.62842    -526.4315     149259.5   -47393.765    4059.7444   -51453.509   0.15692802 
   65800      292.519   -524.96102     149259.8   -47461.642     4017.044   -51478.686   0.15477033 
   65900    294.36452   -476.78685    149249.07   -47473.439    4042.3878   -51515.827   0.14695902 
   66000    292.27691   -493.83247    149240.25   -47483.962    4013.7195   -51497.682   0.15016638 
   66100     293.6719   -487.76802    149238.88   -47451.338    4032.8763   -51484.215   0.15759262 
   66200    292.00071   -508.23479    149223.56   -47590.277    4009.9266   -51600.203   0.14863426 
   66300    289.78591   -473.51954     149213.7   -47511.887    3979.5116   -51491.399   0.15289178 
   66400    291.49334   -511.71914    149214.84   -47520.443     4002.959   -51523.402   0.15071303 
   66500    290.08671   -498.75433    149221.87   -47553.991    3983.6425   -51537.633    0.1504084 
   66600    289.83585   -485.84577    149226.63   -47558.518    3980.1975   -51538.716   0.14797997 
   66700     289.0126    -502.7309    149227.52   -47541.919    3968.8922   -51510.811   0.15052429 
   66800    290.46115   -500.84254    149221.92   -47568.338    3988.7844   -51557.122   0.14514113 
   66900    292.41663   -524.33783    149196.35   -47581.826    4015.6383   -51597.464   0.15189705 
   67000    288.57459   -480.87216    149172.99   -47686.417     3962.877   -51649.294   0.14359571 
   67100    294.62233   -486.74155    149200.66   -47519.915    4045.9283   -51565.843   0.14967536 
   67200    288.40213   -517.60002    149187.19   -47624.384    3960.5088   -51584.892   0.15696739 
   67300    290.86452   -490.01486    149215.09   -47545.208    3994.3238   -51539.532     0.144863 
   67400    292.53275   -479.43706    149196.18    -47521.54    4017.2329   -51538.773   0.15350895 
   67500    291.32302   -503.37813    149192.53   -47506.847    4000.6202   -51507.467   0.15089675 
   67600    294.98954   -514.51549    149245.08   -47362.882    4050.9709   -51413.853   0.15778652 
   67700    291.98521    -486.1559    149241.94    -47436.12    4009.7138   -51445.834    0.1552649 
   67800    297.57534   -496.74783    149249.39   -47480.269    4086.4807    -51566.75   0.15064093 
   67900    291.80893   -533.26567    149237.08   -47513.782     4007.293   -51521.075   0.15179164 
   68000    293.83105   -470.09551    149229.96   -47551.196    4035.0619   -51586.258   0.14973671 
   68100     292.6328   -502.70405    149218.57    -47552.94    4018.6068   -51571.547   0.14695409 
   68200    290.63505   -521.87521    149223.98   -47523.991    3991.1725   -51515.163   0.15710644 
   68300    288.99435   -497.55407    149255.44   -47469.788    3968.6415   -51438.429   0.15721819 
   68400    289.86475    -495.0289    149282.84   -47433.949    3980.5944   -51414.543   0.15022008 
   68500    300.14056   -500.87993    149292.29   -47430.358    4121.7078   -51552.066   0.15355779 
   68600    290.10203   -519.34306    149257.92   -47523.139    3983.8528   -51506.992   0.15449068 
   68700     291.0559   -542.17895    149247.83   -47496.416    3996.9518   -51493.367   0.15189071 
   68800    294.32213   -512.43405    149250.17   -47496.223    4041.8057   -51538.028   0.15237706 
   68900    292.04898   -460.38203    149266.63   -47495.925    4010.5895   -51506.515   0.14842115 
   69000    291.49237   -483.59267    149274.84   -47495.876    4002.9458   -51498.822   0.14993824 
   69100    288.60714   -490.90367    149255.28   -47558.899    3963.3241   -51522.223   0.15062071 
   69200    293.38439   -468.94733    149242.39   -47572.751    4028.9281   -51601.679   0.14742642 
   69300    285.75104   -479.52707    149240.05   -47604.298    3924.1024   -51528.401   0.14943513 
   69400    286.06555   -495.60892    149250.04   -47656.102    3928.4215   -51584.524   0.15126132 
   69500    296.47486   -460.18429    149265.07   -47515.941    4071.3683   -51587.309   0.14117434 
   69600    293.24429   -490.63809    149298.04   -47412.579    4027.0042   -51439.583   0.15810549 
   69700    289.84781    -522.8271     149285.7   -47509.644    3980.3617   -51490.006   0.15457677 
   69800    293.30215    -509.7238    149295.44   -47512.408    4027.7987   -51540.206   0.14467765 
   69900    286.71331   -512.84952    149253.71   -47598.964    3937.3168   -51536.281   0.15284255 
   70000    291.53393   -469.61854    149246.77   -47524.839    4003.5164   -51528.356    0.1472467 
   70100    287.25687   -512.64515    149226.08   -47655.387    3944.7814   -51600.169    0.1500847 
   70200    294.15366   -491.82176    149261.91   -47488.588    4039.4922    -51528.08   0.15486976 
   70300    289.69767   -501.57285    149273.67   -47496.029    3978.2999   -51474.329   0.15306129 
   70400     299.6081   -485.17143    149304.27   -47389.272    4114.3958   -51503.668   0.14912997 
   70500    294.85349   -485.90683    149285.22   -47460.489    4049.1027   -51509.591   0.15482757 
   70600    290.66133   -510.75277    149283.06   -47519.377    3991.5334   -51510.911   0.14280818 
   70700    292.33905    -520.3957    149252.31   -47490.349    4014.5728   -51504.922   0.16041907 
   70800     294.9142   -520.43671    149262.84   -47524.385    4049.9364   -51574.321   0.15223646 
   70900    295.66965   -490.72115    149260.84   -47519.115    4060.3107   -51579.426   0.14525105 
   71000    289.17513   -533.70534    149280.15   -47540.018     3971.124   -51511.142   0.15255122 
   71100    293.68005   -540.19886    149264.65   -47526.712    4032.9883     -51559.7   0.15169391 
   71200    291.74379   -516.57993    149262.12   -47564.673    4006.3984   -51571.071   0.14631272 
   71300    287.31631   -459.18722    149238.26   -47616.938    3945.5976   -51562.536   0.14801297 
   71400    292.14393   -490.24404    149222.86   -47548.094    4011.8933   -51559.987   0.14834906 
   71500    285.60971   -540.64371    149246.51   -47507.353    3922.1616   -51429.514   0.15238932 
   71600    296.14319   -486.39998    149254.86   -47522.518    4066.8135   -51589.332   0.15425181 
   71700    292.65245   -497.49527    149231.52   -47509.873    4018.8767    -51528.75   0.14494807 
   71800    284.18479   -539.47895    149202.44    -47687.54    3902.5938   -51590.134   0.15551202 
   71900    289.85943   -539.79961    149213.26   -47628.871    3980.5212   -51609.393    0.1501862 
   72000     290.9217     -487.188    149210.15    -47591.44     3995.109   -51586.549   0.14682217 
   72100    293.21109   -523.51227    149271.21    -47456.36    4026.5483   -51482.908   0.15494351 
   72200    298.79784   -486.51663     149307.7   -47353.207    4103.2689   -51456.476   0.15114387 
   72300    303.40919   -513.45693    149311.72   -47327.321    4166.5946   -51493.915   0.14747798 
   72400    295.36824   -499.17471    149272.13   -47444.992    4056.1715   -51501.164   0.15105219 
   72500    299.84106   -465.86428    149258.88   -47439.456    4117.5949   -51557.051   0.14564319 
   72600    293.95842    -518.4296    149291.98   -47383.775     4036.811   -51420.586   0.15608605 
   72700    288.40917   -532.33521    149252.92   -47548.945    3960.6054    -51509.55   0.15702469 
   72800    288.62602    -510.1375    149278.04   -47468.445    3963.5834   -51432.028   0.14992388 
   72900    294.50222   -512.99627    149285.13   -47480.717    4044.2789   -51524.996   0.15263296 
   73000    293.06498   -488.00542     149283.9   -47490.332    4024.5417   -51514.874   0.15005416 
   73100    298.12202   -466.59248    149280.54   -47446.803    4093.9881   -51540.791   0.14340529 
   73200    292.97879   -546.74686    149281.21   -47432.883    4023.3581   -51456.241   0.15840481 
   73300      293.656   -482.35842    149288.45   -47412.076     4032.658   -51444.734   0.15184337 
   73400     289.6147   -541.68561     149291.1   -47395.065    3977.1605   -51372.225   0.15384856 
   73500    296.32782   -532.43114    149300.19   -47400.299     4069.349   -51469.648   0.15514815 
   73600    294.44467   -524.82651    149269.98     -47439.2    4043.4885   -51482.689   0.15581454 
   73700    295.41347   -496.16083    149254.21   -47503.953    4056.7926   -51560.746   0.14477716 
   73800    290.20543   -482.87143    149238.97   -47589.875    3985.2727   -51575.148    0.1482895 
   73900    293.93808   -500.77338    149236.74   -47569.421    4036.5316   -51605.952   0.14474989 
   74000     294.5662   -496.34081    149243.95   -47492.141    4045.1575   -51537.298   0.15325228 
   74100    298.86867   -505.77985    149288.73   -47323.912    4104.2415   -51428.154   0.15595643 
   74200    295.86813   -525.18238     149277.1   -47499.935    4063.0363   -51562.971   0.14580692 
   74300    290.68575   -526.86869    149225.68   -47497.927    3991.8688   -51489.795   0.15877811 
   74400     289.7761   -494.57795    149240.09    -47529.18     3979.377   -51508.557   0.14658738 
   74500       290.12   -448.26647    149248.75   -47544.904    3984.0996   -51529.003   0.14745022 
   74600    290.58192   -495.94642    149237.12   -47542.145     3990.443   -51532.588    0.1495696 
   74700    286.18818   -508.14525    149263.05   -47456.605    3930.1055   -51386.711   0.15805068 
   74800    292.19657   -480.26315    149279.67    -47515.69    4012.6162   -51528.306    0.1465015 
   74900    292.06456   -501.29759    149271.86    -47517.14    4010.8034   -51527.944   0.15190242 
   75000    295.65946   -515.17274    149277.76   -47502.358    4060.1707   -51562.529   0.14696721 
   75100    297.19816   -512.89064    149291.03   -47430.673    4081.3011   -51511.974   0.15377787 
   75200    295.24999   -508.49092    149317.63   -47479.495    4054.5477   -51534.043   0.15068239 
   75300    293.85402   -478.18049    149283.51   -47536.697    4035.3774   -51572.074   0.14490461 
   75400    290.21233   -482.93095    149264.73   -47541.618    3985.3675   -51526.986   0.15416138 
   75500    291.16614   -516.40188    149282.19   -47540.252    3998.4658   -51538.717   0.14321583 
   75600    297.82516   -518.60323    149297.02   -47473.366    4089.9114   -51563.278   0.14828477 
   75700    299.68033   -473.55498    149296.96   -47426.427    4115.3876   -51541.815   0.15116993 
   75800    294.91928   -564.72882    149284.88   -47451.896    4050.0062   -51501.902   0.15549311 
   75900    292.49194    -505.1307    149293.46   -47470.159    4016.6724   -51486.832   0.14925164 
   76000    291.09592   -468.29087     149302.1   -47474.517    3997.5014   -51472.018    0.1528788 
   76100    288.95968   -524.53941    149258.87   -47555.756    3968.1654   -51523.921   0.14852377 
   76200     287.5128   -503.75664    149231.87   -47603.046    3948.2959   -51551.342    0.1532088 
   76300    291.00729   -495.56169    149244.38   -47542.966    3996.2843    -51539.25   0.14569639 
   76400    291.32711   -483.30906    149246.16   -47540.703    4000.6762   -51541.379   0.14496534 
   76500    291.67084   -516.00328    149279.65   -47529.705    4005.3966   -51535.102    0.1526543 
   76600    287.45829   -542.03628     149264.9   -47571.008    3947.5473   -51518.556   0.14706163 
[...]
   81900    290.32349   -522.68815    149245.81   -47570.154     3986.894   -51557.048   0.14467959 
   82000     293.8451   -490.35415     149252.8   -47477.445    4035.2548     -51512.7   0.15531865 
   82100    293.03627   -467.24514    149264.79   -47425.517    4024.1476   -51449.664   0.15376198 
   82200    295.88034   -530.75751    149272.45   -47439.776    4063.2039    -51502.98   0.14734267 
   82300    291.74003   -494.12308    149268.19   -47515.757    4006.3468   -51522.104   0.16019218 
   82400    297.61162   -471.03051    149280.83   -47392.395    4086.9789   -51479.374    0.1452822 
   82500    297.47516   -522.48204    149300.49   -47289.847    4085.1049   -51374.952   0.16117634 
   82600    298.13385   -495.05553    149291.68    -47396.09    4094.1505    -51490.24   0.15645785 
   82700    291.74314   -498.54291    149255.23   -47479.483    4006.3895   -51485.872    0.1481844 
   82800    289.95921   -545.04858    149244.18   -47491.452    3981.8914   -51473.344   0.15659982 
   82900    292.79824   -505.31628     149248.4   -47445.113    4020.8787   -51465.992   0.15698759 
   83000    294.75566   -503.77108    149257.68    -47381.18    4047.7591   -51428.939   0.15235994 
   83100    295.24678   -507.67297    149240.64   -47421.875    4054.5035   -51476.378   0.15837992 
   83200    294.15466   -481.38873    149230.39   -47447.178     4039.506   -51486.684    0.1515218 
   83300    294.80352   -507.63352    149229.94    -47443.04    4048.4164   -51491.456   0.15672146 
   83400    293.08551    -528.0742    149228.31   -47518.996    4024.8238    -51543.82   0.15577587 
   83500    288.65138   -523.73143    149204.64   -47629.366    3963.9316   -51593.298   0.14750973 
   83600    293.44534   -477.29708    149179.34   -47567.486    4029.7651   -51597.251   0.15231834 
   83700    284.01277   -545.04432    149158.46   -47593.909    3900.2315   -51494.141   0.15927633 
   83800    288.51163   -495.10665    149172.24   -47554.139    3962.0125   -51516.151   0.15323159 
   83900    293.27312   -479.82249    149173.82   -47553.566    4027.4001   -51580.966   0.15067151 
   84000    291.39939   -509.41677    149157.42   -47573.625     4001.669   -51575.294   0.15955707 
   84100    291.06041   -475.91748    149202.81   -47503.811    3997.0138   -51500.825   0.14602392 
   84200    296.75767   -512.92673     149196.4   -47456.728    4075.2519    -51531.98   0.15921799 
   84300    294.93524   -490.89517    149218.52    -47511.87    4050.2253   -51562.095   0.15168791 
   84400    293.65013   -532.84273     149228.8   -47510.158    4032.5774   -51542.736   0.15404309 
   84500     291.1101    -537.3996    149214.13   -47560.569    3997.6962   -51558.265    0.1601231 
   84600    292.45083   -495.39861    149231.46   -47469.845    4016.1079   -51485.953    0.1510167 
   84700    288.37586   -511.42769    149224.05   -47485.087    3960.1481   -51445.235   0.15720056 
   84800    294.37323   -497.40186    149237.01   -47483.794    4042.5075   -51526.301   0.15513173 
   84900    296.54639   -515.80071    149240.41   -47405.837    4072.3506   -51478.188   0.15330498 
   85000    293.73329   -507.67789       149226   -47478.339    4033.7194   -51512.059   0.15820288 
   85100    294.43568   -479.79502    149236.89   -47496.834     4043.365   -51540.199    0.1531104 
   85200    295.72663   -490.14958    149229.38   -47536.092    4061.0931   -51597.185   0.14648498 
   85300    290.10484   -491.10497    149219.23   -47542.954    3983.8913   -51526.845    0.1559071 
   85400    287.13606    -488.9105    149208.06   -47565.927    3943.1223   -51509.049    0.1541682 
   85500    294.69116   -463.97288    149233.02   -47513.588    4046.8734   -51560.461   0.15045475 
   85600    293.19884   -524.39308     149220.1   -47544.614      4026.38   -51570.994    0.1563765 
   85700    291.84412   -502.04677    149250.54   -47484.079    4007.7761   -51491.855    0.1523148 
   85800    292.72775   -506.61619    149236.72   -47473.009    4019.9107    -51492.92   0.15474368 
   85900    293.83239   -479.98142    149248.24   -47434.975    4035.0803   -51470.055   0.15878034 
   86000    294.19729   -497.11123    149233.97    -47491.89    4040.0913   -51531.982   0.14692917 
   86100    292.81494   -532.21875    149236.49   -47472.071    4021.1081   -51493.179    0.1569006 
   86200    297.52497   -507.14132    149238.92   -47436.782    4085.7891   -51522.571   0.15298396 
   86300    296.46508   -500.41035    149216.36   -47488.643    4071.2339   -51559.876   0.14499001 
   86400    291.02733   -489.14394    149188.95   -47544.997    3996.5596   -51541.557   0.15727281 
   86500    288.64591   -494.74363     149184.4   -47579.706    3963.8565   -51543.562   0.15362151 
   86600    299.23649    -454.2883    149228.66   -47412.907    4109.2926   -51522.199   0.14942219 
   86700    292.23051   -481.21891    149253.08   -47418.446    4013.0824   -51431.529   0.16349435 
   86800    289.92114   -463.58463    149223.65   -47535.242    3981.3687   -51516.611   0.14478687 
   86900    295.41251   -485.05938    149247.17   -47533.471    4056.7794   -51590.251   0.15457268 
   87000    287.54627   -533.28668    149251.87   -47505.002    3948.7555   -51453.758   0.15766582 
   87100    296.44776   -474.99803     149262.3   -47478.272    4070.9961   -51549.268   0.14871204 
   87200    293.42577   -496.96774    149261.08   -47409.968    4029.4964   -51439.464   0.15337038 
   87300    297.80349    -466.8821    149252.04   -47418.523    4089.6139   -51508.137   0.15109949 
   87400    295.48996   -508.81942    149233.17   -47476.862     4057.843   -51534.705   0.14821319 
   87500    289.87431   -528.46475    149225.81   -47447.744    3980.7256    -51428.47   0.15922545 
   87600    297.28562   -506.12027    149236.36   -47471.947    4082.5021   -51554.449   0.15470461 
   87700    296.00468   -479.10818    149261.66   -47448.937    4064.9115   -51513.849   0.14616472 
   87800    287.20555   -529.79303    149230.29   -47527.966    3944.0766   -51472.043   0.15873901 
   87900    288.82667   -526.66276    149216.32    -47551.68    3966.3388   -51518.019   0.15020002 
   88000    287.64979   -525.71884    149221.68   -47522.862    3950.1772   -51473.039   0.15520219 
   88100     293.1493   -477.02707    149256.18   -47495.354    4025.6997   -51521.054   0.15131847 
   88200    290.11499   -503.17223    149213.61   -47593.047    3984.0307   -51577.078    0.1464104 
   88300    286.08171   -486.08857    149226.82   -47533.063    3928.6434   -51461.707   0.14866864 
   88400    296.32378   -482.49966    149248.91   -47466.944    4069.2936   -51536.238   0.15542656 
   88500     290.2634   -462.55222    149256.54   -47537.355    3986.0688   -51523.424    0.1414545 
   88600    288.87907   -513.05003    149261.36   -47526.927    3967.0583   -51493.986   0.15848888 
   88700     287.8408   -493.20504    149244.74   -47496.353    3952.8003   -51449.153   0.15655079 
   88800    290.98158    -476.8858    149244.07   -47561.867    3995.9313   -51557.798    0.1426368 
   88900    294.93388   -476.81523    149214.06   -47499.574    4050.2067   -51549.781   0.15859634 
   89000    296.60649   -472.53418    149239.19   -47460.618    4073.1759   -51533.794   0.15052148 
   89100    290.64886   -501.40045    149224.82   -47515.824    3991.3622   -51507.187   0.15275501 
   89200    288.63138    -483.3734    149238.64   -47461.464    3963.6569   -51425.121   0.15742967 
   89300    293.65082   -496.76784    149212.88    -47584.65    4032.5869   -51617.237   0.14383307 
   89400    291.90426    -493.2607    149219.25   -47489.174    4008.6021   -51497.776   0.15659183 
   89500    287.15795   -489.01022    149214.38    -47583.65     3943.423   -51527.073   0.15147655 
   89600    290.18926   -504.80066    149191.98   -47614.424    3985.0507   -51599.475   0.14639225 
   89700    287.03107   -479.30454    149200.45   -47523.203    3941.6806   -51464.883   0.15423478 
   89800    291.32054   -512.05598    149225.16   -47457.821    4000.5861   -51458.407   0.15253022 
   89900    296.67314   -496.16093    149210.98    -47441.89    4074.0912   -51515.981   0.15176157 
   90000    297.13109   -473.72023    149229.94   -47463.995      4080.38   -51544.375   0.15067932 
   90100    290.60404   -494.79478    149212.75   -47445.608    3990.7467   -51436.355   0.15670307 
   90200    290.36748   -484.97616    149225.88   -47524.006    3987.4981   -51511.504   0.14699343 
   90300    292.15784    -494.2662    149215.11   -47500.013    4012.0844   -51512.098   0.15360846 
   90400    293.10648    -509.9364    149222.76   -47482.673    4025.1116   -51507.784   0.15074869 
   90500    293.94016   -510.20855    149220.81   -47497.436    4036.5602   -51533.996   0.15148937 
   90600    288.58175   -502.79771    149252.05   -47521.098    3962.9754   -51484.074   0.15262016 
   90700    288.04474   -504.04126    149236.37   -47553.469    3955.6009    -51509.07   0.14862194 
   90800    291.39537   -513.79281    149224.64    -47578.37    4001.6136   -51579.983   0.14713882 
   90900    294.83474   -484.24319    149221.33   -47549.554    4048.8451   -51598.399   0.15315085 
   91000     293.2722   -465.08465    149214.37    -47561.58    4027.3874   -51588.968   0.13949761 
   91100    290.72507   -469.28167    149213.04   -47676.251    3992.4087    -51668.66   0.15071997 
   91200    285.95979   -469.08694    149191.41   -47610.538    3926.9691   -51537.507   0.14611521 
   91300    293.86327   -488.34323    149241.07    -47548.62    4035.5043   -51584.125   0.14456128 
   91400    290.31031   -518.75312    149245.29   -47522.827    3986.7129    -51509.54   0.15713541 
   91500    298.57724   -496.81253    149275.02   -47354.563    4100.2395   -51454.803   0.15194219 
   91600    295.32316   -538.68268    149272.25   -47426.542    4055.5525   -51482.095   0.15600189 
   91700    291.11344   -513.09162    149278.99   -47499.846    3997.7421   -51497.588   0.14844861 
   91800    295.87514   -508.56099    149290.08   -47470.383    4063.1326   -51533.516   0.14644694 
   91900    294.26865   -486.35794    149306.15    -47471.19    4041.0712   -51512.262   0.15055907 
   92000    285.37465   -491.67407    149288.77   -47508.513    3918.9335   -51427.446   0.15143955 
   92100    293.79428   -488.57107    149271.58   -47491.842     4034.557   -51526.399   0.14564239 
   92200     289.7615   -537.50226     149270.6   -47530.321    3979.1765   -51509.497   0.15589772 
   92300      292.748   -490.31262     149283.1   -47401.941    4020.1888    -51422.13   0.15088465 
   92400    293.64797   -483.52167    149291.68   -47450.505    4032.5478   -51483.053   0.14947912 
   92500    294.89874   -504.98765    149286.54    -47441.16    4049.7241   -51490.884   0.15077164 
   92600    299.15854   -473.49679    149295.27   -47355.424    4108.2222   -51463.646   0.15007655 
   92700    297.87483   -491.73046    149294.29   -47483.208    4090.5934   -51573.802   0.14814937 
   92800    299.09555   -502.87788    149264.15   -47490.508    4107.3572   -51597.865     0.150358 
   92900    292.14647   -494.04583    149253.35   -47523.306    4011.9283   -51535.234   0.14408136 
   93000    286.93463   -475.58371    149258.36   -47532.296    3940.3562   -51472.652   0.15042728 
   93100    297.45451   -473.47927    149268.21   -47444.799    4084.8214    -51529.62   0.14632337 
   93200    292.97147   -493.31231    149254.88   -47509.207    4023.2576   -51532.464   0.14486673 
   93300    292.89567   -501.84486    149228.09   -47558.503    4022.2167   -51580.719   0.14856429 
   93400    285.41488   -489.13284    149225.29   -47617.593    3919.4861   -51537.079   0.14667409 
   93500    285.57502   -541.99992    149204.83   -47614.793    3921.6852   -51536.478   0.14658232 
   93600    288.25538   -513.38327    149208.83   -47567.222    3958.4934   -51525.715   0.15684978 
   93700    291.06791   -506.84694    149237.02   -47539.295    3997.1168   -51536.412   0.14639222 
   93800    287.31909   -484.23269     149227.8   -47539.688    3945.6358   -51485.324   0.14972112 
   93900    287.17193   -496.15955    149209.35   -47618.209     3943.615   -51561.824   0.14516542 
   94000    285.11199   -515.32682    149224.64   -47586.781    3915.3266   -51502.108   0.14609728 
   94100    291.52382   -488.40292     149239.4   -47469.887    4003.3776   -51473.265   0.15508871 
   94200    291.47291   -485.57481    149245.56   -47458.105    4002.6785   -51460.784    0.1467435 
   94300     291.8775   -531.61908    149248.44   -47474.883    4008.2346   -51483.118   0.15227417 
   94400    299.43769   -479.75757    149243.78   -47465.752    4112.0557   -51577.808   0.14554504 
   94500    291.37937    -486.1058    149243.81   -47465.128     4001.394   -51466.522    0.1524174 
   94600    292.35138   -482.86733    149221.68   -47477.701    4014.7422   -51492.443   0.14463626 
   94700    292.05335    -500.0006    149190.54   -47509.024    4010.6495   -51519.673    0.1573036 
   94800    285.87613   -504.53275    149223.07   -47557.009    3925.8203   -51482.829   0.14921901 
   94900     289.8456    -499.8884    149209.64   -47579.659    3980.3314   -51559.991    0.1477947 
   95000    292.43819    -477.4273    149204.32     -47537.2    4015.9344   -51553.134   0.14842259 
   95100    291.43637   -519.97458    149225.45   -47500.762    4002.1768   -51502.939   0.14591344 
   95200     291.0039   -530.77335    149227.99   -47534.447    3996.2378   -51530.684   0.14910528 
   95300    293.93271   -458.88294    149224.57   -47482.026     4036.458   -51518.484   0.14944106 
   95400     293.4899   -503.64362    149231.75   -47450.303    4030.3771    -51480.68   0.14681084 
   95500    295.30014   -530.21709    149261.39   -47474.469    4055.2362   -51529.706   0.15789648 
   95600    295.78843   -465.61143    149271.42   -47457.929    4061.9418   -51519.871   0.14504239 
   95700    289.46535   -493.95705    149280.76   -47504.667    3975.1095   -51479.777   0.14669006 
   95800    299.19833   -487.75988    149263.77   -47444.549    4108.7686   -51553.318   0.14924024 
   95900    291.76566   -498.28216    149265.73   -47463.667    4006.6988   -51470.365   0.14354296 
   96000    294.46281   -462.05676    149273.16   -47429.236    4043.7375   -51472.973   0.15085688 
   96100    295.49789   -480.36778    149295.24   -47373.437    4057.9519   -51431.388   0.14972218 
   96200    298.90138   -509.10182    149292.45   -47403.719    4104.6907    -51508.41   0.15014731 
   96300    293.78121   -498.83991    149281.37   -47419.143    4034.3775    -51453.52   0.14942291 
   96400    288.50997   -514.72499    149265.74   -47470.624    3961.9897   -51432.614   0.15101469 
   96500    290.80874   -510.85962    149268.92   -47467.956    3993.5578   -51461.514   0.15263539 
   96600    297.43538   -475.60048    149253.45   -47517.522    4084.5587    -51602.08   0.14908271 
   96700    294.05068   -482.78099    149265.87   -47492.031    4038.0779   -51530.109   0.14729953 
   96800    294.57043   -458.05883    149272.52   -47510.098    4045.2155   -51555.313   0.14468874 
   96900     289.6683   -468.51814    149268.29   -47517.848    3977.8965   -51495.745   0.14559897 
   97000    289.86926   -487.79778    149265.58   -47593.158    3980.6563   -51573.814   0.14841588 
   97100    286.74238    -503.2149    149297.73   -47566.164     3937.716    -51503.88   0.14117998 
   97200    297.47695   -488.30533     149275.2   -47502.734    4085.1295   -51587.864   0.15245341 
   97300    298.55857   -498.40965    149306.28   -47398.932    4099.9829   -51498.914   0.14526699 
   97400    292.55052    -498.0409    149267.07   -47485.118    4017.4769   -51502.595   0.15234256 
   97500    295.18005    -498.1871    149280.86   -47454.124    4053.5872   -51507.711   0.15343729 
   97600    295.75693   -487.09899    149283.72   -47388.089    4061.5093   -51449.598   0.14774145 
   97700    298.52863   -477.81456    149276.04   -47346.296    4099.5718   -51445.867   0.15933715 
   97800    294.67878   -511.29399    149287.82   -47457.403    4046.7034   -51504.107   0.14836604 
   97900    300.04944   -482.05936    149278.65   -47413.942    4120.4564   -51534.398   0.14940362 
   98000    292.09936   -562.06785    149264.51   -47508.084    4011.2813   -51519.365   0.15894896 
   98100    291.51541   -513.86886    149258.15   -47482.872    4003.2622   -51486.134   0.15024025 
   98200    290.98665    -493.7457    149282.78   -47483.261    3996.0009   -51479.262   0.15246407 
   98300    300.76825   -475.22994    149291.92   -47419.745    4130.3277   -51550.073   0.14781919 
   98400    291.57239   -527.00147    149264.92   -47467.512    4004.0446   -51471.557   0.14744122 
   98500    293.28813   -488.29457    149267.73   -47442.077    4027.6062   -51469.684   0.15350725 
   98600    292.21944   -486.16106    149266.89   -47450.705    4012.9304   -51463.635   0.14807178 
   98700    294.12294   -498.21704    149295.43   -47419.003    4039.0703   -51458.073    0.1528677 
   98800    296.96787    -504.6025    149298.91    -47430.29    4078.1385   -51508.429   0.14870503 
   98900    295.78552   -496.14163    149278.76   -47493.795    4061.9018   -51555.697    0.1480127 
   99000    294.84198   -470.55453    149278.38   -47494.098    4048.9445   -51543.043   0.14566678 
   99100    291.27541   -457.51503    149257.49   -47554.584    3999.9664    -51554.55   0.14568933 
   99200    290.48783   -525.47577    149251.47   -47559.474    3989.1509   -51548.625    0.1461067 
   99300    290.30152   -475.58752    149243.14   -47480.158    3986.5923    -51466.75   0.15079424 
   99400     292.3096   -481.88443    149246.98   -47519.985    4014.1684   -51534.154   0.14994743 
   99500    292.46841   -504.05506     149240.5   -47473.361    4016.3493    -51489.71   0.15390796 
   99600    296.83334   -467.16248    149249.81   -47468.602    4076.2912   -51544.893   0.14603946 
   99700    290.32663   -484.25797    149223.92   -47515.247    3986.9372   -51502.185   0.15593829 
   99800    288.28291   -499.94499    149220.63   -47528.004    3958.8715   -51486.875   0.14339166 
   99900    288.99569   -514.41552    149203.63   -47583.853    3968.6598   -51552.513    0.1509784 
  100000    292.71558   -494.83519    149233.22   -47495.513    4019.7436   -51515.257   0.14661455 
Loop time of 52.3117 on 6 procs for 100000 steps with 4608 atoms

Performance: 825.819 ns/day, 0.029 hours/ns, 1911.618 timesteps/s
98.1% CPU use with 6 MPI tasks x no OpenMP threads

MPI task timing breakdown:
Section |  min time  |  avg time  |  max time  |%varavg| %total
---------------------------------------------------------------
Pair    | 38.413     | 38.72      | 39.48      |   5.6 | 74.02
Neigh   | 6.2776     | 6.3645     | 6.5112     |   4.1 | 12.17
Comm    | 3.6987     | 4.5991     | 5.0455     |  19.8 |  8.79
Output  | 0.16793    | 0.16878    | 0.17213    |   0.4 |  0.32
Modify  | 1.8195     | 1.8791     | 1.937      |   3.1 |  3.59
Other   |            | 0.5806     |            |       |  1.11

Nlocal:        768.000 ave         778 max         751 min
Histogram: 1 0 0 0 1 0 1 1 0 2
Nghost:        1391.00 ave        1403 max        1377 min
Histogram: 1 0 0 0 1 2 1 0 0 1
Neighs:        0.00000 ave           0 max           0 min
Histogram: 6 0 0 0 0 0 0 0 0 0
FullNghs:      21857.3 ave       22144 max       21345 min
Histogram: 1 0 0 0 1 0 1 1 0 2

Total # of neighbors = 131144
Ave neighs/atom = 28.460069
Neighbor list builds = 6319
Dangerous builds = 0

undump              1
unfix               2
unfix               3
unfix               4




################################################
#######         Run Simulation         #########
################################################

reset_timestep      0
log                 log.run_${NAME}
log                 log.run_ice_293K_-500atm_ML
