LAMMPS data file via write_data, version 29 Oct 2020, timestep = 100000

8519 atoms
1 atom types

-0.24691066297933162 104.83866411482286 xlo xhi
-0.25324775499536756 51.36221532625357 ylo yhi
-0.25324775499536756 51.36221532625357 zlo zhi

Masses

1 18.015

Atoms # atomic

2807 1 34.694606852299245 26.796971954155886 9.602147405016652 0 0 0
2059 1 1.1901503647371012 2.3689341845567506 1.600940668399711 0 1 1
2053 1 5.989804807264443 1.0272016695398796 -0.1491260931266572 0 1 1
2060 1 7.433506811659625 2.9272617472308204 1.1865753940887154 0 1 1
2056 1 12.586386775100179 1.199149413410583 -0.1659036823272747 0 1 1
2061 1 14.278274767315073 2.6413695336073277 1.4521488599126884 0 1 1
2199 1 18.955156665457977 0.8336794807230024 -0.076514563123397 0 1 1
2698 1 20.51340726799001 2.7095452444246217 1.3051489431017076 0 1 1
2700 1 27.33524031126829 2.4731961352665617 1.1130439322142853 0 1 1
2697 1 31.884274325847862 1.2072567336149271 -0.16497000469605097 0 1 1
2702 1 32.98893151268535 2.4927740981088093 1.788728363945474 0 1 1
1969 1 2.6713001820756044 3.909576656765961 -0.06528866415182427 0 1 1
2064 1 4.3482728115867415 5.8625771220399265 1.1231345528742678 0 1 1
608 1 9.256820545051546 30.06063210743984 25.52157981669999 0 0 0
2065 1 10.725135601699927 5.771240777437337 1.4500618365642666 0 1 1
1974 1 16.00416344350531 4.183249671792339 -0.03755608798681909 0 1 1
2067 1 17.48211453633877 5.735523604272398 1.693515856132216 0 1 1
6082 1 -0.20836652581190704 19.438140299413696 14.31328004845844 1 0 1
2704 1 23.73610700179283 5.666962032280787 1.1994182120550205 0 1 1
2705 1 30.1157655494001 5.7353113672795 1.1886093904662491 0 1 1
2622 1 34.64484377978275 3.848483159992388 -0.09836678318390252 0 1 1
1978 1 1.205039972212277 9.25294169126764 1.5827819121292108 0 0 1
633 1 5.918666855878387 46.11483930905085 25.376010330631416 0 0 0
524 1 9.626948067337754 36.41700851260198 25.465520629566754 0 0 0
1979 1 7.384437650688021 9.394419333108369 1.1020939321107388 0 0 1
1889 1 12.226862751855874 7.338167899936252 -0.16913279565604455 0 0 1
1980 1 13.972862243814312 9.332112182100786 1.3151050637075044 0 0 1
2154 1 18.75415073725215 7.199216199840174 -0.04671360915501377 0 0 1
2627 1 20.459961699033023 9.276060255607868 1.2882315949425747 0 0 1
2628 1 25.289701194321896 7.988780993858461 -0.2494601570197022 0 0 1
2630 1 31.829141864171895 7.897398326213411 -0.1631350718407008 0 0 1
2631 1 33.5588819525785 9.291252829442358 1.3732743696124647 0 0 1
1983 1 2.8709022655716887 11.064192096540902 0.03142731874397414 0 0 1
495 1 15.770072618587776 17.422434026008627 25.249087013745466 0 0 0
1325 1 25.400933291306035 1.0689408005416856 25.53127714930633 0 1 0
1987 1 15.49053884817061 11.002476628156643 -0.22795739175955354 0 0 1
1988 1 17.258674075915852 12.41639685110756 1.4405522529133516 0 0 1
554 1 12.48280043475182 1.0074032969981173 25.546121994619398 0 1 0
2629 1 26.78935571280934 9.555574586971932 1.4552005920549367 0 0 1
2636 1 28.349449272868327 11.199576745169475 -0.10307100955186108 0 0 1
1898 1 5.662186877215937 14.775483706297722 -0.11173854060494023 0 0 1
1984 1 4.259192246332311 13.109473592269536 1.567180749327853 0 0 1
1986 1 11.041843332882687 12.587496792667508 1.3853895547614117 0 0 1
1900 1 12.607316640717084 14.25341128359451 -0.15529045826519677 0 0 1
2142 1 18.697261418756952 14.27303546706889 0.16210696873865182 0 0 1
2634 1 23.706404119569285 12.493912839254588 1.2549642604684044 0 0 1
2566 1 25.08667019588132 14.224499626044873 -0.022068077484819676 0 0 1
2715 1 22.135498485307867 14.314288984730705 2.5522677961573117 0 0 1
2637 1 30.10036472556043 12.891514445404951 1.2251027336211286 0 0 1
2640 1 31.83065823932853 14.205448181943169 -0.23771463739098778 0 0 1
1994 1 2.3563056998505334 17.930238266410967 -0.21143213796497495 0 0 1
1989 1 1.0325169695820446 16.162576145882753 1.3989689459398016 0 0 1
1996 1 8.966807008819162 17.40463021065441 -0.05194750836108725 0 0 1
1991 1 7.544504091151706 15.90100753223177 1.5021652270451915 0 0 1
1992 1 14.327375959792754 15.764475940293583 1.7731663642032887 0 0 1
1907 1 15.70217682894831 17.246454515517954 -0.15497591950584477 0 0 1
2638 1 20.547744047543848 16.235925874770032 1.3438088882266106 0 0 1
2639 1 26.656981269011343 16.100004097203684 1.3087569144853195 0 0 1
2644 1 28.588641948269476 17.38080022609401 -0.22312112242674836 0 0 1
2641 1 33.08475491156064 15.862178852909427 1.5775791777526285 0 0 1
801 1 19.037591608807805 26.91485894340992 25.44546715231999 0 0 0
6808 1 0.30116382632473626 44.801714894938485 7.885820498576999 0 0 0
1247 1 31.717518736184342 0.7764186595873235 25.503601526329504 0 1 0
1995 1 4.36063984839957 19.303546352460295 1.2833564449135861 0 0 1
1997 1 10.76090818033859 18.64285988061107 1.5640788732690079 0 0 1
1911 1 12.368265718040549 20.467803644405702 0.1980353015473974 0 0 1
1998 1 17.28881900929263 18.850776866304585 1.4691792869517108 0 0 1
1237 1 23.98915880263505 48.04419355683727 24.247575556237067 0 0 0
2643 1 23.41614782593946 18.768691665059045 1.2520889449925174 0 0 1
6952 1 -0.017427786811935075 20.836443437158874 17.89424766856569 0 -1 5
2645 1 30.050493719890344 18.92867603119706 1.457501811901302 0 0 1
2650 1 31.854669196478362 20.63595423745324 0.12844799877035 0 0 1
1999 1 1.3661246798037447 22.414279932222342 1.0581968366484966 0 0 1
1477 1 -0.2137324805589723 23.921349226783967 2.281978239482145 0 0 1
1210 1 22.178189418094647 30.066658881298924 25.36254870239154 0 0 0
1306 1 25.030116751751574 39.71294554983483 25.47469026711365 0 0 0
2001 1 7.733141367695376 22.35369740089182 1.380255619324703 0 0 1
2003 1 14.040273535265712 22.054306588429036 1.4625200205371787 0 0 1
1919 1 15.734963899110339 23.587147334396978 -0.17598620852462837 0 0 1
2646 1 20.367561613729023 22.25230352052161 1.1166612299469745 0 0 1
2578 1 22.113626266639695 23.97769238669578 -0.07290019340598475 0 0 1
2648 1 26.427675892863434 22.364273644833855 1.3429910139004773 0 0 1
2581 1 28.48739461105001 23.403840126917533 -0.21755489808972894 0 0 1
2651 1 33.29012600788804 22.607996030342715 1.695173317654353 0 0 1
750 1 18.704170298478704 50.00986832053954 22.742096746318726 0 0 0
2007 1 4.654945938905832 25.51752370495268 1.268187708581627 0 0 1
1923 1 6.132153376368559 27.081756313350937 -0.16927570335214084 0 0 1
2010 1 10.54088157186548 25.6205267670534 1.4630416104813664 0 0 1
7519 1 0.38417493464589036 9.317462725636956 4.436359951728423 1 -1 3
2818 1 34.753849149516405 33.406634450901294 9.673564882720173 0 0 0
2011 1 17.255737719543042 25.515578518265595 1.6140800755033964 0 0 1
2654 1 23.35987537795469 25.724363123713232 1.5728659825775844 0 0 1
2658 1 25.44801873977194 27.020991749922338 0.22770490673384675 0 0 1
449 1 2.912487819969841 45.9866408136093 22.204140206694166 0 0 0
2656 1 29.674244411383548 25.371500712594308 1.089964832608685 0 0 1
2012 1 1.0530372934206047 28.422495472250475 0.9478718837310327 0 0 1
7743 1 0.12965516971985913 6.415256317155025 20.224305177134244 1 1 0
2014 1 7.768076475373153 28.683951297198735 1.3871843714785823 0 0 1
3168 1 34.74506987590738 13.864357091384793 22.465953499416198 0 0 0
2017 1 14.179873139877651 28.54209202653042 1.3356090376870193 0 0 1
1933 1 15.666425912601206 30.36647360955991 -0.12249936205562847 0 0 1
2663 1 20.38750213979526 28.716232975528765 1.1928673339474782 0 0 1
2589 1 22.112193423119194 30.574352055878588 0.0778180264209109 0 0 1
2664 1 28.320883735140697 30.379984124430994 -0.1691978737442855 0 0 1
2660 1 26.879063247388682 28.872965811858666 1.490477768076818 0 0 1
2662 1 33.392079672179754 28.207691644295334 1.0520563298859176 0 0 1
2019 1 4.333167441416095 31.51006730650317 1.1039980183975882 0 0 1
603 1 6.158089230399322 27.031415892395643 25.398835236537057 0 0 0
2026 1 10.7116418565586 31.814948468617875 1.1399184084334437 0 0 1
2023 1 17.146541053176737 32.17670030683884 1.3058690780733704 0 0 1
2198 1 18.876159427217743 33.62877230373927 -0.12884513967833272 0 0 1
2667 1 23.513646764199585 32.0421773960322 1.6753585093976686 0 0 1
2669 1 25.460237457875554 33.47118367831139 -0.14695691956455376 0 0 1
2665 1 30.140972249846428 31.92746746333415 1.2035993404507819 0 0 1
570 1 3.0201774664663703 10.955490044317743 25.44541526794398 0 0 0
2029 1 2.688101953744275 36.53829790982256 -0.17092009499597272 0 0 1
2028 1 1.1681441392744354 35.06807979085639 1.4459224159791135 0 0 1
1937 1 8.973706361434244 36.716771156461505 0.1168010883999071 0 0 1
2030 1 7.486123041445231 34.75718876721709 1.4476525098487614 0 0 1
2031 1 13.649542229449558 35.169657521136514 1.058668862449297 0 0 1
2673 1 20.260589283320975 35.21329136461905 1.5095056275301793 0 0 1
2674 1 27.083507163477705 35.03056832398441 1.2000996118891387 0 0 1
2676 1 33.49926642662256 34.90132771025134 1.1681593042438478 0 0 1
1944 1 5.490882339958182 39.52033321928148 -0.14224778790746712 0 0 1
2033 1 4.217679878961007 38.04522794893231 1.7770090000098766 0 0 1
2035 1 10.504313509114805 38.27810720275967 1.4379593298370104 0 0 1
8418 1 0.23528271184075056 30.664898485221116 21.93252766147978 0 2 -2
2036 1 17.089560715597287 38.35994167343672 1.5162941919209523 0 0 1
2593 1 21.971918354061266 36.85204821819944 -0.06412248972772988 0 0 1
2677 1 23.78013047608425 38.34542698784199 1.8667199635435017 0 0 1
1239 1 30.42903508856514 47.43750716489488 24.163806641034657 0 0 0
454 1 15.785210731564412 46.47524879077746 22.898027705648694 0 0 0
2679 1 29.772291559128377 38.357686204086164 1.2968022257618677 0 0 1
2038 1 0.918099760561591 41.67407637777811 1.606053774765244 0 0 1
2039 1 7.100778017535233 41.37093804576341 1.304382175045219 0 0 1
1949 1 9.252526470821369 42.78410403710306 -0.21332264702303777 0 0 1
1945 1 12.235160392084705 39.97782203712761 0.08193231459083083 0 0 1
2041 1 13.914988224333115 41.629744515133694 1.631988400564922 0 0 1
2162 1 18.89420978048153 40.14890502976213 0.17815926824654388 0 0 1
2680 1 20.622335293363392 41.611722140392544 1.4633917360770492 0 0 1
2603 1 22.512336508196203 42.83451611434687 -0.08062702107894759 0 0 1
2678 1 25.238172903126376 39.99744900166897 0.18301649783152568 0 0 1
2681 1 27.3105185857177 41.792855849533225 1.7243074094731352 0 0 1
2684 1 33.30447310396285 40.89547542574957 1.328878200577679 0 0 1
2037 1 2.5039702745344914 43.02829771197541 0.15243903114032964 0 0 1
2043 1 4.320688752924603 44.85627236963033 1.6975086388083047 0 0 1
2044 1 11.029441850105233 44.55495434564557 1.332799608594859 0 0 1
1951 1 15.634145157063555 43.23275379109023 0.21419737181485266 0 0 1
2046 1 17.463050507045317 44.652880827846275 1.4727316763449976 0 0 1
2685 1 23.935392839742196 44.74434962935584 1.4684821835543218 0 0 1
4631 1 0.3329720307698827 19.692076259129525 7.216267334334418 1 0 0
2687 1 30.119841739590296 44.715833276739886 1.342509007644355 0 0 1
2047 1 1.3562395847569126 47.882301955252416 1.4084123530705415 0 0 1
1956 1 5.550038860577219 46.26397596139928 -0.0870629242684254 0 0 1
2049 1 7.47347720628714 47.819382552800874 1.4213344825804817 0 0 1
2045 1 12.428910839419038 46.36903622105872 -0.022079317821135952 0 0 1
2050 1 14.132884332258818 47.89700344497217 1.4079870934930796 0 0 1
2408 1 19.12574149017848 46.26334646369108 -0.08502545080270071 0 0 1
2688 1 20.340197493140924 48.526632474326135 1.4086430497569018 0 0 1
2686 1 25.31244665440132 46.32911475378857 -0.24811407125477186 0 0 1
2690 1 27.0509643816437 47.68575040178854 1.2931717653405637 0 0 1
2609 1 32.04187775470889 46.47605352671171 -0.19517965623276357 0 0 1
2692 1 33.94903415448852 47.794912990983065 1.303010585286198 0 0 1
1959 1 2.825397506304717 49.402903590594235 -0.0770581830462555 0 0 1
1151 1 22.057314860075348 46.44313283601333 22.6543778033099 0 0 0
2052 1 4.593304064327241 50.79556482034502 1.2765573479155554 0 0 1
1961 1 9.495057712596385 49.32065328826192 -0.022130526989749155 0 0 1
2055 1 10.799339994985496 51.258425943400965 1.3490784132283722 0 0 1
614 1 6.449267063908827 33.38630114631505 25.411125459635752 0 0 0
2058 1 16.856731827361966 50.600225218135776 1.4227993552444935 0 0 1
547 1 11.08472908039107 47.864344948407435 24.28206438924035 0 0 0
2694 1 23.74551960494009 -0.18948590341139543 0.9585685700794326 0 1 1
7318 1 -0.23282497327939444 45.49496703728197 13.619306818155755 2 0 1
2696 1 30.23112839673376 50.95213686384439 1.1019558778690839 0 0 1
2632 1 32.07090085269145 49.39094482270019 2.408463799260705 0 0 1
2051 1 3.051521226851927 0.72499013747906 2.843264619321538 0 1 1
1688 1 4.53386095696086 2.581782542620305 4.461445978421689 0 1 1
2054 1 9.023513188737232 0.9341869568060015 2.877636783781978 0 1 1
1646 1 10.443010564064224 2.3246702002702606 4.483669160790925 0 1 1
2057 1 15.304074043622872 0.6271355286328534 2.857215362380453 0 1 1
1525 1 16.948262996452545 2.010128709926591 4.712567638195999 0 1 1
2693 1 22.138727378733652 0.8527893349976428 3.000827970497879 0 1 1
2371 1 23.97187488639203 2.321637292637292 4.4880492912238035 0 1 1
2451 1 28.76934217968386 0.987269852324814 2.907008790428141 0 1 1
2311 1 30.108219227703916 2.503268627517996 4.772491809779062 0 1 1
1511 1 1.3630238830040313 5.562297859418476 4.640703796416251 0 1 1
1658 1 5.94333992755921 4.7182285858295385 3.083038849289853 0 1 1
1491 1 7.924489786006969 5.824622662784064 4.454483013763635 0 1 1
1536 1 12.318314105068556 3.821916706325137 2.8838490442977105 0 1 1
1415 1 14.253408774806836 5.377982834592456 4.666234458224447 0 1 1
2150 1 18.644828044013803 3.7579815041445146 3.023581362692764 0 1 1
2274 1 20.377721857633833 5.222377204597989 4.444611674267101 0 1 1
2699 1 25.592642608124446 3.8409095149011687 2.6155356853361966 0 1 1
2201 1 27.341970326180174 5.9699059401746455 4.306124118879613 0 1 1
2701 1 31.27418122125979 4.373901425228192 2.9945770474733413 0 1 1
2200 1 33.20501262217876 5.823525952748555 4.380476852030437 0 1 1
2063 1 2.991943762224324 7.842747037649481 3.0588855862095867 0 0 1
1462 1 9.306946249339425 8.01790227863634 2.6973479967416925 0 0 1
2071 1 10.866947110555076 9.128377879969728 4.403536348793195 0 0 1
2066 1 15.632331169195735 7.339287919906668 3.03684135802274 0 0 1
2072 1 17.26909634173436 9.362927670630258 4.674391497982912 0 0 1
2703 1 21.904328527587715 6.665568424002164 2.6131719256062214 0 0 1
2706 1 23.32876554605404 9.307652108088849 4.25092325653718 0 0 1
2707 1 28.634227787805496 7.91546151625813 2.6780709843802963 0 0 1
2073 1 1.1016504886095038 12.328590519586811 4.873561565350049 0 0 1
2068 1 4.512160609718552 9.544523806735068 4.438738832166702 0 0 1
2074 1 6.10616325708936 11.505859872233197 2.9543677184638657 0 0 1
2070 1 12.45262630030741 10.879441640774962 2.780670192551649 0 0 1
2134 1 18.781271196349167 11.031007201943265 2.868724749156808 0 0 1
2635 1 24.909900979543632 10.822247090233406 2.8941752772652265 0 0 1
2708 1 30.2250353379086 9.467438156058998 4.149947156925359 0 0 1
2757 1 28.577472273393525 10.90299316516787 5.766242706232009 0 0 0
2712 1 31.839934714913525 11.01243460873505 2.7473122556910248 0 0 1
2969 1 34.68738914315184 11.050220634575208 13.053865341313385 0 0 0
1990 1 2.310718253980634 14.243188600855971 3.049669029230275 0 0 1
2079 1 4.182104459786036 15.5131418709383 4.483397197830144 0 0 1
2076 1 7.872957421095439 12.73713838758474 4.641950304008076 0 0 1
2080 1 9.447174448037037 14.360739909408615 3.02723395265243 0 0 1
2081 1 10.807382655419126 15.447818867446221 5.385908342445435 0 0 1
2077 1 14.124038070855613 12.517387917204264 4.702898108714815 0 0 1
2082 1 15.936038041018328 14.070336400544376 3.2759439900712 0 0 1
2710 1 20.59161379972386 12.599867702185701 4.138551372258561 0 0 1
2711 1 26.81076331920226 12.515539641028656 4.483999386925072 0 0 1
2717 1 28.31030406743013 14.19222913725668 3.010522557836411 0 0 1
2713 1 33.02005566765264 12.642149619504385 4.57877633633871 0 0 1
2087 1 5.820943424836534 17.46522652305777 2.944237788155662 0 0 1
2090 1 12.498753524924895 16.93457444238691 3.46891866341955 0 0 1
2083 1 17.40179782209224 15.674868457388477 4.716350275146504 0 0 1
2130 1 18.722246331249302 17.508076175711047 3.1168087742429758 0 0 1
2716 1 23.803991023804056 15.639607735356792 4.735647305681257 0 0 1
2720 1 24.943834049723964 17.249232697265306 3.0226478171885516 0 0 1
2722 1 31.471636324048845 17.354743996266336 3.102574378760613 0 0 1
2718 1 29.7244392558721 15.97190968883777 4.614983942897578 0 0 1
2000 1 2.5466539917949484 20.69454562035938 3.0999441025443613 0 0 1
2086 1 0.905719096908532 19.06941599254856 4.409056365807877 0 0 1
2088 1 7.861151699120297 18.875459569347232 4.6005451202756475 0 0 1
2002 1 9.126690652926866 20.508068603616113 2.919577489372928 0 0 1
2004 1 15.60082030500717 20.23537418179705 2.9351888636807626 0 0 1
2091 1 14.21224105120426 19.04540100029226 4.8515599253551525 0 0 1
2726 1 21.775907825647206 20.4511665648187 2.756899607400902 0 0 1
2719 1 20.46642723461565 19.03211825254954 4.585164969431769 0 0 1
2755 1 24.71240224379824 20.326358947463063 5.609051787599641 0 0 0
2721 1 26.67188967291728 18.824419781739664 4.270012043549131 0 0 1
2649 1 28.419552048735056 20.784565448333165 2.988702030616991 0 0 1
2723 1 33.291484431202676 18.989377333588262 4.523804629554231 0 0 1
2094 1 4.175857526690439 22.088642488163984 4.650223781272256 0 0 1
2008 1 6.067252102617493 23.97088672505275 3.027176157880516 0 0 1
2009 1 12.42510164854364 23.82163073554956 2.8730129949564525 0 0 1
2097 1 10.6236496549199 22.259613214714086 4.321897338123078 0 0 1
2098 1 16.95276800338672 22.340599861350935 4.265029224744028 0 0 1
2264 1 19.17021929846608 23.903505762226683 2.764491104301935 0 0 1
2655 1 24.92652095165188 24.143622128934933 2.857243404477469 0 0 1
2727 1 23.201116956987153 22.23991174131411 4.1191939936310895 0 0 1
2657 1 31.405847228688554 24.060093589101236 2.9952365575586724 0 0 1
2728 1 29.692502252289625 22.527107755219866 4.506042104773695 0 0 1
2100 1 1.1927906173752838 24.91872643879846 4.447687910775433 0 0 1
2013 1 2.52945381453648 26.89415451216829 2.756193357268218 0 0 1
2106 1 9.187504182635703 27.270183538287966 3.122369476967116 0 0 1
2102 1 7.4765139901736735 25.82989930372927 4.769258051575878 0 0 1
2103 1 13.90994416251619 25.587152243475035 4.811932423010467 0 0 1
2016 1 15.662831681758654 27.018050333634488 3.0003365003720948 0 0 1
2659 1 21.871639247971576 27.29019470173891 3.2317010826158694 0 0 1
2729 1 20.44373824650694 25.564213484602394 4.7173652711843 0 0 1
2661 1 28.125761921954087 26.971431567845013 2.8757294777036373 0 0 1
2731 1 26.587405681584396 25.86447822500421 4.78924387801251 0 0 1
2732 1 33.26899775634358 25.289829333136336 4.321402827842783 0 0 1
2020 1 5.941484131422614 30.071873737823793 2.9855808214073396 0 0 1
2105 1 4.224232055667455 28.33791156535871 4.231984430492332 0 0 1
2021 1 12.370614979459141 30.230943923124926 2.6765184348503306 0 0 1
2107 1 10.61471776124758 28.944536778824723 4.6211948278701795 0 0 1
2149 1 18.795373469216432 30.5165502088354 2.9272374972947692 0 0 1
2112 1 17.386248463034338 28.71828913666074 4.488034052484937 0 0 1
2737 1 23.49117423363856 28.913451882054584 4.8607182279083405 0 0 1
2736 1 25.327154680683915 30.336022115642837 3.31155743634955 0 0 1
2739 1 29.68682548844215 28.54543892585351 4.149631214031773 0 0 1
2666 1 31.649225055758006 29.965801063297885 2.7792451953550885 0 0 1
2109 1 1.1567765769371876 31.707755733776246 4.444514667572006 0 0 1
2113 1 3.087967016747974 33.38086762409374 3.0034450363549516 0 0 1
2118 1 9.207211124784257 33.50091644251489 2.7909102303221553 0 0 1
2117 1 7.359474376784826 32.08229245688371 4.38437442495619 0 0 1
2027 1 15.531191533528874 33.73491933283289 2.834960152923631 0 0 1
2119 1 13.924008550348365 32.017547929845634 4.3751836755481355 0 0 1
2735 1 20.552141452211867 32.09613857622102 4.454202180448912 0 0 1
2741 1 26.793212355955262 32.04811699801445 4.676944855125121 0 0 1
2670 1 28.571510790292738 33.6658724325505 2.9839333794566465 0 0 1
2740 1 33.334515290879736 31.964205667647196 4.365541598105306 0 0 1
2121 1 6.031246873995418 36.500270466317374 2.9959411226532677 0 0 1
2116 1 4.820769409626444 34.688046844270815 5.028010174124765 0 0 1
2124 1 12.32965088922457 36.56488505451473 2.914488800983584 0 0 1
2123 1 10.681891267824037 35.17289963661135 4.412906404584622 0 0 1
2126 1 17.33521379968982 35.40445099108902 4.58499266105945 0 0 1
2668 1 21.992654108668376 33.75985942164678 3.142815078820441 0 0 1
2744 1 23.58198918738658 35.13709203443457 4.777520289203773 0 0 1
2745 1 25.434595990878393 36.484633805595024 3.4248275835063016 0 0 1
2742 1 29.870972915109164 35.42167443238131 4.795247451329412 0 0 1
2746 1 31.646294118997556 36.49030638528082 2.5916980184616114 0 0 1
2128 1 2.2732421034384713 39.615002999846155 3.0641264052664914 0 0 1
2127 1 1.1994644680403275 37.84932975577051 4.708657834026135 0 0 1
2034 1 8.958663581427931 39.661509786156614 3.2863856029082807 0 0 1
2129 1 7.289843713971359 38.01645302807651 4.735986621328875 0 0 1
2131 1 15.318154385611264 39.761761636386126 3.046459649563205 0 0 1
2132 1 13.884445730806563 38.298994707827504 4.940436580011308 0 0 1
2416 1 18.966048790171595 37.099278207805014 3.090723740693386 0 0 1
2747 1 20.417867225269248 38.744921354221674 4.754813952867797 0 0 1
2749 1 26.75575742261745 38.28038308521491 4.844289755655838 0 0 1
2750 1 28.667337611052083 39.76922072516889 3.3041615788720353 0 0 1
2751 1 33.30621485355144 38.26655656127224 4.337515310149077 0 0 1
4789 1 34.74262607697692 17.307769422511132 -0.1411702135045217 0 0 1
2135 1 4.22099633242218 41.16346150966248 4.587964068438068 0 0 1
2138 1 10.504483794198851 41.51830291040598 4.761183960521213 0 0 1
2140 1 16.80721519943956 41.47994132007315 4.402671364294912 0 0 1
2748 1 22.17104007883708 40.30654696686052 3.3200385334223625 0 0 1
2738 1 24.080270013466738 41.81458942499155 4.800579423068703 0 0 1
2725 1 30.390822728867757 41.436361788976185 4.441132210731766 0 0 1
2141 1 0.8893762079625829 44.70103335749279 4.8673934430521655 0 0 1
2136 1 5.570849018194083 42.99845620629071 2.923666556423183 0 0 1
2137 1 7.421353857568587 44.548691602510374 4.309593415156023 0 0 1
2040 1 12.196230164348552 43.200045564013266 3.290881736141668 0 0 1
2122 1 14.143496700960743 44.66630983492006 4.3976898569491025 0 0 1
2192 1 18.93363197338654 43.02838808194663 3.253467706243176 0 0 1
2714 1 20.49099401570077 44.74898869598462 4.620429574450172 0 0 1
2733 1 25.603253113673205 43.43576820450055 3.1764108765946992 0 0 1
2672 1 27.245622278840525 44.642205391673045 4.834958051418875 0 0 1
2683 1 31.927161941486837 43.03520858858967 2.658618606759433 0 0 1
2743 1 33.584819485428966 44.03619555657778 4.490179600938477 0 0 1
2042 1 2.5303875561375286 46.259165466481264 3.279661971115394 0 0 1
2120 1 4.269893421483336 47.87579420961892 4.672451643895081 0 0 1
2139 1 9.206307021876375 46.212138874031396 2.815945299343088 0 0 1
2114 1 10.889282632199105 47.90763234901759 4.321817430801854 0 0 1
2133 1 15.588983926032006 46.18165481973779 2.897402567716514 0 0 1
2093 1 17.1815908203598 47.942141561816925 4.824095306858998 0 0 1
2709 1 21.730854435061215 46.441197399328146 2.781250188570673 0 0 1
2734 1 24.011418961090637 47.99194303866189 4.393370679358155 0 0 1
2626 1 28.657877406357315 46.33178852117004 3.201189642978157 0 0 1
2652 1 30.835271518226808 47.820390908312405 4.272437425178238 0 0 1
2006 1 1.2627217293869346 50.90853894594861 4.40398321957209 0 0 1
2048 1 5.891322375487064 49.36124295949122 3.1126641649746323 0 0 1
1894 1 7.828306259371756 50.73187576177328 4.465725701999647 0 0 1
2110 1 12.495895263396614 49.773547307287274 3.1433501632340004 0 0 1
1749 1 14.134598284007804 50.80472131688556 5.031750828723468 0 0 1
2018 1 18.560560086745692 49.32491384204846 3.2256950560580178 0 0 1
2533 1 20.30070612521232 50.85868754806114 4.546294199953394 0 0 1
2653 1 25.507888249238615 49.62350373277276 2.587441212659237 0 0 1
2513 1 27.4291639488319 50.75418388826402 4.50188467827339 0 0 1
2376 1 33.18536081899006 51.05160381089618 4.455021713449258 0 0 1
87 1 1.1829908278788315 2.107670148525115 8.034779306375455 0 1 0
34 1 6.213193749488626 0.8735143345135485 6.600324437165481 0 1 0
88 1 8.317248541172237 2.25292059090249 7.722138588699177 0 1 0
1953 1 12.060312093591781 0.8550292979581477 6.080159754924401 0 1 0
90 1 13.95237014599694 2.3794655402744476 8.153429723151266 0 1 0
1396 1 19.05690867592091 0.8751454186071337 6.573778834433052 0 1 0
850 1 20.612867650387656 2.398539566427471 7.90504136264421 0 1 0
851 1 26.8431753367994 2.5090760087227695 7.930740353265014 0 1 0
2577 1 25.78535923916706 0.41557423466451915 6.0126055572887935 0 1 0
889 1 31.57770685940604 1.0195655644605068 6.7822329856385055 0 1 0
853 1 33.26696986773984 2.4434171595343557 8.186539857122897 0 1 0
550 1 1.1093632201219084 50.81793008521598 24.373083315670964 0 0 0
483 1 3.1298324289188457 4.141081663369454 6.6764314502658735 0 1 0
92 1 5.200304084315621 5.778647338236234 7.960586969146638 0 1 0
763 1 9.556248845438095 4.478183019292931 6.608508778137436 0 1 0
94 1 11.14325597224641 5.88959694957571 8.201919374833489 0 1 0
1460 1 15.483456457944717 3.6954939099864568 5.955189670499963 0 1 0
96 1 16.91810733158682 5.4925552239152085 7.797137634762729 0 1 0
2189 1 22.40094738518382 3.9655550060925533 5.951704984702422 0 1 0
855 1 24.029170491527573 5.622014174585351 7.674317438984857 0 1 0
1395 1 28.459138270647017 4.141764228814567 6.5244325891288275 0 1 0
857 1 29.938666524462803 5.821423268504757 8.004988352920662 0 1 0
802 1 34.61296817651103 4.324101773005625 6.562785694868328 0 1 0
673 1 -0.07169969304182683 7.828328917649035 6.5819346127401905 0 0 0
1 1 1.5620944832051482 9.179924717141873 8.41898261750385 0 0 0
2022 1 6.50692684791387 7.810264084273092 5.837016519582378 0 0 0
2104 1 12.481785825148451 7.187691652741301 5.944961144495539 0 0 0
3 1 13.561816992803026 9.32249533739212 7.910863347334182 0 0 0
2765 1 18.89937080236346 6.876633929966319 6.058425867218366 0 0 0
776 1 20.43245617386086 8.666339262088702 8.187687579250664 0 0 0
2760 1 25.189369780029768 7.903758707769052 5.848780537483116 0 0 0
778 1 27.011266779384993 9.348277718187722 7.919108356602157 0 0 0
1397 1 31.549859192735966 8.022957661795925 6.545662052682704 0 0 0
779 1 33.41141085161727 9.16758463439346 8.163157817515314 0 0 0
560 1 3.1063857258826255 10.964423554270713 6.652198099805088 0 0 0
2 1 7.636756618752072 9.471776423858426 8.018695015400947 0 0 0
244 1 9.534815191834054 11.244087131758238 6.570725004854293 0 0 0
613 1 15.590712330242098 10.665008659467397 6.798144191322579 0 0 0
11 1 17.402390948369476 12.291554463572314 7.994900048241691 0 0 0
2730 1 21.89817900453582 10.444199647722392 5.963916169720941 0 0 0
781 1 23.49704470988748 12.316784013678694 8.317993825082588 0 0 0
783 1 29.771835596587692 12.187604719923666 8.054868335664967 0 0 0
1380 1 34.436598890493116 11.150025049858959 6.799906294736406 0 0 0
6 1 4.217587769804017 12.517891213557114 8.558212974764016 0 0 0
741 1 5.671683540532462 14.112204431751346 6.8854354482698135 0 0 0
8 1 10.659486182002317 12.531927414218782 8.734367969234862 0 0 0
48 1 12.640526353339846 13.831028580102789 7.137988455322924 0 0 0
2759 1 19.153846756593683 13.990080733256807 5.96737394953413 0 0 0
785 1 20.59411988234487 15.470183526179946 8.2751233933471 0 0 0
833 1 25.248765929944906 13.943599748701734 6.660990278479946 0 0 0
1274 1 31.361734725020977 14.217348802960567 6.522899181250539 0 0 0
2024 1 2.5643763980133896 17.274461773099308 6.03738624207989 0 0 0
12 1 0.9169559970427468 15.833386635498407 8.31790391748563 0 0 0
18 1 4.252056980724761 18.407386802118605 8.467825221984484 0 0 0
14 1 7.112128698572781 15.614125863354282 8.534173505798282 0 0 0
601 1 9.21064987938988 17.37311593597019 7.146739883115456 0 0 0
734 1 15.62872120095885 17.241211522656844 6.847267871529752 0 0 0
16 1 14.212981010670088 15.900652388035635 8.577513705449055 0 0 0
822 1 21.89297778401794 17.240603628055585 6.641150643211971 0 0 0
787 1 26.860805656684498 15.533042893857163 7.995516166952102 0 0 0
1388 1 28.274819415310073 17.458565244337 6.609553554124868 0 0 0
790 1 33.07511399579 15.77202627816672 8.092961383377846 0 0 0
555 1 13.922972741445648 51.03071663494315 23.96922960050549 0 0 0
83 1 5.851115222188802 20.432092463965635 6.698611676932267 0 0 0
39 1 12.272570741135022 20.973933616163023 6.742262736606575 0 0 0
20 1 10.802363684652878 19.46624368820735 8.185286651886253 0 0 0
1413 1 18.761719572192124 20.87706500322513 5.9557556522345605 0 0 0
22 1 17.23949500738097 19.182419107098166 8.16032721147616 0 0 0
794 1 23.560416430477574 18.7778513744298 8.007950315063633 0 0 0
796 1 29.872964916343157 19.227541475641996 7.983419047894094 0 0 0
2479 1 31.61269113118237 20.840736565880945 6.033280545105793 0 0 0
684 1 2.7086288837109156 23.398833646656115 6.690254756611906 0 0 0
23 1 0.9902869720343861 21.969358093503907 8.366965632458555 0 0 0
2143 1 9.040906427639179 23.81387278633668 6.041099482284046 0 0 0
24 1 7.293388050325795 22.213128658196297 7.926753365819506 0 0 0
1570 1 15.513345481570774 23.82865139977201 6.033511055599428 0 0 0
25 1 14.083400494745728 22.392304512562397 8.098534178625249 0 0 0
797 1 20.40093723680872 22.574791493855145 8.069971537472934 0 0 0
2762 1 22.165495209920294 23.98208350010876 6.073008355483801 0 0 0
2724 1 28.046839243036633 23.808319917194574 6.063327191625088 0 0 0
798 1 26.339865137949733 22.01493300486638 7.561211577730663 0 0 0
800 1 33.504696074182 22.120585139892885 7.909443148717237 0 0 0
1981 1 -0.22971301874767294 26.87787820245107 6.110637683964205 0 0 0
85 1 5.755482289215103 27.190052521356446 6.854515174866201 0 0 0
28 1 4.363117540675777 25.227636074997243 8.182468313208007 0 0 0
432 1 12.157542618551343 27.287750229178485 6.591578728755165 0 0 0
29 1 11.002847453378461 25.143857809904944 8.058008688914443 0 0 0
1421 1 18.605420540840118 26.84883039998693 6.119769615662327 0 0 0
31 1 17.0799802734849 25.265377607010155 8.281497613397518 0 0 0
849 1 24.84430845750872 27.462371624157193 6.956360972873136 0 0 0