LAMMPS data file via write_data, version 29 Oct 2020, timestep = 200000

4608 atoms
1 atom types

-0.2972489250485637 53.69724892504635 xlo xhi
-0.2886627702613609 51.195782770261175 ylo yhi
-0.2886627702613609 51.195782770261175 zlo zhi

Masses

1 18.015

Atoms # atomic

4476 1 2.0004690435279477 6.02367233171101 3.710012474881649 1 1 1
2738 1 6.22316950758074 3.4984143625725057 2.467910548018724 1 -1 1
2770 1 14.069666689336596 46.55687084757423 24.575186492973838 1 0 0
1111 1 3.569301306194611 39.018774811877556 0.5061627074953634 -1 0 1
2567 1 6.637133792319473 29.389417720950537 25.336464096982063 0 0 1
2268 1 13.113798146708275 37.440243773887076 1.0741752305721977 1 1 0
3622 1 3.9351275909840826 4.02304605583736 22.91924499855186 1 1 1
1694 1 8.301271700078402 8.220183125630312 4.76278970034268 -1 1 0
676 1 9.21656283160935 4.184055111631027 2.672287689237516 -1 0 0
3752 1 0.23053507530654482 11.05293668502724 4.292634088932171 1 0 0
2091 1 0.37599920351797433 5.774140086254986 20.4854128706956 0 0 1
262 1 11.484260521060115 5.910833764460118 1.6235618314865736 0 0 0
653 1 4.803217023892336 36.55287608799379 10.427882215850357 1 0 0
2154 1 1.2450113538952516 38.6211696174797 4.958719426712316 1 -2 1
2584 1 4.089905524590473 7.497672145402113 2.339816993720148 0 0 1
2131 1 11.336675838474058 48.94951397193437 23.964475178933625 1 0 1
2053 1 13.004555649373561 12.648680248758883 1.9572199185871546 1 2 1
990 1 2.1183589836960306 34.82907742456125 22.081214082615585 0 0 1
1527 1 0.3311467407691814 12.93297323061196 1.2375075776021771 1 0 1
834 1 12.744168685616186 46.16689342656897 0.8718746796409311 0 -1 0
1689 1 17.69168251192428 8.209412617237634 16.72493953708015 1 0 -1
2742 1 4.00373459415025 10.517324543402236 1.548467869942639 0 0 1
1816 1 15.731643934830107 28.2956913386714 24.412125844449164 0 0 0
1285 1 12.870721968268787 16.588075487519806 3.5320053430719303 -1 0 2
2538 1 4.439055938110878 36.2059044780308 22.84671228615903 1 -2 1
4419 1 9.478264702896771 3.076461295954176 24.76409655651082 0 1 0
1557 1 13.218698270828597 50.9481913677455 24.358129342215793 0 0 -1
4059 1 6.170743048253657 14.396730480896458 2.6731739301567514 1 0 0
4257 1 7.76213692450877 12.574928370584546 -0.0012496954372663294 1 -1 0
3527 1 0.4969935507721338 32.356626132093815 8.081481238782358 1 1 0
2174 1 1.7712017188054636 16.118959145155813 3.117753778417059 0 0 0
1059 1 17.564535209318347 13.316902316772579 8.107201519945257 1 0 1
1672 1 2.152563052503825 24.70211352158629 24.01364981201939 1 1 1
2232 1 2.100795615469388 22.48312017245954 10.46910726866683 0 0 2
2669 1 15.380532937559105 17.259462134280824 2.4838809847491774 0 0 0
359 1 10.03923337734668 22.04168395410487 25.291473591125932 0 2 -1
3669 1 1.2214699947538274 18.485981903545337 17.091691052520556 1 0 0
781 1 6.645797842164741 19.39195740351269 1.3115929326095381 -1 0 0
3838 1 17.290601155395272 6.800006573724758 13.89629279030575 0 0 0
3296 1 -0.09287103418185097 31.5891237838197 3.933566492841451 1 0 1
3182 1 2.796420066936024 14.790418645380623 17.024110444999597 2 -1 1
3936 1 9.625230744431882 22.938024300891737 2.4747568948275536 1 0 1
2287 1 3.173998036479876 23.466289752186206 4.089410240930904 0 0 -1
4300 1 17.670082315439018 41.843401383211194 0.12253313430610613 1 0 1
4589 1 14.989034113040574 20.4911299324183 2.435793503587643 1 -1 1
4199 1 16.677815069544067 45.113112624941216 4.6270684534664515 0 0 1
1916 1 1.8813758946243717 35.84397297458189 3.929868023484932 0 1 0
1118 1 10.262711634564505 26.563192447929108 2.5299014899840366 1 1 0
3275 1 12.761641925152471 32.84250183992427 -0.17186548661401885 0 1 2
2253 1 14.054022856793374 24.308063550788486 2.0434571207316217 0 0 1
1761 1 9.261769711836035 20.468684575898507 0.9853887119693248 1 0 -1
2319 1 6.94844275229737 2.7109222680521903 23.50695222852901 0 0 2
304 1 10.097280764617437 44.39277168962387 23.398084603230163 0 1 1
3318 1 14.510282962609143 39.4287087102071 21.593020064704994 0 -1 -1
173 1 4.289121067786214 26.479816769223984 2.6332891041801845 0 0 0
3128 1 16.39471728978986 4.836963342487054 15.612985578963896 1 1 -1
1267 1 0.24591509897304586 9.677591755462442 9.072423936423355 0 0 0
2016 1 16.72563915983347 39.062146441899166 2.813629797556792 0 0 1
637 1 0.4883139922114327 5.292031195752386 6.085261807892811 0 0 0
3141 1 3.838318550585286 30.56826056305182 3.0812143766480173 1 0 0
171 1 6.262307580506208 22.862351303385104 24.00364076214964 1 0 0
1277 1 16.576083282170732 31.742687767090054 24.979620928570913 0 0 1
809 1 14.916157564078627 31.729223179855452 3.488980921566792 0 -1 0
2939 1 12.473754664442735 29.09995760397868 2.1768437579949533 0 1 1
3228 1 -0.0929803961065627 10.929979456399227 11.57482276750234 1 -1 -1
2270 1 11.989973030172594 18.487630607970047 4.884780041185849 1 1 1
609 1 8.082899060365405 33.08445570337774 1.8745458387541278 0 1 0
1661 1 6.243589946057394 28.4130756017878 1.9898239229302828 2 -1 0
2150 1 11.159825913429236 33.327696375849165 1.9744328147376615 0 0 1
2302 1 1.1444399404184564 8.671387653490443 19.632046206589262 1 0 0
4191 1 0.03559905389116014 32.4613350437375 13.050833844815992 0 0 0
1480 1 17.5766431688682 21.10668709819822 5.116333455097617 0 -1 1
668 1 1.653373812786952 35.81930955761097 18.434728009592035 1 0 0
2750 1 1.2991168209752133 46.467606792093235 13.546059609075142 1 -1 2
3623 1 8.396864620683722 35.994270601001034 2.242395648134886 1 -1 0
952 1 10.10770482810074 49.839252942685455 1.8876126988057433 0 -1 1
989 1 14.110104737260961 37.8958479042738 3.6101899215831796 0 -2 0
3071 1 0.26120442812046984 47.42731325820553 18.21122156511866 0 -1 2
2381 1 -0.021751812005172955 23.30678718903536 8.410319004079602 1 1 0
103 1 16.768038384445454 45.61614740206906 24.436915430232755 1 -1 -1
133 1 6.521014485440911 51.11462567539795 24.846326103426254 1 -1 0
379 1 0.2543168941222468 33.90079776292134 24.241552912074535 0 0 0
999 1 1.2501834233475753 46.60236689940829 6.286113871544267 0 0 0
1150 1 0.9454821226677561 37.129982345795064 20.944507557043345 0 -1 0
492 1 0.8753614007551132 18.173645015125448 1.0371033967488377 -1 1 2
1043 1 13.497565417287076 43.09541940148295 0.6229619454114504 0 -2 1
4057 1 3.387282066633732 11.625140921945047 23.235795045566345 1 0 1
4538 1 0.9044330763466728 25.09218891346739 14.016332988345239 1 0 0
2905 1 4.4065230789408325 39.8549718864903 24.781205153525658 1 1 1
3480 1 15.005684569285057 7.537434414324557 10.173956498879075 0 1 1
1964 1 0.1962498048544533 44.807249251849996 11.301436685030321 0 0 1
4570 1 15.130115103171448 42.75496505423958 3.2691819942231533 1 -2 0
2991 1 12.732021403834445 26.462574576201494 0.744138153719212 1 0 0
257 1 12.311675596307055 45.50049109651118 3.654773541016858 0 -1 1
1776 1 13.5282230973072 49.016895078563586 0.4357021958120192 0 0 0
4334 1 10.604233973009991 38.01160054743252 2.1727652239094253 0 0 1
2036 1 2.0890167439114586 1.5127680257332696 1.2709231381856847 1 1 0
2732 1 10.476206630902544 16.036167784182496 1.3512914216479808 1 0 2
742 1 3.186764618789219 47.74730784663309 0.7473524507770581 1 -1 1
184 1 6.920139088031585 50.209995708692624 1.5277099785105182 0 0 0
3629 1 2.8867089901633056 1.9221447375573284 4.0141179124223845 1 0 0
3829 1 5.205742845285046 3.7121755955486906 4.974473358438287 1 0 0
2708 1 9.272133666131293 50.89091810845371 4.456590666954312 1 1 1
562 1 9.780898026728302 46.823321195426445 1.201485053949708 0 0 1
3286 1 15.223444222616127 -0.09835161043214655 5.704301493038123 0 1 0
287 1 5.922014507430122 33.929398327463716 23.281478878843323 0 0 0
136 1 -0.0025139236308077684 20.032097001045173 5.036046430290868 1 1 0
1130 1 2.76439053618245 12.051387820078155 3.579483181141349 0 0 1
3747 1 5.767880165182917 6.416468425679465 6.391516019147113 0 1 1
1144 1 5.9612807068665115 9.17658320923508 5.842420986766818 0 0 0
3999 1 12.249747451988698 2.4171853562469554 3.3181056787924468 0 0 1
1866 1 9.151479880846672 2.358351722160099 4.430412025781779 1 2 1
888 1 14.16308396068062 4.521095247666958 1.9288003490250785 1 1 1
274 1 9.831186858036576 43.760544054536346 0.11440126070259998 0 -2 0
1962 1 6.555417606876882 9.989976701658472 8.284483873204866 1 -1 0
1662 1 10.486378598456726 7.610753975509745 6.590808153322762 1 1 -1
2335 1 8.441104731317369 10.820758364061545 4.140965709862802 0 1 1
2378 1 12.08174662015895 7.8395901187394195 3.4243781603769183 -1 0 1
166 1 14.678968146654627 6.619563916549463 5.800587702326821 0 0 0
2579 1 1.0951931851516312 49.61539241919953 3.932048299117538 1 0 0
2987 1 4.082817021394342 11.700417165021243 6.047640717931452 0 1 0
2051 1 6.449313407058643 11.517746432185357 2.2720252642290086 0 1 1
1515 1 7.124322154946055 12.40839970002079 5.98904175046853 1 0 1
3646 1 11.346876775860668 14.274176063349609 3.4434791169339656 0 0 0
2762 1 16.580757522239786 11.530995485229882 2.388079187579228 1 0 0
4111 1 3.5265555029179505 14.495191934297926 1.633355918701352 1 1 1
337 1 4.951021823003873 14.466301754702624 5.34981471106091 0 0 0
2650 1 16.751219565246313 42.173637619981776 19.987492896622513 0 -1 0
2813 1 10.94562580366412 12.275348640782667 6.193158305027465 0 0 1
2794 1 0.07528839759640504 30.158920810206507 20.796371914886418 0 0 0
1966 1 8.260373459047699 41.07364066581884 0.6981131042410353 1 0 0
2398 1 3.47492241682914 17.04494534562823 4.953739274741632 1 1 2
3517 1 8.899768738024173 14.342130832152064 4.49361289133989 1 1 1
700 1 10.941141091485989 16.28293836434787 6.8245834359503466 1 1 0
1067 1 16.42922726460892 17.589438181480823 5.184301138760586 0 0 1
4575 1 1.3082395472744293 41.16303798070786 8.614094675772614 0 0 0
4430 1 6.244813499299075 17.990649845075524 4.810810933729885 1 1 0
1712 1 9.906691659157557 18.581087719155054 2.861066159741982 1 0 -1
1213 1 14.632588549063854 20.108381722008914 5.489137840602691 1 0 1
331 1 12.553993579965448 22.109918990923568 1.9724123640279183 0 1 0
3494 1 11.358067478852924 28.66766792118386 25.090316745184737 1 0 0
3889 1 2.6699917351473728 19.740347334953967 3.7167848190938946 0 0 1
2938 1 8.904164968846645 25.336221962028514 5.3581135540067555 1 0 0
2644 1 12.25145085470596 21.83522845857471 5.335854728241861 0 0 1
3135 1 16.43221585540937 22.58213554485702 1.4574284557600112 2 -1 1
2192 1 0.10242309820731099 11.545177818952652 15.60287626051008 1 0 0
3828 1 15.13369182189592 31.791600876762068 0.5723615283635205 0 0 1
35 1 0.8478406504656664 47.43416392882774 8.89180446786224 0 -1 1
3373 1 6.226064987187925 25.195772754890495 4.600485548306061 1 1 0
2504 1 11.945093216542706 24.746248713276707 4.136463476704892 0 0 2
1623 1 13.11862891223556 26.77118546895437 5.6996397364318065 1 0 -1
2524 1 16.498320614417533 25.804499685181504 2.5897260596252947 1 -1 0
2499 1 2.3231419311574193 31.356258499600965 5.254688629697825 2 1 1
4007 1 6.597137862828212 29.460860591780232 4.978616441241585 2 1 0
1990 1 7.841406015635275 7.012611206242538 2.3440068509338094 0 -1 0
4177 1 11.447335092452061 31.83209871535022 4.428148218924675 1 1 1
979 1 11.476461077646103 29.222869192561355 4.776432656751909 0 0 1
1258 1 10.185374736898897 36.14056429304515 23.759343341660188 0 1 1
4319 1 6.701183237439449 32.09920483559531 4.159502148149503 1 0 0
4143 1 2.2595851896858 34.168804514262824 6.564000302340194 1 -1 1
149 1 9.458722408427871 34.448759239875464 7.328037576068127 0 1 0
1697 1 13.759470078462558 32.402811863923645 5.906219704914997 0 0 1
3585 1 15.216342261443671 28.91421776082112 2.5226246078073853 0 0 0
47 1 17.439036112887624 31.748080071692605 18.797545696072824 0 -1 1
2432 1 2.5206594819363155 21.866073590945323 0.22873170014756306 1 0 1
480 1 5.329724020502285 32.3092770764112 1.2331862282618042 0 0 1
1938 1 7.154502480158599 35.96466437254207 5.112833332598725 0 0 -1
681 1 13.200432407695326 36.461200429585325 6.379797987648056 0 0 -1
130 1 1.0047516562767933 7.587996651306814 0.4423628593378379 0 0 0
1341 1 0.2612652931003231 26.237840701737987 4.184004705835773 0 -1 0
4577 1 4.754116458451644 36.655299132210736 3.1202793513495646 1 1 1
2444 1 5.642255901977448 35.10768201360526 0.7274439238413477 1 0 0
4402 1 0.5176951087356075 41.44559116036811 4.593578524125222 1 0 0
2422 1 11.08298289922792 38.87649593120584 8.146825758840238 1 0 1
4381 1 11.600890232785458 35.78157539312557 3.4516136679795286 2 0 1
3945 1 13.304991809380002 40.478480719904596 4.2246643494070515 1 -1 1
2640 1 11.384124320440044 10.59265400589938 22.915889985510898 0 0 1
4033 1 2.9285579404628774 38.84814866726684 7.222841227430911 1 0 0
4387 1 5.275133724704915 38.52093493571015 5.341843042926509 1 -1 0
2774 1 16.63721307597595 17.544457936512273 -0.11391715164266761 1 2 1
3201 1 0.2033269593635474 1.9850552836277515 21.504735981007165 1 0 0
373 1 12.838451620137473 49.02413979210414 3.427802893710786 0 -1 1
4514 1 1.7445129083410058 42.5725391365747 2.3102146701859794 1 -1 0
1608 1 4.372370334152893 42.95522169192517 3.7904185463905646 1 0 0
4040 1 5.234263872550143 41.38686809507026 1.4610494606853999 0 0 1
41 1 9.567883995638029 41.66753416988317 4.398624836807804 1 0 0
2285 1 10.946446739849097 41.01053079066406 1.9232736917683662 1 -1 0
1956 1 -0.12833780895845026 10.066036139171555 21.816812337550886 1 1 0
747 1 2.3903105636766506 47.244541188764735 3.2619030657251407 0 -2 1
2895 1 5.8347214742559625 45.62984310322103 3.89520541026764 1 1 0
186 1 9.595447769072234 44.63344626966959 2.978812880809895 -1 0 0
2687 1 14.620163696178741 47.136998818907706 4.704342826633085 0 -1 1
3940 1 4.10849218658101 50.60302608768053 1.6119159179601854 0 -2 1
293 1 7.629343403219515 47.72667976106332 2.9656278522655786 1 -1 1
1627 1 5.841627804451034 48.13521212243155 -0.2592254307034877 0 0 0
3760 1 12.172664379643143 -0.16760793170333954 4.552343686368176 0 0 1
499 1 16.267370484640907 49.1450203050353 4.165671695128083 1 -2 -1
2521 1 16.5225242934866 49.7402037443587 1.4755604937156033 0 -1 0
2044 1 -0.006137565579972637 34.0537049180151 2.9212720109137305 0 0 0
2910 1 3.7549242663553875 51.05936911743273 7.7695237463348015 1 -1 1
1902 1 3.6965119057618026 50.925824161199365 4.524730732303279 -1 -1 0
2065 1 8.558169729600023 0.2347216791688449 10.815880462206037 0 1 0
3834 1 9.998170382612972 2.995222969599187 6.922277250351377 1 0 1
189 1 12.26029072165033 1.4895605060731456 9.794968601638423 0 0 0
4070 1 15.414511358938698 14.318204350903972 2.2182888521893087 0 2 1
4243 1 3.3007885977781326 4.856830907999389 7.1731422060150205 1 1 0
793 1 3.983842020370944 2.5544645258236693 8.993483983306904 0 1 1
1958 1 6.680212700738309 1.2298499331877406 5.880341692685612 0 2 0
3667 1 8.797723132528095 5.519309484455758 6.25954690256862 2 1 0
1293 1 0.8850155324642717 2.2568520134394916 6.06129436499951 0 0 -1
616 1 14.141226514454242 3.8956063659649107 5.456079744812325 -1 0 -1
3258 1 1.3366238582551289 6.680404920189114 8.40031303981408 0 0 0
2820 1 5.627949839176152 7.779578555110218 10.271349161949562 0 1 0
2395 1 9.136550363516527 8.363695523941697 9.399293434014188 0 1 0
3649 1 10.202479447995145 5.196317123832821 9.304725844278304 0 2 1
2301 1 -0.0622527857358898 50.86104813058793 20.59036070037808 1 -2 0
782 1 6.0919316346195895 12.929084157569287 9.311229200707821 0 0 -1
4037 1 12.048213648114713 10.217574403475082 8.986062684428171 1 0 -1
2195 1 11.302717303431919 10.684484742298343 3.5805409233404086 0 0 -1
2725 1 16.26699388549293 11.730842484173323 13.408611626271957 0 0 1
1952 1 12.998607548397112 9.318536802188955 6.029426121661895 0 1 -1
4553 1 1.37672903654346 11.857249456876799 7.3781747523383165 0 0 -1
2357 1 6.065594269663323 12.743905841258222 12.312139968354515 1 1 0
2950 1 9.065639601484525 11.352114413763957 8.247497331299423 -1 1 1
2942 1 9.013349811632002 14.30007919632426 8.23328887650015 1 0 2
3980 1 15.358074808232828 12.083402855012652 6.478169603856434 0 1 1
992 1 13.824616852507406 12.40052516718989 8.724659415102964 0 1 0
4135 1 12.828991394169197 31.40533980388474 24.124618857556108 1 1 0
4440 1 6.425701753267113 15.562661174965656 7.717693125586557 1 0 1
2831 1 8.95600689747828 16.774676039192833 5.227509379304845 1 1 1
3404 1 10.950433967229756 15.579114899433394 10.198541935685203 2 0 1
2064 1 1.0755265155094558 45.564100777842825 16.138821331479047 0 -1 -1
2282 1 8.8017369866786 33.74281602646085 25.341187375592806 0 0 0
2059 1 2.49692333445015 16.36728657742658 7.284756017307501 0 1 0
3231 1 6.240377585836248 18.863348265590833 7.332232935129273 1 1 0
3851 1 5.046448635961633 21.168188999037554 7.935413644626408 0 0 0
1248 1 8.818129237175372 22.9098045238076 8.33598128131255 0 1 1
1842 1 8.863735887891224 19.888977753179372 8.577815084276413 0 0 0
1971 1 2.5535538213199507 20.30231203976322 9.146050117510413 0 -1 1
123 1 6.639076705832098 21.63758469643694 2.983892653177918 1 0 0
3084 1 6.275975416033445 20.99210071080648 11.662365796937875 1 1 0
2418 1 4.570358479079604 21.30823980880418 4.9509979781966855 1 1 0
3247 1 12.776616055150235 22.748543638949908 7.977819413628488 1 1 0
162 1 14.040012857484166 19.167827329899353 8.309649431450968 0 1 0
3307 1 0.6474824439570321 22.31689125413825 3.584266333329411 0 0 0
3908 1 2.6401849776405615 25.231156391919342 6.208370432613412 1 0 1
1942 1 9.328527023146322 26.38045214985584 8.058718716829281 1 1 1
1508 1 12.32286773901305 25.408739855245003 7.767427527407879 0 0 0
4008 1 15.49397163384063 27.678445437318807 4.6902743163634 0 1 1
4313 1 2.2892208355921055 28.670882327347492 6.590708399655023 1 -1 1
947 1 2.2556804823476644 28.05269942632124 3.8466990663593794 0 0 0
2726 1 1.8571644998174306 0.8965226003439113 25.35421854436409 0 1 0
461 1 4.946043934966465 27.13014854732939 6.0156973752239615 0 0 1
387 1 9.065367858009484 28.41608770102078 6.204048073883977 0 0 1
3215 1 13.952954978652444 26.961372136034964 9.591035446562147 1 1 1
2877 1 12.10164049749493 29.79058180351159 8.998954790033663 0 1 -1
2998 1 16.289069813379466 28.166956176598436 8.809417425967599 0 -1 1
857 1 1.9149509032545673 32.58969303799911 10.742286171198627 0 1 0
2582 1 4.477086482053939 33.98140151098632 4.637136853885595 0 0 0
778 1 9.144374860264444 32.23581824998507 5.970950367731454 0 1 1
2267 1 11.385655896125119 34.416686115612265 9.9122676177889 0 -1 0
1744 1 15.925685379982355 36.93385424658094 9.63470289915844 0 -1 0
1713 1 15.120180219188137 32.37852676178963 10.593992328151208 2 0 0
3163 1 2.6341162901283686 39.042787208089024 12.013671072898283 0 -1 0
389 1 4.971848613647687 33.218960271773014 7.566211619271488 0 -1 -1
98 1 10.159665802462174 36.789662469250814 5.815015029439604 0 0 0
1901 1 12.071954490360149 37.004649159948194 10.745371023762594 0 0 0
177 1 0.03564816140990429 22.45939424719658 0.9676078446046061 1 0 0
3459 1 15.494481079555017 40.13554177066289 6.3074792608525 0 0 1
1123 1 2.893704091733395 44.910280979265345 9.685995200152467 0 1 1
2466 1 8.240849765876153 39.082586483263256 7.1664132384580235 0 1 -1
4475 1 14.119059796466113 38.54739537821266 8.175130966974145 0 1 2
2573 1 0.7320211527622897 30.542548752623794 23.666273753741145 1 1 0
2566 1 16.125343488339215 0.559837466247636 24.449943836503255 0 1 0
1367 1 4.805371192316504 39.39123930040561 9.506356834686294 0 -2 1
3026 1 6.029530734212117 37.29999053967776 7.782280152121679 2 0 0
3914 1 8.127295313146396 38.7921851469389 3.993138233400142 1 1 1
3937 1 6.6552862621444016 41.28862989177881 4.921222001208896 1 0 1
554 1 10.892691393804466 40.03431366515974 10.891336278040406 0 0 0
1827 1 11.5065891668567 41.327846626667416 6.331505019390939 0 0 0
1391 1 0.4619311256679196 50.57352168667395 15.300478747990082 1 -1 1
851 1 2.9145940548705127 42.04050123786936 6.489999109605579 0 -1 1
273 1 8.085208042690537 44.16281603851086 5.349726907905821 0 0 0
2101 1 11.375067672409754 42.50413460096912 8.986475157277987 1 0 0
1906 1 12.440953952787213 44.29352686008432 6.718291647161142 1 0 0
3859 1 3.524083209169964 44.75348506042708 0.7592255801269672 2 0 1
90 1 4.249100188192286 47.117239722251504 5.6291767143805265 0 0 -1
1932 1 8.85039730760411 46.34395225190376 9.474464721748232 0 1 0
1537 1 8.748994690165132 48.950279195531415 6.757058512005935 0 0 -1
865 1 9.86945858122184 45.7735924340603 7.040346970350912 1 -1 0
1663 1 9.070117888818626 43.595774076954434 10.377836438759584 0 0 1
169 1 12.207358721479 47.61736916077499 8.575651061295964 -1 0 1
2671 1 15.624082506586957 9.17868554062264 7.728389074343724 1 1 -1
377 1 0.980358156840361 8.681636859804847 25.44491992741342 1 1 -1
1110 1 6.2201669977350065 50.11755816042452 4.304114072871302 0 0 0
1127 1 5.680818469705935 48.80980768310704 7.352835039858932 0 -2 0
2925 1 9.771435341488045 47.52504361958653 4.595915360787787 0 1 1
1322 1 12.24884706408361 51.10369658940777 7.533679113655851 0 -1 1
2716 1 14.237084671234106 49.890672069914544 8.885156083704068 1 0 1
4349 1 1.9832177455494477 27.143675149760345 15.30057403011486 2 0 1
1296 1 7.949441680070731 1.5370388397947703 8.373584927598605 0 1 2
1673 1 7.460524859047678 3.2478451590255872 12.415358690046602 0 0 2
3076 1 11.26407217014992 50.0013302670634 11.721043798226898 1 -1 1
4195 1 10.447067266749453 2.3070207619152794 11.888688032679498 2 0 0
3024 1 15.43198837306684 1.7620202989757283 3.4425869582846205 0 1 0
2423 1 2.018369403729942 3.3498917868202294 10.482525757679792 1 1 1
22 1 6.640226406722273 3.780795748383622 9.75078792196278 1 2 1
334 1 7.239416054102163 6.2771366052004 8.653760120512624 -1 0 0
3033 1 14.912278389646586 2.1682515567950116 11.13869983123479 1 0 0
2112 1 14.656516058514141 4.762959273481359 9.828518822772688 1 1 0
1310 1 6.3503544667241245 38.355391380304916 1.4853566884709095 0 1 -1
2424 1 0.5607580485701786 36.460416787776104 25.2267432992838 1 0 -1
3498 1 3.513257998696255 11.503046972966093 12.884029625104725 1 1 1
3274 1 5.114215344094623 6.5893072963559955 14.694245801134905 0 0 0
4219 1 12.588657984651647 3.669914540414793 7.959747548273125 0 1 1
4197 1 12.285193063065982 7.730476892106875 9.435354850235148 1 0 0
836 1 2.4038395963664168 8.255017697852663 10.35835814279656 0 1 0
657 1 4.081487633822096 10.449035734050046 10.370520554047573 -1 1 1
1774 1 6.862940445037557 10.514614897255687 13.983812081334152 1 1 1
1770 1 9.540845484026185 9.508058967138338 11.981210738091326 1 0 0
1802 1 10.91607491576117 11.789113044805777 11.463625908899358 0 1 0
890 1 11.80045008281341 7.982574169055768 12.288139064421665 -1 0 1
2627 1 14.050857457184524 10.26728998983373 11.160614046659694 0 0 1
660 1 0.1989461952281782 17.802549974802393 11.710296620501941 1 1 0
2187 1 2.993760014719117 13.463695056930773 9.049317779804333 0 0 0
2645 1 4.7057496216156345 15.37574756444707 10.624120698197292 0 0 2
4358 1 8.829171119653253 13.317460973834525 10.914212723987985 1 0 1
1496 1 -0.014950730098326759 38.4307363973871 17.762340718605756 2 -1 1
3425 1 4.166117783567091 17.52061933818405 8.913564176368864 0 0 0
2255 1 3.856557598739215 19.05812129842674 11.472802692221007 1 0 -1
2629 1 6.319929151121184 14.76884875946231 14.060139681293064 1 0 0
425 1 14.98952623754541 14.986217783547643 12.366975848350927 -1 0 0
3453 1 17.665977658898857 15.520146545633468 11.416972745443717 -1 1 0
866 1 16.62382965645137 5.88983655106444 18.112770802279922 0 1 1
772 1 8.715696836253397 19.84709390215051 11.08601321941155 0 -1 0
4294 1 11.384422985432591 18.075914106100353 8.933512911474791 0 0 0
2763 1 14.216292333888237 16.411806293489754 7.779519446974145 0 0 0
3739 1 14.354963887827726 11.22816838934407 3.8933106548486567 1 1 -1
4223 1 3.2528677223586135 22.221314421802536 24.840546483198988 1 0 -1
1785 1 1.1073625674840162 25.92756284171025 8.585779205864094 0 0 0
3102 1 9.614112928343047 22.63357330210532 5.767127841914552 0 1 0
1208 1 10.80713534316293 24.149983404524217 10.115444808058893 -1 1 -1
4557 1 13.048016143406178 20.75643288257631 10.62362348494997 1 0 1
916 1 17.163746568839194 48.842443292602226 17.199744328425545 0 0 -1
1643 1 0.8396837303168501 29.116439877791827 11.46447234120876 0 -1 1
2334 1 5.945892882448969 25.411299576843746 13.47906225737875 0 1 -1
935 1 10.77877709358132 24.436217213784996 13.930028658738543 0 0 1
921 1 6.415966670608647 22.88962128812973 9.585630077508196 -1 0 1
3816 1 9.5811628001424 26.613132143941336 11.208923411204085 1 -1 0
4360 1 15.80836635444436 22.661674995060725 7.937561826223462 1 -1 1
1649 1 15.058315511263634 24.305515598587213 10.23771427523595 2 0 1
1849 1 1.646762991170705 26.423368582790445 11.522802023347513 -1 0 1
1721 1 4.596273744346349 29.009253479124624 8.521698384752769 0 0 -1
2123 1 9.55608289082055 30.41574670455233 8.042354076626703 0 -1 0
4581 1 14.589478003634728 8.714674758685284 2.0412509103177703 0 0 0
3722 1 1.6919643457447466 21.854208345419266 22.299560029720443 1 -1 0
3563 1 4.1664059822906765 33.71082213687658 10.118887101192424 1 0 1
1046 1 8.93940015494295 34.49412778309007 10.984718131359113 0 0 1
1719 1 12.656515438480362 31.838623971020844 11.009207909097237 0 0 0
4265 1 4.345836738487769 34.003436528849136 13.718687718426665 1 0 0
629 1 1.9140115568158067 36.45150079482213 8.147319761780139 1 -2 -1
3554 1 7.109743099093881 34.75133225850073 8.76380492372642 0 0 -1
665 1 9.915688585132548 36.871566504773455 12.462653508274018 -1 0 0
3159 1 13.335124817349739 26.88082120606801 24.302992205367474 0 -1 0
4012 1 7.006701477488454 48.32050953689487 24.621827294072848 0 1 0
3788 1 7.253317191537487 41.217009199927126 8.932980954330231 0 0 -1
1227 1 3.025713522126902 39.22985018472322 14.783362960160554 2 1 0
1312 1 16.458122380535002 38.65179401814175 12.93486290416598 0 0 0
1792 1 14.163568118462264 40.156067801059116 10.76672211356902 0 0 1
4363 1 17.111079347248538 41.3916052316333 11.873866713431843 1 1 0
769 1 16.16385969287177 9.904677845704226 23.971416787221006 0 0 1
1818 1 2.1285919525985877 42.33014694489503 11.11018419846048 -2 -1 0
1176 1 8.233648998546602 41.119426714842426 12.032157119879352 1 0 1
4230 1 6.247526014425601 46.00854148282397 12.25721503561703 2 0 0
3218 1 13.787441841416431 42.82686274382024 9.861154275371913 1 -1 0
587 1 3.675728325580884 47.64991884372371 10.277256053435922 0 -1 0
1307 1 3.5402802383566994 44.731835773175845 7.101528370890678 1 -2 0
4269 1 6.121894444426124 42.868657821385014 7.449846096576049 2 -1 1
3547 1 7.561893264841891 48.6619029610953 13.579798249647254 0 -1 0
2288 1 11.375542652656389 43.05448581012392 12.702147638788023 1 0 0
1716 1 13.744277896777339 49.96044077263367 16.497102106099394 1 -1 0
2923 1 14.405145598065584 45.23536132467761 8.275153460557076 0 -1 0
1580 1 15.77891228511654 47.65570995890127 7.494299375243306 0 0 0
621 1 17.409921945889057 44.06030980132035 7.4738140036352725 0 -1 1
4592 1 2.891129884371274 49.84266602932584 15.377292776905037 1 -1 1
2269 1 3.7269723290036527 47.82354820600347 13.152667168563728 1 -1 0
1594 1 6.284366188255706 48.080312558205954 10.0675110721267 0 0 0
1645 1 13.17059139957031 45.13755406692159 11.656215140490122 0 -1 0
3326 1 11.210989873583037 15.072019481251512 25.004784488917018 0 1 0
784 1 16.259896343317656 5.5608549569877255 3.6035370385354613 0 0 1
2879 1 2.906395619043019 50.16439422996404 10.208587720664527 0 0 1
3049 1 3.8695291679549753 -0.17240897391282317 12.89784700792787 0 1 -1
711 1 9.883862224512251 49.77654546734359 8.784664502749703 0 -1 1
760 1 11.430724372735803 47.04011705178826 11.24216005745239 0 -1 0
1772 1 13.71531952467073 50.773809803543024 11.498582055622723 0 0 -1
1151 1 15.559398155887775 49.1239903092193 12.771970515682606 0 0 0
1402 1 1.538961959467703 1.2000907068605862 12.197256246052971 1 0 1
3613 1 3.6569363708025904 4.206930772321313 14.34387383607589 2 0 0
2779 1 5.3362556685486195 2.062753087622243 13.536277766121291 0 1 0
712 1 7.629651534626959 20.542066102369986 23.66433587196887 0 0 0
2271 1 1.4626571802598616 9.424331515722278 14.048806969888993 1 1 0
3196 1 16.499571410614735 17.575043083689373 13.434276290189944 0 0 -1
1850 1 6.161410671976886 5.8381209943661245 17.03503747193197 2 0 0
4030 1 13.253461875348078 3.782265368003449 12.945248495484602 1 -1 0
2639 1 8.247312768270262 5.66668776540315 13.437338348525486 1 1 0
2067 1 16.45780342034 11.367952325535592 9.935612092259955 0 -1 -1
4357 1 2.808767531828987 5.48698662688582 11.915929496510767 1 0 1
1360 1 6.456242446636794 7.662590081907276 19.338697889575315 1 0 0
4521 1 6.661910243805184 7.949091421262647 12.753469519339035 1 0 0
340 1 10.877529695199762 5.186569478986034 12.162629398196065 0 0 -1
2792 1 14.86917417692382 8.80892318435746 13.727589308417516 0 2 0
3514 1 -0.03781755982466073 23.963220809344293 21.8865554602375 1 -1 0
68 1 2.379061432451196 29.309962274676323 0.600555256846478 0 -1 1
105 1 0.21130768516436105 50.25488573412947 11.41438974099523 0 0 1
3758 1 3.3128018780576127 8.361666867682729 16.254187059708677 1 -1 0
1062 1 10.45350908882044 13.041476406632608 14.036165596430743 0 0 1
779 1 9.311607470856721 10.421460607267521 14.905605485553387 0 0 0
2647 1 0.955677304117208 29.40529330647348 14.331187228818816 1 0 1
667 1 16.320325604790913 10.41430110353151 16.094102927541016 0 0 0
1079 1 1.8052692236516266 13.51807519165958 11.602834810324222 0 0 0
923 1 5.949322247167741 13.750984290652092 16.77278368154159 0 0 1
4256 1 4.700058182627477 15.373281301223471 19.419454933441585 0 0 1
3006 1 9.143981684053598 15.466311863366146 16.5593409559466 0 1 0
1400 1 16.77799665409502 6.269038057517266 7.813162172433643 0 0 2
2953 1 1.4608237416942096 16.042795733682627 13.340213069242628 0 0 1
3223 1 9.022157692256947 15.493105863999915 14.091515402268096 1 -2 0
3849 1 13.764866800051932 16.958307589065708 14.044224272551169 0 0 1
2821 1 13.38958190780644 15.039178940606241 16.450810128583267 1 0 1
963 1 16.63793270603219 38.922039592477724 15.589326261956915 0 0 1
1769 1 15.912499280577283 17.98865964584007 9.951255957104058 1 -1 0
3305 1 4.4821838920463986 23.462284700551837 11.480335853282044 0 0 0
46 1 3.8418040322684854 19.165912268780968 15.455611046563005 1 -2 1
2833 1 4.125695120344413 16.768837544175508 13.272922852439132 1 1 0