LAMMPS data file via write_data, version 29 Oct 2020, timestep = 200000

4608 atoms
1 atom types

-0.11353925883369342 57.38404925883542 xlo xhi
-0.1009237856303109 51.008043785631784 ylo yhi
-0.1009237856303109 51.008043785631784 zlo zhi

Masses

1 18.015

Atoms # atomic

5 1 1.8022625795385174 1.3381127993314275 1.8055658970036588 0 0 0
13 1 7.861505163535871 1.6292236874909711 1.4062943605151277 0 0 0
21 1 13.771525726015383 1.4803215270216077 1.2987364057717312 0 0 0
19 1 16.05368843129076 0.43317673980080706 2.7934373831447457 0 0 0
884 1 15.536531974367687 28.805626874750075 25.07277260419567 0 0 0
8 1 4.451015324077825 4.667606405351408 1.9444428404236591 0 0 0
116 1 15.965625685844046 29.06969612712664 0.2109481657310227 0 0 0
16 1 10.876562014578866 4.681606977377833 2.1201506938093604 0 0 0
18 1 12.581870288987357 3.0175879745767356 3.408798526006156 0 0 0
697 1 0.08682841691899881 31.82041835653235 19.410073264297218 0 0 0
24 1 17.60235100309302 4.441844174756572 1.3825597930479026 0 0 0
29 1 1.1587616735283135 7.9746859761010676 1.7047437689868092 0 0 0
156 1 9.496164140704316 41.285475237011894 -0.005009391630526813 0 0 0
37 1 7.338208926844502 7.755981762115913 1.920464391778677 0 0 0
35 1 9.164317313916483 6.276104797747048 3.2666937354429515 0 0 0
45 1 14.421036868889507 8.041780985358407 1.9636945793123628 0 0 0
289 1 0.19303490874647322 25.488525327793468 6.191517225696746 0 0 0
32 1 4.485397040457318 10.542152457821336 1.854284522398246 0 0 0
34 1 6.241444382440282 9.56333492462689 3.758813191025136 0 0 0
40 1 11.019076845698162 11.598321606227616 1.5724631309595958 0 0 0
42 1 12.27379273321482 9.602747607018854 3.060737571768383 0 0 0
48 1 17.43986854721783 11.315217468109841 1.547567046069012 0 0 0
53 1 1.2319065096493866 14.095082258715964 1.7536809486972698 0 0 0
61 1 7.519008180923147 14.338234051087857 1.314586090004299 0 0 0
69 1 14.291785272237165 14.516955096401514 1.485930864880657 0 0 0
67 1 15.745396739024752 12.630833380667895 3.301110524800608 0 0 0
766 1 14.085341048749555 49.35062771683904 23.753004376171102 0 0 0
56 1 4.596175691062565 17.34508962627508 1.5696519461800331 0 0 0
64 1 11.219051718662975 17.261524018817276 1.4455082425992536 0 0 0
66 1 12.706347029123819 15.981858062427495 3.1000002676699663 0 0 0
72 1 17.280758715785765 17.382735357487856 1.668429876438703 0 0 0
77 1 1.5756500575022871 20.5126065757719 1.2758293350653438 0 0 0
75 1 2.9846228456051476 18.989565541619754 2.982995634758718 0 0 0
177 1 6.441555779361365 44.53723244229313 -0.008475912426224502 0 0 0
85 1 7.825633901193091 20.713114094220447 1.7062564613246272 0 0 0
83 1 9.415000990130917 19.058345064292258 3.3384636418104345 0 0 0
93 1 14.01180209226454 21.066203383728062 1.3489242609435566 0 0 0
91 1 15.631634961536149 19.12716912323351 2.961131108953455 0 0 0
65 1 12.48555201833366 13.102184506104372 0.133102099499952 0 0 0
88 1 10.887367425349142 24.16557029863106 1.4855019679459123 0 0 0
100 1 3.139122105292362 28.362197911183877 0.2181608869329026 0 0 0
90 1 12.18170899877651 22.317524996059884 3.3320836091982615 0 0 0
96 1 17.20991166156766 24.189662657186087 1.3657467007238033 0 0 0
758 1 7.921850235888391 49.26676457606406 23.396771959576522 0 0 0
80 1 4.532751864261899 23.673516590599927 1.620660177083827 0 0 0
99 1 3.117889793334368 25.3491330515634 3.403641328606041 0 0 0
107 1 9.519801281391784 25.467885562799967 3.529563311342079 0 0 0
41 1 12.852573634474103 5.977410584163408 0.5278233322076882 0 0 0
117 1 14.335140430405032 27.414788745792926 1.3185220909666757 0 0 0
115 1 15.48228854670926 25.626497908460788 2.7965096838692283 0 0 0
101 1 1.7845912423720987 26.72123057156907 1.5329440559421295 0 0 0
106 1 6.25157877476287 28.55381594145536 2.8994683130130885 0 0 0
109 1 8.255852046886158 26.845338041978124 1.8157127668221076 0 0 0
673 1 0.09847387830214699 25.43029624064108 18.909703475562328 0 0 0
266 1 0.09370129888226209 22.06406799468264 9.297593873940205 0 0 0
104 1 4.573037877993539 30.28023309514565 1.8837089216516627 0 0 0
123 1 3.072793575947185 31.943822280767545 3.220166916733931 0 0 0
112 1 11.011466049206344 30.12124781281589 1.441051682114564 0 0 0
131 1 9.472446144449538 31.741527608321068 3.0520786116063485 0 0 0
481 1 0.21550101533531224 25.140787842984565 12.751974135436106 0 0 0
120 1 17.289511588090534 30.766484972375906 1.9781074172263553 0 0 0
125 1 1.3802462631146406 33.42406688901913 2.132859721967395 0 0 0
161 1 12.379927314768658 38.11355698528334 -0.07209555036965407 0 0 0
130 1 6.4504422064489075 34.918356759808674 3.1051374663343174 0 0 0
133 1 7.7305464470964935 33.20790564183062 1.5650232448554406 0 0 0
141 1 14.23642626037315 33.78525250366616 1.597775197902786 0 0 0
138 1 12.523213905629166 35.27266188804168 3.1103970747574685 0 0 0
750 1 1.6491017577296383 49.13449058880322 23.876786549142196 0 0 0
780 1 9.42234053675502 3.0319936201535787 25.16276074874441 0 0 0
128 1 4.941349262799286 36.22567434177189 1.4531608585578082 0 0 0
505 1 0.14157887001687208 31.86195573667788 12.634493495126268 0 0 0
155 1 9.316090808611976 38.3282076501783 3.6014709074095816 0 0 0
136 1 10.828567134940954 36.7757650686745 1.5605934890759383 0 0 0
828 1 9.366223039578665 16.006513286137167 25.098993327434577 0 0 0
144 1 17.455534422863145 36.53321901140471 1.6255436748740202 0 0 0
163 1 15.387931748617374 37.83930286780465 3.346334526610433 0 0 0
149 1 1.1749527917177633 39.941309874445096 1.8015720892790599 0 0 0
154 1 6.369069162348724 41.61644673376598 3.149830579398163 0 0 0
157 1 7.8678502823104335 39.58829385519218 1.5254669112891437 0 0 0
165 1 14.21763318287484 39.552766971475734 1.6870356941633482 0 0 0
162 1 12.494624756415158 41.113295578960006 3.2868980735532873 0 0 0
152 1 4.764220590736043 42.7022728098342 1.4767738975850575 0 0 0
57 1 6.080396330092488 12.561718730412247 0.08956184101091155 0 0 0
160 1 11.275467361856615 42.57254498905995 1.612251875442209 0 0 0
81 1 5.985006145918202 19.30252479451917 0.24506960302221537 0 0 0
168 1 17.683224369401998 42.889224628593865 1.539677301583755 0 0 0
173 1 1.4241212177892653 45.768255550521815 1.42233782410678 0 0 0
181 1 8.54026976679944 45.91313729804317 1.1104906945435433 0 0 0
178 1 6.963707686727704 47.43020609559912 2.9719339265979414 0 0 0
189 1 14.161087522927225 46.039361033439434 1.540687065907862 0 0 0
409 1 -0.06961813926143748 5.921765825316528 12.828622348745565 0 0 0
176 1 5.431237171484628 49.42991455582373 1.3483338121780633 0 0 0
11 1 9.609979973605553 0.05981811210116331 2.7826149607225026 0 0 0
184 1 11.359103833117715 49.540582539442156 1.5890536344178066 0 0 0
108 1 9.395034253165447 28.645954750263584 0.010440186462815804 0 0 0
192 1 17.11929666228054 49.14454864025902 1.185299367607087 0 0 0
457 1 0.1884446481038432 19.200507339506622 13.001122683055547 0 0 0
10 1 6.144954013968276 3.0423638805252167 3.3337533079283244 0 0 0
7 1 4.788065824655797 1.3764103304380975 5.130394212404402 0 0 0
15 1 11.272259060832207 1.2920348814728873 4.879484010469634 0 0 0
209 1 13.132018740640024 50.62131338332556 6.357326232021761 0 -1 0
23 1 17.18816789270228 1.4448314937524214 5.0155308945933355 0 0 0
6 1 1.3203288140334715 4.287046827294643 5.012268327612866 0 0 0
14 1 7.721116007798185 4.551791139780895 5.130186170349072 0 0 0
22 1 14.02909291597435 4.810866006305386 4.950988225010947 0 0 0
218 1 0.09703457704655208 9.433728758185465 9.978525314115897 0 0 0
849 1 6.170338976112442 18.905186883071725 25.321430511763072 0 0 0
27 1 2.58837107276046 6.13686012899145 3.3494774758906702 0 0 0
31 1 4.41534063461965 7.469571394808999 5.10470134785739 0 0 0
225 1 6.12883385490048 6.086372315087467 6.706551436462629 0 0 0
39 1 10.849654932885132 8.166036818578963 4.853946376631846 0 0 0
43 1 15.885085464018207 5.923421961490416 2.919003292494447 0 0 0
47 1 17.220762522272388 7.6774119760586865 4.565747445483733 0 0 0
626 1 0.08529020434328263 16.14292347032423 22.350931715778763 0 0 0
338 1 -0.10728391316895625 40.95625936072328 9.291528738801036 0 0 0
30 1 1.4381539596435913 10.714703049411533 4.883122599512974 0 0 0
38 1 7.968753665732304 11.370205872941892 4.904600866304606 0 0 0
228 1 9.209572692269763 9.516293985409138 6.674546664094216 0 0 0
46 1 13.916764576445328 10.902981709077746 4.429366076527344 0 0 0
236 1 15.741273971327168 9.51860680519057 6.036025540523388 0 0 0
51 1 3.042200119718805 12.391482660128387 3.030973874952265 0 0 0
55 1 4.5508837170413745 13.884753063701032 4.704797781461898 0 0 0
59 1 9.318054899761798 12.989855487190093 3.0542027061953307 0 0 0
63 1 11.051784717428099 14.444859044116926 4.669770024636641 0 0 0
257 1 12.808579297681723 12.622897462991455 6.281347366493706 0 0 0
71 1 17.337658254626497 14.617324539885471 5.0349145153534725 0 0 0
193 1 0.13787892233544446 50.73817340633504 6.110309264516976 0 -1 0
54 1 1.3753594864482892 17.311279815976707 4.432171374733285 0 0 0
58 1 6.054433544686567 15.912539361976652 3.3669692026626885 0 0 0
62 1 7.9175161603068585 17.385314999573158 4.835787664281367 0 0 0
252 1 9.8303654162585 15.736139985164225 6.528407172908311 0 0 0
70 1 14.321973774366194 17.63799702442925 4.759868729468683 0 0 0
79 1 4.846758185806318 20.430678756917924 4.678080838091056 0 0 0
273 1 6.388849380627998 18.999161300219924 6.470361708805532 0 0 0
87 1 10.986474431520241 20.535615059065154 5.111494009507223 0 0 0
281 1 12.74467054353929 19.003590148775707 6.6071628329729695 0 0 0
95 1 17.156351418326455 20.512824728437923 4.492582034445368 0 0 0
82 1 6.372221699164176 22.441514452335355 3.505708970916193 0 0 0
268 1 3.4872179736545323 22.025746981434043 6.3774727339043205 0 0 0
276 1 9.415095883326352 22.288425557862492 6.764976292911329 0 0 0
284 1 15.797388253364975 22.38454008286738 6.449744914218978 0 0 0
78 1 1.6758110380915312 23.645250636642636 4.766424997180621 0 0 0
103 1 4.917415611314039 27.120897942579056 4.6858184908119105 0 0 0
86 1 8.033520926590702 24.09345433549877 5.1825676715235485 0 0 0
94 1 14.153473803389995 23.71525108574087 4.661092607336287 0 0 0
305 1 12.711311482328492 25.41339116014118 6.419526310210649 0 0 0
292 1 3.2076422486684133 28.500614770516357 6.2454140032149335 0 0 0
300 1 9.821886451617393 28.55893293322788 6.030185416792398 0 0 0
111 1 11.365925882039404 26.75638016314452 4.722804387674138 0 0 0
114 1 12.847773565349996 28.672205494775294 3.2503842196464077 0 0 0
119 1 17.472871091407004 27.113097219826603 4.472924308875402 0 0 0
102 1 1.5697505229224433 30.345607996551585 4.824038563382649 0 0 0
110 1 7.879732204023741 30.24404558297997 4.51992584724312 0 0 0
118 1 14.564120692876346 30.46942581409838 4.864590638054548 0 0 0
139 1 15.831932629192169 32.43486352649346 3.3828700880908933 0 0 0
127 1 4.84340454318029 33.754826792988894 4.715301238732784 0 0 0
324 1 9.193688711781952 34.74963088716997 6.2834261655221795 0 0 0
135 1 11.113191120288839 33.55246566413987 4.6185095248473935 0 0 0
143 1 17.555847237556666 33.84420247659537 4.883090758054329 0 0 0
332 1 15.731489398276869 35.130627447691296 6.713674141025619 0 0 0
126 1 1.4306501059679857 36.82576694148365 4.672263734437136 0 0 0
147 1 3.2047612654369817 38.14026442914755 2.964650409035917 0 0 0
134 1 7.896733122072533 36.42905640030406 4.972490158596845 0 0 0
345 1 6.2320309558673515 38.08375596144903 6.179433813044602 0 0 0
353 1 12.056271031555312 38.27578842795627 6.610286974792522 0 0 0
142 1 13.83811200264681 36.53959711529019 5.55025942888094 0 0 0
340 1 3.072170932647074 41.216507544843196 6.381213091611184 0 0 0
151 1 4.9738440868012255 39.84876393148386 4.390135518747034 0 0 0
348 1 9.455632472370587 41.600771075181285 6.606278040884066 0 0 0
159 1 10.799172453648303 39.759075204994645 4.97292189666489 0 0 0
167 1 17.416504784981367 39.82856231273752 4.334797190921668 0 0 0
150 1 1.730683141497332 42.68169995926188 4.701959657778096 0 0 0
171 1 3.0390655182226984 44.30697996688575 3.0248249524273105 0 0 0
553 1 0.06438860821495496 44.63987377803156 12.60141888807347 0 0 0
158 1 7.822600018309805 43.037150314167164 4.831570803710201 0 0 0
369 1 6.359164124441411 44.65939837937549 6.143973168904328 0 0 0
179 1 9.766962433394397 44.27753033657645 3.0466403331050587 0 0 0
166 1 13.924522065734527 42.99476735393483 4.499033533029961 0 0 0
377 1 12.73490045023387 44.581110335714214 6.157953310128507 0 0 0
187 1 15.743170845770273 44.352497012264024 3.048117889954065 0 0 0
364 1 3.3880383215153502 47.729150822514114 6.364255577194576 0 0 0
175 1 4.765366897956898 46.16867923877054 4.428024663919004 0 0 0
186 1 12.897536117823659 47.87115628220246 3.0148993454113864 0 0 0
183 1 11.009817214866464 46.27980705855485 4.6673476538645895 0 0 0
372 1 9.569681484567928 47.82626914842818 6.4414009296031685 0 0 0
380 1 15.902313483426965 47.592656493100975 6.112405034135478 0 0 0
191 1 17.450297272772126 45.932653496674575 4.64069821964907 0 0 0
174 1 1.6884606635827972 49.194077828074555 4.271530071233201 0 0 0
3 1 3.726592415136346 50.761786175652475 3.0958043219925884 0 -1 0
182 1 8.064427417351585 49.50812021633884 4.595651159624382 0 0 0
190 1 14.730065810395116 49.524958863216156 4.203395487193705 0 0 0
197 1 1.5503476868271966 1.002026587257343 8.082724152967016 0 0 0
196 1 2.9230673874993816 2.847757735108508 6.6757003627380325 0 0 0
205 1 7.837786407743457 1.2989578883173485 7.7986792668591125 0 0 0
213 1 14.341613630621602 1.137566551748549 8.135497937956 0 0 0
202 1 6.132570407083159 2.7683366599440893 9.442657608596207 0 0 0
200 1 4.25265816263517 4.373156606708343 8.293812530657428 0 0 0
204 1 9.693482656672293 3.1314733105874675 6.387342915532077 0 0 0
208 1 11.081690781699205 4.906321222481564 8.078407770297733 0 0 0
212 1 15.551910892349165 3.2398180553688247 6.585525247215832 0 0 0
216 1 17.38044457933567 4.920924097218198 8.236366668959809 0 0 0
221 1 1.4477998722575398 7.571671285130585 8.418420426578418 0 0 0
229 1 7.813508963586653 7.865273922859861 8.079938891123401 0 0 0
233 1 12.386348820481333 6.507945794245904 6.485682678312693 0 0 0
237 1 14.243897068999033 7.953149920085039 7.7685357331294895 0 0 0
1562 1 18.81068461444092 9.251763508704009 2.9034178529808803 0 0 0
220 1 2.9239106729956195 9.21515020093023 6.668296082600383 0 0 0
224 1 4.937075400713034 10.89653388112496 8.241114669930932 0 0 0
226 1 6.181834706641555 9.161931007382947 9.867705000574706 0 0 0
232 1 11.123450844080391 11.373456249581265 7.879888892862273 0 0 0
240 1 17.53465439477815 11.068053716746496 7.789175345675273 0 0 0
767 1 17.396114814692353 46.63434911764878 23.718180133978496 0 0 0
245 1 1.3287491339576898 14.048332572945492 8.004879611048228 0 0 0
249 1 6.1418260391076975 12.925559108833143 6.338282336274691 0 0 0
253 1 7.962723965051685 14.315785848939761 8.047160281877813 0 0 0
261 1 14.560824573610768 14.167023331846321 7.7031829403719785 0 0 0
244 1 3.0593878857730283 15.783007534343149 6.3425859166888525 0 0 0
248 1 4.9097433493949545 17.297791944289585 7.691602326894628 0 0 0
256 1 11.325206772656658 17.37561881107006 8.363230874856246 0 0 0
258 1 12.736852021668687 15.195726649436805 9.336638691643417 0 0 0
260 1 15.768170792459124 16.332193080406608 6.379436151294274 0 0 0
264 1 17.15975272615847 17.428406180783885 8.171692910775372 0 0 0
269 1 1.356116691673309 20.242165707311436 7.767756053805458 0 0 0
267 1 3.3266533868055888 18.9208455113354 9.170003683073823 0 0 0
277 1 7.962012320227892 20.44227300066613 8.107928255413636 0 0 0
275 1 9.718634719459176 19.05829744041219 9.890454473155105 0 0 0
285 1 14.309587886033679 20.68729890686272 8.111870414665193 0 0 0
283 1 15.716708680477396 18.962778904537682 9.77668186883339 0 0 0
2234 1 18.576763367688198 35.02655753376919 22.321395700782997 0 0 0
272 1 5.115219558496417 23.74143729789854 8.01044682752931 0 0 0
274 1 6.877404045276259 22.227188488829363 9.54241587733493 0 0 0
288 1 17.595542110582272 24.000242455261283 7.862862366094094 0 0 0
74 1 0.09521008255161689 21.858230871909043 2.950008433501651 0 0 0
297 1 6.512864037092486 25.470135953742613 6.555726584356766 0 0 0
280 1 11.206510265770284 23.720131785979255 8.173984265974939 0 0 0
299 1 9.818124626823218 25.526348611486284 9.545590124203677 0 0 0
307 1 15.854085192550382 25.395861867649966 9.397221026113378 0 0 0
293 1 1.4478618412976283 27.296983314485434 7.8605370274930495 0 0 0
296 1 4.6358383075950735 30.162766462447394 7.705166373089971 0 0 0
301 1 8.195649894864532 27.199087798571117 8.035984403942967 0 0 0
309 1 14.49895767360872 27.10192915240135 7.882593551585813 0 0 0
306 1 12.778504495989313 28.53650315500429 9.497694914428118 0 0 0
308 1 16.20529539792465 28.766690975371358 6.300701718760179 0 0 0
12 1 9.754745820598506 3.397035670076776 -0.038000211345289886 0 0 0
315 1 3.2056824891463074 32.00974491191201 9.239107457907888 0 0 0
321 1 6.153016517813934 31.599490107237326 6.172654908568753 0 0 0
329 1 12.882652867687758 32.01594839511252 6.292978538445182 0 0 0
304 1 11.471638430127781 30.08270095162523 7.600614341785604 0 0 0
312 1 17.97070845702528 29.739090514151872 8.119275835080433 0 0 0
331 1 16.171775116897585 31.297372590189173 9.343352801039373 0 0 0
317 1 1.4010440185159454 33.2906444359581 7.996050036638332 0 0 0
316 1 2.986302394349098 35.06625963919848 6.2581203805949865 0 0 0
325 1 8.003379704272014 33.07448814653219 7.909093161417442 0 0 0
322 1 6.45534061396038 34.70792443119835 9.452620950140862 0 0 0
333 1 14.663694276072135 33.13252278496148 8.135817837705595 0 0 0
330 1 12.706595066228111 34.745126323499065 9.656882972197977 0 0 0
320 1 4.664117421785931 36.45836689014605 7.784721433547782 0 0 0
328 1 10.855391511785504 35.95957442383883 8.070436611208018 0 0 0
336 1 17.41018446470283 37.01000642807979 8.150828242739394 0 0 0
341 1 1.4659280284262228 39.49610501557747 7.700443468784926 0 0 0
759 1 10.749719565638017 46.10856679904754 23.982302208732282 0 0 0
346 1 6.610397603383432 41.525711853917485 9.752061332711357 0 0 0
349 1 8.047424427046437 39.401094969480255 8.023824518073337 0 0 0
354 1 13.006257427396084 41.57898314207266 9.245030904129992 0 0 0
357 1 14.236109516191648 39.86570762001388 7.625922410002989 0 0 0
356 1 16.039039622335125 41.45620125816107 5.982669637327771 0 0 0
363 1 3.36053852408973 44.44808478268247 9.070837616079109 0 0 0
344 1 5.073244830707317 42.66994257175703 7.8990789624441256 0 0 0
352 1 11.32862819223473 43.07893981352386 7.783305448088094 0 0 0
360 1 17.371594589649526 43.24306447806815 7.327754430711542 0 0 0
379 1 16.017721365205563 44.62608246114317 9.239376060245192 0 0 0
361 1 0.0851060486166412 44.62906832963475 6.165756435695152 0 0 0
365 1 1.651454593133704 46.443621667110094 8.045017836055814 0 0 0
373 1 7.71864871508219 46.4697265892967 7.9689107720805445 0 0 0
378 1 12.729968559856921 47.92927180882363 9.60088988993409 0 0 0
381 1 14.459733403680604 46.117925768926455 7.97417337110886 0 0 0
754 1 6.021130107405811 47.86217962402981 22.21547600639928 0 0 0
370 1 5.885399542522469 47.85008395982243 9.67224484278432 0 0 0
368 1 4.831585088846569 49.48184066159905 7.864623198340655 0 0 0
201 1 6.367876686242501 50.861233272336364 6.201933133305967 0 -1 0
203 1 8.97781720034584 50.76117443881246 9.590640285712245 0 -1 0
376 1 11.155097312911538 49.52873664750118 8.161083533544712 0 0 0
384 1 17.451247289415633 49.160812255942844 7.802295596995319 0 0 0
137 1 12.580942861682283 31.974836985244455 0.08628617830336355 0 0 0
195 1 3.3008654703777918 50.70221885126723 9.654090876858456 0 -1 0
199 1 5.085676198094344 1.1623240868550788 11.226915679351231 0 0 0
393 1 6.203171817127934 50.5560176761838 13.021985481930637 0 -1 0
207 1 10.693544328586876 1.266375043107505 11.325357012406373 0 0 0
215 1 17.394230360860725 1.8310619071276526 11.048054244301929 0 0 0
1921 1 18.99099150398788 0.23034992567627327 12.590594843273784 0 0 0
198 1 1.6306953864501892 4.494890111188718 11.503955211505488 0 0 0
206 1 7.587693116446994 4.58455638122754 11.078082114398955 0 0 0
210 1 12.318188720033639 2.577461411938461 9.574389964022847 0 0 0
214 1 13.796909299669167 4.46904917586091 10.84099083015123 0 0 0
219 1 2.904834241527524 6.0153693558312264 9.8237899221114 0 0 0
223 1 4.412681789852892 7.91332415378864 11.053165232911343 0 0 0
227 1 9.243866754674759 6.350297668750837 9.803402745851358 0 0 0
231 1 11.176420905677569 7.766051277771329 11.133049364026544 0 0 0
235 1 15.699367545915791 6.437727650499758 9.562019823076982 0 0 0
239 1 17.335086609175935 8.041082168865659 10.813270325522305 0 0 0
222 1 1.7667826034419336 10.697068159889909 11.520054870824051 0 0 0
412 1 3.289758220432208 9.341570722292758 13.271516550454068 0 0 0
230 1 7.811955631825206 10.901189158081307 11.122198642062708 0 0 0
420 1 9.224901990053127 9.190803558352389 12.695095592558772 0 0 0
234 1 12.341734983827186 9.538088955490965 9.680875986051992 0 0 0
238 1 14.366083779263697 11.239103072261397 10.813572068576091 0 0 0
243 1 2.969180307332978 12.417013843749512 9.592207206224447 0 0 0
247 1 4.408334863552945 14.274747271647248 10.885158381768829 0 0 0
441 1 6.201770131821766 12.857965732709742 12.410133194276488 0 0 0
251 1 9.248058415645604 12.622269094886995 9.716686451190363 0 0 0
255 1 11.305781152604029 13.975447359062303 11.29096741443001 0 0 0
259 1 16.07225297174668 12.829944075122508 9.445635907054351 0 0 0
449 1 13.06787272525898 12.363685545924438 12.864387565933646 0 0 0
263 1 17.561899491818625 14.35155695071803 11.172827796118698 0 0 0
751 1 4.783142147679059 45.81084443625349 23.996644453989887 0 0 0
246 1 1.478408580417631 17.549638349292646 11.036316237845682 0 0 0
250 1 6.3387849767243996 15.74716808735988 9.7054235709345 0 0 0
254 1 8.037103855467752 17.320734306086234 11.059084309564875 0 0 0
444 1 9.570082539801485 15.603431415110135 12.725253772753755 0 0 0
262 1 14.125901531307306 17.146337356154365 10.892886487935215 0 0 0
452 1 15.842610150878413 15.885950882173592 12.517773272025943 0 0 0
271 1 4.967687415220624 20.51530657683463 10.896803426972479 0 0 0
279 1 11.280697793358186 20.470964226807926 11.45844595294618 0 0 0
473 1 12.967968230107024 18.87252165813665 12.944060750059453 0 0 0
287 1 17.58767988629395 20.65940312269324 10.821120250446814 0 0 0
270 1 1.7612376870868234 23.824153871884807 11.06954268123108 0 0 0
460 1 3.5113813421762834 22.450190566890484 12.379180453053465 0 0 0
278 1 8.19101421562763 24.02227085770748 11.138812306063143 0 0 0
282 1 12.777978297769355 22.0463228278202 9.727181110662066 0 0 0
468 1 9.455725508487873 22.214182727735913 12.798780107010485 0 0 0
286 1 14.370543934234258 23.74484041343838 11.373989809033821 0 0 0
476 1 16.354686415507917 22.17975376884226 12.852905147355349 0 0 0
833 1 12.801035274750157 12.833110197221938 25.396267099859795 0 0 0
291 1 3.2908755675804997 25.34081388259589 9.373261378064432 0 0 0
489 1 6.294715304655735 25.569681282011683 12.374931766273336 0 0 0
497 1 13.094672106090048 25.090697165794477 13.05913395566553 0 0 0
295 1 4.620578522293942 27.075822700559655 10.870374284116604 0 0 0
484 1 3.611333437484409 28.689480484255707 12.652834801892567 0 0 0
298 1 6.416990215525457 28.606912540479033 9.502286452430871 0 0 0
492 1 9.611840028282009 28.744108352693654 12.710661214917911 0 0 0
303 1 11.415936716684731 26.883260683137454 11.4225339126757 0 0 0
500 1 16.13963041569629 28.792720720623244 12.686465550008068 0 0 0
311 1 17.539988775770087 26.81468645186895 11.063020579438533 0 0 0
294 1 1.8241191704690043 30.350184381490557 11.026604851389761 0 0 0
302 1 8.043890707282747 30.19440769944951 11.06539577114802 0 0 0
323 1 9.752258794832121 31.57674743836334 9.489253106211 0 0 0
310 1 14.443147604448361 29.853759091271836 10.893158896777438 0 0 0
521 1 13.006025529732208 31.857287791289995 12.529523147906913 0 0 0
508 1 3.385295252785808 34.8879758188412 12.801325108882363 0 0 0
319 1 4.677233073518673 33.45625058947711 10.925288100058802 0 0 0
516 1 9.545695064563283 34.94820715441148 12.396470788785887 0 0 0
327 1 11.135721126934772 33.24411047125402 11.143838669422005 0 0 0
524 1 15.846014964635359 35.384851194292736 12.810705755995398 0 0 0
335 1 17.114190004675567 33.41640392784615 10.788115785802153 0 0 0
318 1 1.8598845668412962 36.573677693205866 10.978424306814217 0 0 0
339 1 3.1723280538748497 38.2800653441917 9.491540561982221 0 0 0
537 1 6.2999763854970565 38.283791695285615 12.942546449970745 0 0 0
326 1 7.7348671014737835 36.50077529715843 11.11677385927976 0 0 0
347 1 9.650322982583766 37.92310930161342 9.505637533382513 0 0 0
334 1 14.322626201659439 36.68166493790319 11.075686583599532 0 0 0
355 1 15.596223780329474 38.47390346605921 9.530925702111555 0 0 0
532 1 3.2387057476209122 41.428516600984054 12.360756832115749 0 0 0
343 1 4.90441659453451 39.858568602767235 11.137906078101008 0 0 0
540 1 9.727794444719674 41.06976481147082 12.492116913817632 0 0 0
351 1 11.500567748723842 39.9245895759891 10.681023780091259 0 0 0
359 1 17.49016543037094 39.891967101857105 11.195770706793283 0 0 0
342 1 1.7129742069198475 42.90941166227185 10.759604616776302 0 0 0
561 1 6.651555278257964 44.6980101784205 12.639093654792443 0 0 0
350 1 8.124709558412972 42.85469756235683 11.185457096535856 0 0 0
371 1 9.486935695221762 44.722940941594615 9.475884959035362 0 0 0
358 1 14.546509570562618 42.886849073615025 10.927101689856626 0 0 0
1874 1 18.710358179898403 41.67557070507864 9.353338123904466 0 0 0
367 1 4.564167186911542 46.01944326118419 11.305845345887343 0 0 0
564 1 9.414439101220747 47.38100274412854 12.62091840930927 0 0 0
375 1 11.41158704300551 46.092488354121244 11.218952274400397 0 0 0
383 1 17.339992454534173 46.415434797953296 11.113385988192334 0 0 0
578 1 0.20871992383626398 2.844611091628729 22.69624205598224 0 0 0
366 1 1.5906770499379073 49.417786782379395 11.392475196803971 0 0 0
374 1 7.554809427344585 49.0140339922623 11.223818471940977 0 0 0
401 1 12.587940643583414 50.82196665145361 13.078618229569189 0 -1 0
211 1 16.329388064188034 50.89866957566575 9.627418650814509 0 -1 0
382 1 14.281115005776337 49.77091211922004 11.17111372098075 0 0 0
389 1 1.3088351399008291 1.3033295416002038 14.093083892752471 0 0 0
387 1 2.7578013031911213 50.7723183172307 15.890674371712102 0 -1 0
397 1 7.82924115974821 1.1876509523395193 14.485104930873863 0 0 0
395 1 9.568275314067735 -0.023449298947396252 16.13970127616842 0 0 0
405 1 14.259630598194676 1.3458541408110338 14.421046176261049 0 0 0
388 1 3.2498406468205485 3.0278076207103073 12.768151096737455 0 0 0
392 1 4.605824540365324 4.728992205445547 14.279256033933379 0 0 0
394 1 6.386008368375242 2.8370689188299205 15.805471737727245 0 0 0
396 1 9.4195038584587 3.041261654140755 12.886917967078453 0 0 0
400 1 10.572218758128706 5.006665488241822 14.408221868745159 0 0 0
402 1 12.498851956123751 3.6733299109765554 15.781275830076577 0 0 0
404 1 15.718907410552978 3.4014422950730783 12.67184599855664 0 0 0
408 1 17.58525670740717 5.047064370128369 14.09892638235636 0 0 0
290 1 0.03424057106700856 28.510839969977667 9.740054120995158 0 0 0
413 1 1.3087701714484374 7.997993374749278 14.361942866170375 0 0 0
529 1 0.2042968667404652 38.325085091093285 12.694113578313548 0 0 0
417 1 6.179116695629408 6.462765466042311 12.724109008680829 0 0 0
421 1 7.59063460184435 7.8832384247479546 14.471626254353927 0 0 0
425 1 12.550678408927704 6.199013982070435 12.815350056055944 0 0 0
429 1 14.194290883951323 7.950802888472461 13.952305881639415 0 0 0
416 1 4.717050583945645 11.208788218583178 14.171670227684412 0 0 0
424 1 11.058024676674606 11.04194601065835 14.247199704796527 0 0 0
426 1 12.707606718951377 9.410167278514999 15.608234805560654 0 0 0
428 1 15.82683816742797 9.744351421994683 12.283940433976712 0 0 0
432 1 17.943408233339085 10.743890739169593 14.158213996244259 0 0 0
437 1 1.2656803410522761 14.278850173185853 14.105280774552828 0 0 0
445 1 8.213554092448748 14.075247520299483 14.301314190048426 0 0 0
443 1 9.64210697607233 12.639044382472285 16.083231234557154 0 0 0
453 1 14.685589449500375 14.190693432864016 14.424007517452518 0 0 0
451 1 16.521164978029123 12.565574364321296 15.570678106074805 0 0 0
436 1 2.993859677006076 16.037403515229297 12.62576316836157 0 0 0
440 1 4.683825483112975 17.276174547825107 14.54473099839887 0 0 0
448 1 11.452580995865894 17.169822609337945 14.636891498253386 0 0 0
450 1 13.030275253122056 15.484267007268159 16.100751070468363 0 0 0
456 1 17.70936349801902 17.65244671829807 13.78639307408801 0 0 0
461 1 1.7797179777135574 20.76387963661775 14.249793338919718 0 0 0
465 1 6.440453029902265 18.83763479921666 12.689024561977746 0 0 0
469 1 7.676385114394561 20.633189267390886 14.179474427205312 0 0 0
467 1 9.172808757216615 18.99770079794968 15.687709936812276 0 0 0
477 1 14.708018002356843 20.345237024019664 14.369482743560392 0 0 0
475 1 16.282817835409496 18.901956150576083 15.770867142675094 0 0 0
121 1 0.1354923334290134 31.540034063548777 0.3924063355662643 0 0 0
464 1 5.0097233248941215 24.022884623950592 14.161361326284505 0 0 0
472 1 11.356873701600456 23.388236034230175 14.42507849814383 0 0 0
474 1 13.349163093973354 21.921670554551067 15.91401530172211 0 0 0
483 1 3.048932485956704 25.626308019299135 15.665423621974744 0 0 0
491 1 9.984152743290108 25.514772898298222 15.362029432167327 0 0 0
501 1 14.592285724454985 27.195012004789103 14.18806863795451 0 0 0
480 1 17.77743724929856 23.84714367914131 14.488557311815342 0 0 0
89 1 12.37081587611488 19.399974512443134 -0.01719942126459978 0 0 0
485 1 1.6163059672211884 27.174918425409174 13.833883080003103 0 0 0
493 1 8.184524441046399 27.153165821947415 14.132819067973058 0 0 0
498 1 12.89596202296375 28.687787823260262 15.820709087852379 0 0 0
506 1 -0.03793087430385211 34.84344404194596 15.9941150565007 0 0 0
513 1 6.4938711021206865 32.01517877351358 12.285823777979411 0 0 0
488 1 5.016379463090548 30.452345127782312 14.363442291281556 0 0 0
496 1 11.314387654487684 30.351868338785742 14.43121641257847 0 0 0
515 1 9.318882551248633 31.65652349202319 15.80154304817808 0 0 0
504 1 17.922163405140296 30.23516856204621 13.948576390336378 0 0 0