
# Import phase coexistance setup
#
read_data           data.coexist_${TEMP}K_${PRES}atm_ML
read_data           data.coexist_299K_${PRES}atm_ML
read_data           data.coexist_299K_-1000atm_ML
Reading data file ...
  orthogonal box = (-0.24691066 -0.25324775 -0.25324775) to (104.83866 51.362215 51.362215)
  3 by 1 by 2 MPI processor grid
  reading atoms ...
  8519 atoms
  reading velocities ...
  8519 velocities
  read_data CPU = 0.018 seconds

# Define potential
#
pair_style 	    sw
pair_coeff	    * * /data/emrosky-sim/Freezing_Simulations/Melting/MLmW_fancy/ML_mW.sw mW
Reading sw potential file /data/emrosky-sim/Freezing_Simulations/Melting/MLmW_fancy/ML_mW.sw with DATE: 2019-02-27

# Reset velocity/set timestep
#
velocity	    all create ${TEMP} 120598 rot yes dist gaussian
velocity	    all create 299 120598 rot yes dist gaussian
timestep	    10.0

# Define output
#
compute	            1 all msd
compute             2 all orientorder/atom nnn NULL degrees 2 4 12
thermo              1000
thermo_style        custom step temp press vol etotal ke pe c_1[4]

# Neighbor lists
#
neigh_modify        delay 0 every 1 check yes

# Set fixes
#
fix                 1 all momentum 10 linear 1 1 1 rescale
fix                 2 all nph iso ${PRES} ${PRES} ${PCOUPL}
fix                 2 all nph iso -1000 ${PRES} ${PCOUPL}
fix                 2 all nph iso -1000 -1000 ${PCOUPL}
fix                 2 all nph iso -1000 -1000 10000.0
fix                 3 all temp/csvr ${TEMP} ${TEMP} ${TCOUPL} 837492
fix                 3 all temp/csvr 299 ${TEMP} ${TCOUPL} 837492
fix                 3 all temp/csvr 299 299 ${TCOUPL} 837492
fix                 3 all temp/csvr 299 299 5000.0 837492

# Run very short equilibration
#
dump		    1 all atom 50 eq.${NAME}.dump
dump		    1 all atom 50 eq.melt_299K_-1000atm_ML.dump
run	            500
Neighbor list info ...
  update every 1 steps, delay 0 steps, check yes
  max neighbors/atom: 2000, page size: 100000
  master list distance cutoff = 6.0032907
  ghost atom cutoff = 6.0032907
  binsize = 3.0016454, bins = 36 18 18
  2 neighbor lists, perpetual/occasional/extra = 1 1 0
  (1) pair sw, perpetual
      attributes: full, newton on
      pair build: full/bin/atomonly
      stencil: full/bin/3d
      bin: standard
  (2) compute orientorder/atom, occasional, copy from (1)
      attributes: full, newton on
      pair build: copy
      stencil: none
      bin: none
Per MPI rank memory allocation (min/avg/max) = 4.597 | 4.598 | 4.599 Mbytes
Step Temp Press Volume TotEng KinEng PotEng c_1[4] 
       0          299   -799.34654    279964.37   -75283.645    7591.7715   -82875.417            0 
     500    345.92853   -601.05349    274829.26   -77080.009    8783.3123   -85863.321    16.210855 
Loop time of 1.27164 on 6 procs for 500 steps with 8519 atoms

Performance: 339.718 ns/day, 0.071 hours/ns, 393.192 timesteps/s
99.1% CPU use with 6 MPI tasks x no OpenMP threads

MPI task timing breakdown:
Section |  min time  |  avg time  |  max time  |%varavg| %total
---------------------------------------------------------------
Pair    | 0.39876    | 0.66222    | 1.0309     |  28.2 | 52.08
Neigh   | 0.12795    | 0.15001    | 0.1729     |   4.3 | 11.80
Comm    | 0.024634   | 0.41608    | 0.70141    |  37.9 | 32.72
Output  | 0.0099186  | 0.010459   | 0.010973   |   0.4 |  0.82
Modify  | 0.025063   | 0.026157   | 0.027924   |   0.7 |  2.06
Other   |            | 0.006722   |            |       |  0.53

Nlocal:        1419.83 ave        1429 max        1402 min
Histogram: 1 0 0 0 0 1 0 2 0 2
Nghost:        2007.83 ave        2021 max        1991 min
Histogram: 1 0 0 1 1 0 0 1 1 1
Neighs:        0.00000 ave           0 max           0 min
Histogram: 6 0 0 0 0 0 0 0 0 0
FullNghs:      39407.0 ave       40265 max       38207 min
Histogram: 1 0 0 1 0 0 1 2 0 1

Total # of neighbors = 236442
Ave neighs/atom = 27.754666
Neighbor list builds = 84
Dangerous builds = 0

reset_timestep      0
undump              1
unfix               2
unfix               3


################################################
#######         Run Simulation         #########
################################################

log                 log.run_${NAME}
log                 log.run_melt_299K_-1000atm_ML
