LAMMPS data file via write_data, version 29 Oct 2020, timestep = 200000

4608 atoms
1 atom types

-0.09146658463770052 57.36197658463765 xlo xhi
-0.08130363078943148 50.988423630785704 ylo yhi
-0.08130363078943148 50.988423630785704 zlo zhi

Masses

1 18.015

Atoms # atomic

5 1 1.2658666174475115 1.566448371381164 1.600020030957776 0 0 0
124 1 3.087176170285591 34.79086624941296 0.19238220098036102 0 0 0
122 1 -0.08211645958068498 35.22407519800201 2.9707582045471463 0 0 0
13 1 7.848509456362527 1.0676317539088465 1.8195176964624291 0 0 0
177 1 6.421484231308183 44.64775652481768 -0.0607894824440215 0 0 0
21 1 14.60324025823254 1.5754194586736698 1.677913033525007 0 0 0
19 1 16.15629834934086 -0.07173537689430987 3.1251681198640493 0 0 0
8 1 4.743548245059927 4.630244597066601 1.6698198567849323 0 0 0
578 1 -0.07293646226974636 3.1828040620945446 22.575850002592777 0 0 0
16 1 10.7405194195139 4.500153598854449 1.6161310942053508 0 0 0
24 1 17.50354770718781 4.6555454211947 1.5168551258095446 0 0 0
4 1 3.204953962936734 2.8845553468498926 0.415294891261012 0 0 0
29 1 1.5150379500814501 7.689308920681062 1.9735673329651955 0 0 0
37 1 8.022961961183617 7.566840133314649 1.0397212086577308 0 0 0
146 1 0.2520380717714795 41.0603143523923 2.560733601030985 0 0 0
45 1 14.281834762944134 7.95850037897406 1.6598174085144017 0 0 0
43 1 16.118579005601664 6.334780344936418 3.0874933249391723 0 0 0
32 1 4.957169548501318 10.71362076151777 1.2622944493461372 0 0 0
74 1 -0.04117520092623021 22.48610231124788 3.002475734736535 0 0 0
40 1 11.017007969625466 11.010066445251832 1.8390450764544464 0 0 0
42 1 12.452130508645867 9.5408866137763 3.3472836300235516 0 0 0
48 1 17.438507435615357 10.854695644859415 1.8806232274092358 0 0 0
410 1 0.1322194600004903 9.246222521682967 16.082250952679537 0 0 0
53 1 1.6850766684916416 14.275630881182025 1.5929836483810873 0 0 0
9 1 6.41507438352306 50.70655603868498 0.08600398842001258 0 -1 0
51 1 3.1518827488325627 12.49862533064122 3.117612045613984 0 0 0
554 1 0.26905019772780003 48.218697811689964 16.18687979575014 0 0 0
61 1 7.994967676157447 14.257717125671162 1.6029789318901058 0 0 0
69 1 14.378801790030584 14.21235939745985 1.494567321038306 0 0 0
241 1 -0.07277971340020423 12.441438987355014 6.203823531015235 0 0 0
56 1 5.012349951682789 17.388894562087124 1.7721501494412022 0 0 0
64 1 11.347253612929341 16.946666920580824 1.6681237922893024 0 0 0
836 1 15.936331841947975 16.16946286309259 25.1107048254146 0 0 0
72 1 17.28533227388125 17.542883949404818 1.5426465457917646 0 0 0
185 1 12.901440498070688 44.87005796998508 -0.0067379434600691596 0 0 0
77 1 1.5418520951486523 20.47342231673546 1.6667273334729196 0 0 0
85 1 8.182393814704344 20.60956553394697 1.7019787769722448 0 0 0
44 1 15.940212787140272 9.504457427255431 0.0937660151316406 0 0 0
93 1 14.197778949144645 20.516940771718833 1.3830722761912195 0 0 0
80 1 5.099944860057923 23.994093472951853 2.0580850479820376 0 0 0
601 1 0.27013335326025273 6.495045120787833 19.109450745113357 0 0 0
88 1 11.104002747987787 23.760685741725194 1.5223165775834193 0 0 0
17 1 12.855019754830812 0.30141918854700983 -0.0667927541503928 0 0 0
101 1 1.8246660003602613 27.02987221763542 1.3063773014661724 0 0 0
109 1 7.952036331375179 26.826527980712385 1.4914744313454216 0 0 0
107 1 9.798975896870338 25.342018208491314 3.2830222564295513 0 0 0
649 1 -0.0425398309667771 19.018755245848652 18.861335014336415 0 0 0
96 1 17.452922141366603 24.187672378762286 1.6282206745886545 0 0 0
745 1 0.2619261484110985 44.915062122323036 19.161219897612934 0 0 0
104 1 4.900424613634635 30.317833662109273 1.3434583362611734 0 0 0
114 1 12.957921857120036 28.718535507509532 3.036746642845638 0 0 0
117 1 14.257211355332776 26.959670846541623 1.6614906998934507 0 0 0
123 1 2.9137043673016825 32.05216417572923 3.188243698391346 0 0 0
193 1 0.10460515396237735 50.967830736762906 6.648039025656581 0 -1 0
112 1 11.16943107397984 30.115779021891363 1.348356267490004 0 0 0
131 1 9.697964738609937 32.00511873837887 3.049881433474781 0 0 0
50 1 0.24977711382021045 15.872567702425856 3.30464150235911 0 0 0
120 1 17.168409557160334 30.450217861072826 1.478129713823873 0 0 0
125 1 1.1258419816900864 33.26494456177683 1.4120653051758267 0 0 0
133 1 8.136613045904609 33.78591888002481 1.398547581353874 0 0 0
242 1 0.27170016552815146 16.11910267588934 9.364182838618548 0 0 0
138 1 12.512116246500067 35.25698204056269 2.58116513161432 0 0 0
141 1 14.254761657720406 33.48199652253162 1.2704155007276738 0 0 0
506 1 0.20064486639570683 34.907102182152144 15.927690829403389 0 0 0
766 1 13.91523849478932 49.30187574509641 23.88902370217841 0 0 0
128 1 4.950983317515483 36.64628060694848 1.7052494410760222 0 0 0
147 1 3.3949444560848474 37.895998453774354 3.1561151754168333 0 0 0
155 1 9.51115610211987 38.757157123367534 2.89014985711346 0 0 0
860 1 16.032853649171855 22.479781364478114 25.223859933141203 0 0 0
136 1 11.024658455224369 36.78597424142171 1.1333273241932058 0 0 0
163 1 15.910205076893345 38.772253974204816 2.9372555738788453 0 0 0
144 1 17.465914988655168 37.15837392974926 1.3835980340479432 0 0 0
149 1 1.784716247606444 39.14797714802867 1.3324700683681772 0 0 0
812 1 15.891715000374967 9.573531182899849 25.222584350902157 0 0 0
154 1 6.177685639613249 41.81696405458116 3.429682989917956 0 0 0
157 1 7.817541110089731 40.14064810092812 1.1557005853818438 0 0 0
162 1 12.820140956531443 41.71570622904653 2.858447107355241 0 0 0
165 1 14.205875186999213 39.798702076366226 1.2170059057163025 0 0 0
458 1 0.31075986015945856 22.179908731205266 15.86990618425467 0 0 0
602 1 0.028734154951857938 9.390318257027136 22.705593028254967 0 0 0
152 1 4.6035744093799025 43.034286103657706 1.3244421659571601 0 0 0
160 1 10.957536861927705 43.506664477615175 1.641686646031047 0 0 0
179 1 9.419062127548994 44.72137143804551 3.112673228879536 0 0 0
187 1 16.06676073725251 44.803844365237666 3.215330994163161 0 0 0
168 1 17.356779673019847 43.248534296189305 1.5846560617918486 0 0 0
173 1 0.979837232727687 46.125191228310754 1.64717108485774 0 0 0
289 1 0.2414963804622397 25.66109479567285 6.562296059113391 0 0 0
181 1 8.051033024846113 46.5057516602307 1.5906575076784903 0 0 0
1729 1 18.83659703434585 50.932905715854375 6.475158363172987 0 -1 0
189 1 14.715243980250435 46.6451310681707 1.7615881378039902 0 0 0
186 1 12.936996203233424 47.92402768721253 3.1269516697761452 0 0 0
553 1 0.1462296600069708 44.63288994100111 12.947475983565845 0 0 0
176 1 4.531238045002977 49.301275899885226 1.840950180568997 0 0 0
184 1 11.211070547844603 49.635546078651174 1.5594190556264893 0 0 0
192 1 17.90181432475295 49.831803838130654 1.4597584807757202 0 0 0
7 1 4.488201163232923 1.2403621722214246 4.846766204210442 0 0 0
11 1 9.478319246787379 50.904094051470096 3.690415222102448 0 -1 0
15 1 11.097029999338256 1.806846189790746 4.618405094638765 0 0 0
209 1 12.620705145141478 0.12027391980805388 6.398118839056654 0 0 0
23 1 17.39575123035624 1.4187474317021378 4.842283466724826 0 0 0
6 1 1.2417301091318536 4.294911941349466 5.15114336256019 0 0 0
10 1 6.41462353201913 2.5753349277142212 3.272588203388962 0 0 0
14 1 7.475234164395529 4.536012388886515 4.781363454921951 0 0 0
18 1 12.817441122517945 2.91502874451314 3.061417838733847 0 0 0
22 1 14.356126858909656 4.739834865948424 4.827476721319376 0 0 0
27 1 3.1873835133813815 5.738584930290806 3.5515909944241004 0 0 0
76 1 3.4242035210654116 22.24049301024495 0.05308627895215984 0 0 0
31 1 4.59349262568793 7.774811478434166 4.741075034614674 0 0 0
225 1 5.971711148396961 6.520684395658884 6.434282593269266 0 0 0
35 1 9.102947485836165 5.972620893812975 3.148675567581705 0 0 0
39 1 11.114308230939411 7.643033276378008 4.872568076104755 0 0 0
233 1 12.85574974137062 6.28954475989361 6.451460249658234 0 0 0
47 1 17.693227578200457 7.990029675892242 4.853097912976087 0 0 0
220 1 2.919303373240798 9.554575270009243 6.349298563251399 0 0 0
30 1 1.5119209604991402 10.98539823948814 4.601852006843663 0 0 0
34 1 6.386188900187032 9.07635364777682 2.9816796950453766 0 0 0
38 1 7.922869111298221 10.624949053293284 4.777472478975884 0 0 0
46 1 14.057764433318217 11.146327250983502 5.033454250159354 0 0 0
55 1 4.7650798452188505 14.286371392270402 4.489202939209213 0 0 0
59 1 9.509606805715622 12.55126757023722 3.424068576116951 0 0 0
63 1 11.082984443554556 14.583293365462673 4.975914995173817 0 0 0
67 1 15.688257545892247 12.498800607566908 3.2680746243325562 0 0 0
71 1 17.598870310532572 13.998742707752866 4.674919676836363 0 0 0
54 1 2.1785898665330596 17.439879296624422 4.702482033894725 0 0 0
58 1 6.5563543424383015 15.909648725533652 3.207139917288365 0 0 0
62 1 8.227312132867631 17.61839086627372 4.733166073141704 0 0 0
66 1 13.0198791093518 15.811656366116818 3.5293240303319053 0 0 0
70 1 14.487626711849884 17.512094672081307 4.999296021173544 0 0 0
75 1 3.4531337286324475 19.152698449307824 3.3375075594574657 0 0 0
79 1 4.970144255457229 20.98492360915772 5.104498833139524 0 0 0
83 1 9.959565097354078 18.556850779443383 3.1314081620618257 0 0 0
87 1 11.001092948642556 20.68141107522367 5.138738983635614 0 0 0
281 1 12.973268745399873 19.429629661807926 6.465192508198297 0 0 0
91 1 15.781576018791638 19.075949605753884 3.164732715192091 0 0 0
95 1 17.588156462105733 20.694632561060008 4.911744074782253 0 0 0
78 1 1.5439225239977696 24.283843117913058 4.459152090395078 0 0 0
268 1 3.0472012153532826 22.776958360859474 6.226950448100893 0 0 0
82 1 6.792879887631854 22.169911652375227 3.4585918662664388 0 0 0
90 1 12.754907254657931 22.181593555895176 3.1383010688636945 0 0 0
284 1 15.932671478085997 22.392013377384668 6.649253502809816 0 0 0
99 1 3.38822603975921 25.83047990516995 3.0955951366322516 0 0 0
86 1 8.115287997091093 23.75189707785136 4.9803116377775565 0 0 0
111 1 11.480143192217477 27.109184131305245 4.601457762917702 0 0 0
115 1 15.740968209767246 25.344709954367676 3.50924953715576 0 0 0
94 1 14.255759201846189 23.772394772050784 5.165869349319762 0 0 0
305 1 12.868176884793398 25.53011577677361 6.612718995882071 0 0 0
102 1 1.3891729614512358 30.35800713323215 4.903805407955588 0 0 0
103 1 4.925618696618945 27.470380877336982 4.604314499219446 0 0 0
292 1 3.1308908504699815 28.666817873094942 5.972130841556405 0 0 0
106 1 6.64198453756761 28.977523936798814 2.927760524156996 0 0 0
308 1 16.025076170752293 29.04163716465612 6.174116821468314 0 0 0
118 1 14.110137500334787 30.507616036541002 4.920887833592471 0 0 0
119 1 17.549704267397175 27.087488385367912 4.614231347131124 0 0 0
758 1 8.09142671467988 49.377191411246756 24.350895608244446 0 0 0
321 1 6.399268154391391 31.773699640517414 6.0699578793912385 0 0 0
110 1 8.343039154164732 30.31264880120745 4.712899370657781 0 0 0
329 1 12.841749510677712 32.4423399127606 6.229179144368413 0 0 0
139 1 15.818152322531212 31.987072719888193 3.23698104741175 0 0 0
127 1 4.38465615123085 33.45634266188193 4.997389043931459 0 0 0
130 1 6.216790219586209 34.73364433790064 3.256457624064116 0 0 0
135 1 11.263872769384989 33.865233571761635 4.572624469127392 0 0 0
324 1 9.338879801070656 35.07678823937978 6.092994990888468 0 0 0
332 1 15.874514454288878 35.32666691831973 5.905604397469355 0 0 0
143 1 17.584408919525934 33.89796404979147 4.335258055772249 0 0 0
126 1 1.0029884474647812 36.82019660233203 4.634093119189963 0 0 0
134 1 8.12039577511644 36.91834628198799 4.364406271068665 0 0 0
142 1 14.0053008905478 37.09167958240252 4.1487140056301275 0 0 0
151 1 4.792520667846131 39.807272372161066 4.664133482139641 0 0 0
340 1 3.0986474058125135 41.51355728879945 6.168333494929338 0 0 0
159 1 10.964325603974672 40.2499067623653 4.620890785875704 0 0 0
348 1 9.651164248400656 41.60671340054972 6.408040658287834 0 0 0
356 1 15.515017124648367 41.54562234389654 6.630415205398958 0 0 0
167 1 17.190078839006727 40.35869952170296 4.873726141456193 0 0 0
150 1 1.4220255982779637 43.124247201388414 4.463893336497113 0 0 0
171 1 3.1482445247764304 45.08582017062149 2.882196147793129 0 0 0
158 1 8.07110723380867 42.94242393300864 4.8611534582564735 0 0 0
369 1 6.059496949350409 44.75764596785335 5.977658306253775 0 0 0
166 1 14.581155937047468 42.96207701907602 4.697652917954403 0 0 0
377 1 12.74972930295913 44.59917127740712 6.036673155832836 0 0 0
290 1 0.03917404802340599 28.922593298960344 9.513684750759719 0 0 0
175 1 4.557732198658722 46.33067070971042 4.815619814206291 0 0 0
178 1 6.328276490976771 47.76463755507493 3.1870051800639354 0 0 0
372 1 9.383316000609652 47.86354062635981 6.4624696130949895 0 0 0
183 1 11.031478904368983 46.4139707739905 4.588520630410729 0 0 0
380 1 15.916544495239624 47.92712273505448 6.366934105779894 0 0 0
191 1 17.822788319418805 46.71404187023529 4.693136259589179 0 0 0
3 1 2.9289819800818644 -0.06655416321009976 3.087704971128112 0 0 0
174 1 1.3738424653061214 49.454708795316776 4.7619799697725504 0 0 0
182 1 7.842047023166889 49.17685996883293 4.7719785213616595 0 0 0
201 1 6.031433231034418 50.787031065713364 6.267529116431039 0 -1 0
190 1 14.292751840517818 49.52491449204955 4.5662267082132235 0 0 0
750 1 1.5510814257786478 49.235730054079056 23.47316655473294 0 0 0
197 1 1.6328282852676594 1.5364364437543947 7.919234310627058 0 0 0
195 1 2.973079355707944 -0.06658410277812675 9.473666516333859 0 0 0
205 1 7.651213744520515 1.4803897068396328 7.679743190378388 0 0 0
213 1 14.23955885009067 1.6729610745920098 8.161992607716229 0 0 0
196 1 3.6343053371546046 2.989813656977689 6.501404879001255 0 0 0
200 1 4.849647760822727 4.811756339889591 8.333274639613935 0 0 0
204 1 9.259450813361344 3.4005892794666317 6.232653700582721 0 0 0
208 1 11.39223787439457 4.732475987511508 7.958392093203942 0 0 0
212 1 15.890099852951934 3.0039621099594056 6.2462434901942006 0 0 0
216 1 17.364750987291917 4.820006338362353 7.669183798314637 0 0 0
221 1 1.5688464646138691 7.843779066754487 8.084076767023463 0 0 0
229 1 7.694442187285914 7.8383693702131865 8.300378958563469 0 0 0
227 1 9.60840135145206 6.22077743637443 9.514461010990038 0 0 0
237 1 14.323758243441516 7.966148135437427 8.18084170873947 0 0 0
224 1 4.654792753937518 11.13274442165862 7.865011315114799 0 0 0
226 1 5.923859097116577 9.532369866887658 9.628123547255015 0 0 0
228 1 9.764461213519022 9.436330206404563 6.641782815534732 0 0 0
232 1 11.068872745685324 11.431667372069072 7.8522849494583795 0 0 0
236 1 15.611916367662976 9.28017841081111 6.241864769005824 0 0 0
240 1 17.36226017871547 11.033821666183748 7.950900236272291 0 0 0
245 1 1.722856354875673 14.180078843894469 7.774796922179546 0 0 0
243 1 3.01258100214425 12.611393209122994 9.562307832358448 0 0 0
249 1 6.416764134263457 12.563910041291688 6.1382969794620035 0 0 0
253 1 7.885802809729705 13.911211126285009 7.870655881167493 0 0 0
251 1 9.591791375778529 12.683446833383826 9.859498702190397 0 0 0
257 1 12.685849088664135 13.212874858044827 6.514328857066183 0 0 0
261 1 14.503840848210624 14.320157828504383 8.123085559656298 0 0 0
259 1 16.191048485997747 12.94010437369425 9.717195383992188 0 0 0
244 1 3.6882621701858738 15.659905317949834 6.284487942936696 0 0 0
248 1 5.176486372777995 17.2131473667478 8.174442791737441 0 0 0
250 1 6.547033832646485 15.513057412793195 9.690493783316397 0 0 0
252 1 9.391674749369804 15.815697750033468 6.32503907222277 0 0 0
256 1 10.97469248961168 17.591848524994212 8.080875398925382 0 0 0
260 1 16.2096471558026 15.909026685012005 6.558640197042442 0 0 0
264 1 17.477969814794445 17.770351693102683 8.01966487966226 0 0 0
269 1 2.049849029409542 20.89107238404878 7.802346801221473 0 0 0
2281 1 19.01967160562634 44.31500123017595 18.74539943045082 0 0 0
273 1 6.200646790862163 18.97040576583408 6.412267734689018 0 0 0
277 1 7.899206316740488 20.371451086400917 8.057201491463612 0 0 0
275 1 9.61445219147921 19.103895908758805 9.982168012404362 0 0 0
285 1 14.255577746534623 20.702553086203842 8.26529200778049 0 0 0
283 1 15.698422595685411 19.20051997142802 9.62179332971235 0 0 0
274 1 6.66619721208847 22.54504887627167 9.251114314023516 0 0 0
276 1 9.499865661660495 22.338107743787134 6.973965570327032 0 0 0
282 1 12.880849341780877 22.5220970383389 9.612256021308234 0 0 0
272 1 4.794366820702916 24.086026216184933 7.819057090963947 0 0 0
297 1 6.3447630393277334 25.676911769214556 6.116981276014929 0 0 0
280 1 10.965244724886482 24.072211250845886 8.334887825523307 0 0 0
299 1 9.368918658447772 25.78985803985379 9.459489078141008 0 0 0
288 1 17.70511871587146 23.76120343860027 7.951503499173487 0 0 0
293 1 1.7747234542094117 27.40830865402224 7.923884655241553 0 0 0
296 1 4.853475476591366 30.55067610346349 7.951633733523336 0 0 0
301 1 7.817229845814417 27.228160813079334 7.708886232406692 0 0 0
298 1 6.229832033075284 28.704537162410624 9.448267492144097 0 0 0
300 1 9.800740309807807 28.59025841733946 6.2866579262341915 0 0 0
309 1 14.630609752641002 27.41510190432362 8.059806897104012 0 0 0
323 1 9.583538173079138 32.08192407310004 9.228972246712809 0 0 0
304 1 11.19888829063289 30.612494069405606 7.763903977028255 0 0 0
312 1 17.494845306300185 30.476191160484827 7.8229468372735855 0 0 0
331 1 15.977794965697608 32.08409107297504 9.359259916986913 0 0 0
316 1 2.8142450858527677 35.28858966832 6.238247762244396 0 0 0
317 1 1.1904978606822294 33.72085897907283 7.77732614505374 0 0 0
325 1 7.700595114475118 33.6612559284885 7.725067202803218 0 0 0
333 1 14.424587675349906 33.692981266476394 7.8792227582980985 0 0 0
330 1 12.616692294235952 35.15660253631677 9.376103913692734 0 0 0
650 1 0.11994637946571379 21.985896715980697 22.643897370340774 0 0 0
320 1 4.6657695295648605 36.75835185272689 7.671895741715627 0 0 0
345 1 6.688778462042089 38.26092427954843 6.100197097079236 0 0 0
353 1 12.747777902711297 38.69312662583491 6.062802807687053 0 0 0
347 1 9.31347642556172 38.430520576528906 9.32346673942122 0 0 0
328 1 11.06489079565689 36.69298289541882 7.818131409448188 0 0 0
336 1 17.618521575934064 36.91765277264436 7.5606229779726375 0 0 0
355 1 16.08998192058875 38.30146952947608 9.191465735615285 0 0 0
341 1 1.3405666209290277 39.891090539793694 7.913488730204459 0 0 0
349 1 7.899600795644987 40.091858512532596 7.596683599440058 0 0 0
346 1 6.590838130583591 41.611650731842545 9.304256088725042 0 0 0
357 1 14.158586880781598 39.83377559795812 7.821460698676765 0 0 0
81 1 6.680943397582831 18.77699081526405 0.2530422836436733 0 0 0
344 1 4.607775887306788 43.01611644787232 7.86314365953844 0 0 0
352 1 11.520174918883415 42.919943200012355 7.711482362600579 0 0 0
360 1 17.093100895519097 43.3820257697286 7.835676665479751 0 0 0
2017 1 19.044818373389855 25.91023584509357 12.630777315530525 0 0 0
365 1 1.3846731497372227 46.35050531394421 8.072454028814617 0 0 0
364 1 2.85649507163406 47.88173949703038 6.56722960008976 0 0 0
373 1 7.63751559880435 46.03406537522177 8.079864888217775 0 0 0
381 1 14.085659891744246 46.31944912693278 7.664636200128593 0 0 0
379 1 15.784695677579212 45.29051120400426 9.52390484367635 0 0 0
368 1 4.619103183472519 49.40341224625941 7.847426941458339 0 0 0
376 1 10.910739422487838 49.50344553334227 8.026487798089365 0 0 0
378 1 12.520382574035633 48.21702677303823 9.38963722619379 0 0 0
384 1 17.56375458723035 49.64501771935828 8.065891642345434 0 0 0
41 1 12.438767531191012 6.304736384092637 0.38318747526924324 0 0 0
199 1 4.741454275785348 1.6911831844004603 11.124779195057796 0 0 0
207 1 10.694600509859425 1.5028051038294692 11.347091801611837 0 0 0
211 1 15.68349244854534 0.13839694719433085 9.884355371732111 0 0 0
215 1 17.68208589801316 1.8081245306069829 11.121967621529695 0 0 0
198 1 1.5017786538237148 4.713239721523096 11.277065674672862 0 0 0
457 1 -0.04279640216018515 19.10564040595249 12.621417861586014 0 0 0
202 1 6.434346835548167 3.3590002768924214 9.758691909833539 0 0 0
206 1 8.112672583718231 4.850585622483861 11.278125595466145 0 0 0
210 1 12.673458900235568 2.9997638780107287 9.775296552112719 0 0 0
214 1 14.4632836269566 4.920892171460147 11.153617337990092 0 0 0
219 1 3.1713406221864218 6.135110851445553 9.852280863481043 0 0 0
223 1 4.685235419767 8.022163487816906 11.400009718348553 0 0 0
231 1 10.927741420524793 8.023586523319853 11.108896985423831 0 0 0
235 1 16.070600040841043 6.425613322156263 9.582092726597436 0 0 0
425 1 12.777294189592602 6.641617416809104 12.575744687972433 0 0 0
239 1 17.84331331070363 7.8442468193930965 11.13770732607948 0 0 0
222 1 1.426570060216334 11.167527924754024 11.321303083566235 0 0 0
230 1 7.578768505703894 11.110571309042255 11.408973147358042 0 0 0
420 1 9.401043198028926 9.45800107403659 12.892713765205777 0 0 0
234 1 12.849466423464445 9.610145527102828 9.614830332952101 0 0 0
238 1 14.335494085094442 11.48570075246077 11.249923380444287 0 0 0
247 1 4.538788402679038 14.580433640315626 11.02685672258408 0 0 0
441 1 6.263620089329699 13.014668460835429 12.624060034145248 0 0 0
255 1 11.151010471398033 14.537930762962025 11.449791589597108 0 0 0
263 1 17.7974338090547 14.615015262246724 11.208576263298225 0 0 0
84 1 9.592183963841821 22.040181221344 -0.03538659041399501 0 0 0
246 1 1.9788624385013787 17.956110734043428 11.103324306859193 0 0 0
254 1 7.765267780083026 17.45580780389599 11.303937806220432 0 0 0
444 1 9.539068228862199 15.735138557261715 13.127402560862059 0 0 0
258 1 12.486456931298207 15.783712561144197 9.493130246843432 0 0 0
262 1 14.151164846833922 17.74819508165488 11.424128414506516 0 0 0
767 1 17.303443622020364 45.97406504666654 23.947187215845947 0 0 0
2210 1 18.848299240258925 28.918609942246032 22.541577076590325 0 0 0
267 1 3.4116717003341623 19.14128142902228 9.399519748601488 0 0 0
271 1 4.871373666089798 21.098222353451106 11.07068383308896 0 0 0
287 1 17.486108135326337 20.607888798506483 10.926126778347156 0 0 0
278 1 7.860267999215366 24.106072957236318 11.34505005635814 0 0 0
468 1 9.440471571978689 22.33461235728972 13.224541048936477 0 0 0
279 1 11.116118435076867 21.1561296479803 11.37861447647557 0 0 0
286 1 14.468860512866161 24.451697244386626 11.37723483880005 0 0 0
476 1 15.972734775485577 22.25664781414035 12.627854625699209 0 0 0
65 1 12.560377255464614 12.84130150459825 -0.014764902794263707 0 0 0
270 1 1.7100994558867844 23.84511235902341 11.113353123950137 0 0 0
291 1 3.011577081819932 25.474247335722914 9.450771764750682 0 0 0
307 1 16.26395189702531 25.61768019574235 9.45245826636705 0 0 0
484 1 3.134710477197811 28.49904689916067 12.511963180003052 0 0 0
295 1 4.913573599233015 26.876971029413028 11.045191408808584 0 0 0
303 1 11.184377092263714 27.344745327098348 10.942229875239775 0 0 0
492 1 9.148599321363866 28.624231940220852 12.330595751819226 0 0 0
306 1 12.979923883384975 29.2463625612302 9.444863412574795 0 0 0
311 1 17.53173815925498 27.368337966181784 11.238355726298664 0 0 0
315 1 2.9244827771584436 31.973660284877578 9.361734177342429 0 0 0
294 1 1.5265876613441052 30.397222883021385 11.27438729092004 0 0 0
513 1 6.478142295008434 31.612732915227152 12.867680819108212 0 0 0
302 1 8.144440188041076 30.45390572666135 10.85135665753036 0 0 0
521 1 12.745061862454591 32.166555346970284 12.61725552682376 0 0 0
310 1 14.549290186020855 30.69670744312603 11.069198143869563 0 0 0
319 1 4.770024041787535 33.180953975944334 11.127856993517213 0 0 0
322 1 6.066801460096416 35.33872436405433 9.165114518044675 0 0 0
516 1 9.359308559777217 34.799967111654865 12.902625271230399 0 0 0
327 1 11.127840441614792 33.770187404717106 11.023342221376005 0 0 0
335 1 17.236165315876303 33.68937694115263 11.194216617536709 0 0 0
524 1 15.6440170525848 35.30184893606024 12.692321448081984 0 0 0
759 1 10.970307445371528 45.891932462779735 24.187734847797575 0 0 0
2138 1 19.03032781827622 9.631706321448618 22.194728630527905 0 0 0
318 1 1.091337885180908 36.651878755059286 10.860020338997916 0 0 0
339 1 2.9545160977944174 38.16033302076535 9.395005697765281 0 0 0
326 1 8.125558496925201 36.54549429037658 11.048371532142475 0 0 0
334 1 14.084551088540357 36.91095238316447 10.800925199927864 0 0 0
343 1 4.813341388458457 39.56640254063467 10.80594518829201 0 0 0
540 1 9.432567242479696 41.16535213664011 12.777418218049808 0 0 0
351 1 10.955176110874032 39.84217276632711 10.81679791511632 0 0 0
354 1 12.760899989022107 41.35871759791408 9.38232317504759 0 0 0
548 1 15.744120222687998 41.35588861343149 12.432257068488816 0 0 0
359 1 17.29891533009531 40.08514990684375 10.839018653718965 0 0 0
25 1 -0.03155587473345 6.008495491120487 0.2571974674509399 0 0 0
342 1 1.4273791555382946 42.98118200633631 11.29025362763454 0 0 0
363 1 3.190493290111864 44.64261808569857 9.721591246923278 0 0 0
350 1 8.162662138920739 42.883455554265495 11.015163259690569 0 0 0
371 1 9.756364214729308 44.48399962777887 9.276318163359576 0 0 0
569 1 12.744362801254294 44.78878139626249 12.298495118408102 0 0 0
358 1 14.296889782401268 43.060099796365705 10.928652350054596 0 0 0
956 1 15.585199185012446 47.64062969287225 25.369927710855066 0 0 0
370 1 6.26682973751075 47.852011144986776 9.497365171189553 0 0 0
367 1 4.797185462043999 46.43461770469247 11.021605866829988 0 0 0
375 1 11.075216513654757 46.14737913312389 10.934778915888772 0 0 0
383 1 17.28574276333416 46.849697586370965 11.013479046942493 0 0 0
366 1 1.4965316053347335 49.27818714768199 11.369419058338124 0 0 0
556 1 3.570118656043488 48.03834848305536 13.14871153171833 0 0 0
203 1 9.261518050676571 0.07664897059473108 9.344089090460315 0 0 0
374 1 7.829245644089527 49.596728818393714 10.868865804087704 0 0 0
382 1 13.982549469849552 49.75566112909064 11.393470404664528 0 0 0
572 1 15.65852385928216 48.2238828870194 12.799532997338522 0 0 0
389 1 1.7488757958398267 1.3262691824205666 14.271534963066456 0 0 0
393 1 6.706363922318581 0.5521403265023267 12.703697308352726 0 0 0
397 1 7.860387447791078 1.9864289338011383 14.39441450248755 0 0 0
401 1 12.330101932561856 0.0033774828934865636 12.933316647562757 0 0 0
405 1 14.495188383198306 1.5848096996505339 14.15802260614978 0 0 0
403 1 15.60657094129045 50.93156653964007 16.136502094755212 0 -1 0
388 1 3.1052364936911325 3.2255507915073345 12.891400980306708 0 0 0
392 1 4.740648483998763 4.720362019622181 14.540816572677043 0 0 0
396 1 9.3435349694093 3.383454146788876 13.072947169259285 0 0 0
400 1 11.223812729598844 4.981765697095582 13.95966600757858 0 0 0
404 1 15.969026234964875 3.327980740352554 12.615272591234136 0 0 0
408 1 17.270886432738514 5.008323897095454 14.336328606069737 0 0 0
413 1 1.3920107030282711 7.718980103288122 14.27908103119761 0 0 0
411 1 2.948208199328884 5.978852185881687 15.824666418985617 0 0 0
417 1 6.411104183604648 6.302388529033401 12.740881603885246 0 0 0
421 1 7.995901225902706 7.93060008249271 14.419258522583416 0 0 0
429 1 14.589391964534652 8.252067319055298 14.089633697491351 0 0 0
412 1 2.950544749024963 9.568775667330755 12.690565962742664 0 0 0
416 1 4.561205243733572 11.408417374073727 13.983884779847195 0 0 0
424 1 10.991643501259723 11.030583410703805 14.638308937153793 0 0 0
428 1 16.106593548944343 9.866213905591282 12.455078841848518 0 0 0
432 1 17.58100187038359 11.514042814344169 14.244810638418873 0 0 0
437 1 1.099941990417427 14.397229444769824 14.058519038763226 0 0 0
445 1 7.926365433244335 14.182643763748873 14.654053500918812 0 0 0
449 1 12.679147378586098 12.962515179670442 13.050776369992983 0 0 0
443 1 9.461956103329277 12.7062410999693 16.23087749590692 0 0 0
451 1 15.506219481778492 12.800765191775772 15.767525439208445 0 0 0
751 1 5.1542650592632615 45.72220035768861 24.024804092048804 0 0 0
436 1 2.9957212840186402 16.171624692723963 12.517980892591197 0 0 0
440 1 4.761896795410822 17.3345245679025 14.476893102245754 0 0 0
448 1 10.928827573942373 17.582985517098038 14.692503608583118 0 0 0
453 1 14.306344759577645 14.670030608656512 14.477879276621548 0 0 0
452 1 15.669009843454205 15.717391378275973 12.53088981668772 0 0 0
456 1 17.23060641204473 17.773820965819382 14.262739909494686 0 0 0
461 1 1.8267523220019866 20.408362267585645 14.29205900723029 0 0 0
465 1 6.040211929862399 19.370521701650016 12.634087115848903 0 0 0
473 1 12.46177825288075 19.58254616714475 13.075065007536823 0 0 0
467 1 9.327150082221719 19.37873424733516 16.109280412640526 0 0 0
477 1 14.307947091488982 20.81104727794151 14.500606292082514 0 0 0
460 1 3.438642651154141 22.43564326603993 12.780238705090737 0 0 0
469 1 7.825423022503168 20.77722769895886 14.734607439592446 0 0 0
474 1 12.640701453869308 22.40109727451632 16.523405820069758 0 0 0
480 1 17.41406551475771 24.149021003769853 14.407971259867761 0 0 0
2065 1 19.02870857545203 38.48960158642984 12.434420241733303 0 0 0
464 1 4.917613075140738 23.85035897824609 14.57163913605239 0 0 0
489 1 6.3013812221913295 25.4716079525993 12.9750842981985 0 0 0
472 1 11.328949286128195 23.94364525477875 14.518762753754856 0 0 0
497 1 12.398404385525767 26.09929846134782 12.856960332865585 0 0 0
485 1 1.302977806630795 27.282727773821755 14.476593457380014 0 0 0
490 1 6.01253409711979 28.556165705570187 15.870354403860405 0 0 0
493 1 7.8514501306456586 27.151123618780456 14.256602044874338 0 0 0
498 1 12.633616265752572 28.834872462716714 15.40334001290312 0 0 0
500 1 15.830354911706552 29.090233788456942 12.724065134568939 0 0 0
501 1 14.48628449713416 27.26885458487057 14.439697578217315 0 0 0
488 1 4.510086588608695 30.29707421939735 14.145030036029143 0 0 0
496 1 11.0306294954277 30.4096957479944 13.86572778513946 0 0 0
504 1 17.397049741090484 30.483497916598157 14.190148943100485 0 0 0
509 1 1.4797814979692672 33.60089768327417 14.329894005914467 0 0 0
508 1 3.158623592580049 34.998713215429845 12.298616348080836 0 0 0
517 1 7.692176144784071 33.53408808397279 14.562171890946937 0 0 0
525 1 14.219160250445743 33.455607994152444 14.262198628083668 0 0 0
512 1 4.8548340647844705 36.82835230642135 14.06445716389724 0 0 0
531 1 3.015549063592926 38.21218839771815 15.645030709495384 0 0 0
537 1 6.5310497449884535 38.274683724092114 12.373291145121328 0 0 0
520 1 10.960632898370495 36.698380004617874 14.393827791333804 0 0 0