LAMMPS data file via write_data, version 29 Oct 2020, timestep = 200000

4608 atoms
1 atom types

-0.2958794628751349 53.695879462876626 xlo xhi
-0.2936637408360383 51.20078374083193 ylo yhi
-0.2936637408360383 51.20078374083193 zlo zhi

Masses

1 18.015

Atoms # atomic

3398 1 1.3612753399833266 3.104807986579128 1.5677304541344155 0 0 0
3390 1 3.7194790318309447 1.612776811840216 6.905778409751113 0 0 1
1872 1 1.7197924891853522 30.692553082392457 5.328271166173644 0 0 1
2897 1 11.804707913613614 0.20785598346949596 5.731717070603156 0 0 0
2853 1 15.97518901685337 5.466648378823536 3.245838744457277 0 1 2
3577 1 1.862789145344022 5.425464286318443 3.0274594454076103 1 1 0
1801 1 8.126162618330762 36.74550398327478 21.305773682825556 -1 0 -1
392 1 8.774646018489898 4.298287955886798 1.1713426363930886 0 1 -1
2934 1 9.07206945246436 18.520435158140202 23.453596349666448 1 -1 0
1554 1 16.851717199505 2.4755793788239084 2.7590826735980474 0 2 0
920 1 4.456070293505843 5.472541180752193 2.2008250912619483 1 0 2
808 1 -0.09182647751424822 8.861352124349104 19.97307221212124 1 1 0
1392 1 1.0200148310007509 39.42078225887815 1.1129582890631269 1 0 1
4550 1 5.96313807016297 6.914019820717998 4.281193561102068 0 0 1
4419 1 8.873359509162215 0.16052255224497192 24.411125454167756 1 1 1
4375 1 0.5304030318625595 48.38015020921234 19.96061257426148 1 0 1
1270 1 8.369839905151057 7.44130094280875 0.8639816664268551 -1 1 1
1778 1 3.1920019384037124 11.036766360599126 6.745025907743982 1 0 -1
378 1 3.74639118033073 8.556360944728036 1.819173090264882 1 1 0
989 1 15.373224899845516 10.235241717523666 3.3693693385596792 -1 1 0
749 1 5.263797675360823 49.28779075641246 0.11411889478284681 0 -1 -1
1598 1 1.7111240424622247 9.243485950254945 -0.0013797927863560266 0 1 0
3343 1 1.9083499898206675 13.385035187296593 3.0657231345285822 1 0 1
4211 1 0.9739428390210576 38.542183754446334 20.477322937433875 1 0 1
1390 1 7.049981071499274 11.541032054894538 2.025800164368997 -1 0 1
2713 1 9.670100522129554 12.615534233464789 0.6251450133375475 1 -1 1
709 1 1.9886376106715358 47.555762133649615 6.540486567994813 0 -1 0
767 1 0.31857838607883693 28.311695749084652 6.56347153373375 0 0 -1
4401 1 3.080653705583828 0.3867420279461258 25.140577246802653 0 1 -1
190 1 14.383632473640917 20.68515263939066 1.5091590057255406 -1 1 0
3514 1 3.535368043420158 14.932152137620118 0.601519063048734 1 0 0
4175 1 3.8218809846987254 17.536624506446795 0.9727224024595904 1 1 0
4527 1 11.382979353658518 16.513372439475223 3.229903498021058 1 0 0
3242 1 8.0513396600666 31.33630059209854 22.865133845741834 1 -1 -1
1832 1 14.696893997633985 15.39921358790394 0.9124657415245827 0 -1 1
3248 1 16.88281310053192 13.80133935642151 0.5694566840393422 0 0 0
400 1 1.0796889908104306 45.50948650532937 4.353609031353731 1 1 0
4487 1 5.037248113616007 20.659636476140406 2.5186539405778183 1 0 -1
1058 1 0.39977950843754384 33.03940341259905 3.998321796620594 0 0 0
1876 1 12.193788342433285 18.951858328101203 1.8283284057662126 0 0 0
4216 1 13.66888836196566 22.01284587881144 4.193340931328109 1 0 1
4529 1 2.428206204494913 24.04602750594055 2.560842866890184 0 1 1
289 1 11.723764878114014 23.387369166114404 2.370641013655408 -1 1 0
39 1 2.651175626561659 20.905274131497077 24.66320586894016 0 0 0
3186 1 -0.09465727178382438 33.64391666613468 7.122530866456712 1 1 1
2080 1 0.03025393458291281 32.98146908860915 23.122309292884253 1 0 0
2782 1 -0.009480294449174254 15.399956180341123 3.53759032046038 1 1 0
4023 1 13.190968586020224 24.229302696459516 0.5234335515995359 1 -1 0
3879 1 15.144897749034008 30.43692317923417 13.144228332571485 1 0 1
1630 1 1.093178542199025 12.791391170896757 18.857393622285407 1 1 -1
2001 1 12.78617831418942 32.872997854435766 2.384210396482735 -1 0 1
252 1 3.6091911083208768 23.997762066160625 24.477796604199398 -1 -1 -1
2460 1 2.7277768461211056 34.56809954162988 3.4263769731600484 1 0 1
4393 1 4.653303518920668 31.61876617581081 1.3675835758244137 0 -1 1
1207 1 5.1654801783340325 33.21155777081716 3.4792321600693357 0 -1 1
1889 1 10.115339503771287 33.5200365295839 4.600354340728872 0 0 1
113 1 4.804654053741777 18.527180611099944 20.634701598823725 1 1 0
2457 1 11.245470056552085 37.29844123136271 1.8115571495767586 0 1 1
2992 1 0.24385534482730298 16.17364168800544 16.5854373057438 0 0 1
521 1 6.1599421360001 36.95234946542457 2.045073211731985 0 -1 -1
2223 1 7.294752527316373 34.72006707079029 3.1762990652416985 0 -1 -1
4561 1 0.19992245218809107 20.002138395820115 20.625561964410934 3 0 0
4237 1 8.936121993984678 38.67204834707022 0.941540624859897 1 0 2
2668 1 -0.06318539542606119 35.601355574736964 -0.21137842760083358 1 0 0
812 1 -0.08043217275610423 36.81810461293394 6.609483417477967 1 -1 0
1339 1 0.2125071698221842 23.393381052028843 15.478441608399953 1 0 0
4453 1 6.155013573982042 12.078688949066626 23.50953227258966 1 0 0
4214 1 16.601145448397062 30.41000120540633 0.5395968462739782 1 -1 0
838 1 0.37535066844632126 6.291940099276908 0.5078318928174363 1 1 2
854 1 2.881357338443596 36.93659447045603 23.76248695588294 -1 1 -1
3245 1 0.14677237578620211 40.69252128610718 24.84451066401912 2 -1 0
247 1 12.895686251319876 3.644458735605698 1.3969771795275625 -1 0 0
4381 1 10.232266513801509 43.15271746209671 3.230531197855943 2 -1 2
2753 1 14.012603040527328 37.613144670293956 1.1865588886263196 -1 0 1
4323 1 0.1510439796176236 25.329607115130706 1.5133224907748464 1 0 -1
3711 1 0.862022921819587 43.76656933274237 0.37889490016832794 0 -1 1
1712 1 5.852555144517028 45.95598788623138 1.9633986560685424 0 -1 0
3407 1 8.640432521924911 43.14591595217374 0.7279305925955808 1 -1 0
2757 1 16.540589710279924 30.52388669681961 21.70000397100879 0 0 0
1845 1 5.0170573886305325 41.65860392288932 0.4560309443861509 0 -1 1
276 1 9.29619719491629 9.640225257192819 2.606012411706389 -1 1 0
1966 1 8.42506250406897 3.162705805971189 25.066814208699643 0 0 0
1541 1 0.8003758993821333 46.542753740597036 1.5320535667864152 0 0 1
2708 1 5.822366655730281 48.45197148695677 4.251777631812541 0 1 1
2332 1 16.8334905848044 20.631751107579348 3.478735933379783 -1 0 1
1868 1 1.994950633452257 41.096035653041696 20.438969428237325 0 0 0
1994 1 8.682805292250567 49.70384514960557 3.818748267908375 2 1 1
2910 1 12.530425097698165 49.86774518941332 1.5801737833213652 0 0 1
3056 1 0.6564444981175435 15.556458440024162 19.28656607384089 0 0 0
941 1 0.19771752953103677 26.266951488968672 12.21291014642586 0 0 1
2 1 16.14262282464084 48.61496366190103 6.1088428217482695 -1 0 1
3493 1 6.690604866313002 50.728519549979744 1.8587586323320613 0 -1 1
326 1 0.3151150005243162 42.913514430794564 14.220078468852583 0 -1 -1
1749 1 10.590132986484385 -0.016126302451810515 2.944058080913529 1 -1 0
535 1 9.958909564528822 15.305855151759564 1.0659699674335532 0 1 0
2196 1 17.432784770052095 47.872420436280926 22.231978842755012 0 -1 0
1242 1 12.712220653976432 41.33238678782808 24.042526422125896 0 2 1
1893 1 17.174310004921043 15.54131772856983 11.17959779214275 1 1 -1
3354 1 7.373157284087871 44.957899744885054 25.252015065683192 0 0 1
1109 1 7.272635970132437 1.6808734742554505 0.8117993789407583 0 2 -1
771 1 14.394271335013167 0.8872311024437634 1.4740964637838427 -1 1 1
1698 1 9.152884145441481 1.7377029123701746 5.362703063543108 0 1 -1
4410 1 15.458394178413883 49.48628564470973 0.1003841596008393 1 -1 1
1569 1 15.021351561598706 0.024301019802125123 6.27045879157079 1 1 0
1007 1 2.1179040705978602 2.599698867875532 4.757905371169719 0 0 1
760 1 2.833838796688324 0.19513796989325155 9.452732194160172 0 0 0
3535 1 8.08518304474204 5.536461429624989 5.878117266820687 1 1 0
4249 1 10.308753605120048 5.5444033402606365 3.9719516803089014 0 0 1
4236 1 15.719968670350951 4.100496518182971 5.918985242835668 0 0 0
3820 1 1.914650556611614 7.417828746054014 5.236909664726838 2 0 0
692 1 3.6669633401615633 8.63847466801451 8.045217224537524 1 1 0
3266 1 -0.2384413593515677 41.709149215262244 2.091419726566153 1 0 0
3133 1 14.058153368756416 6.48750471121329 1.7730569718092628 0 2 1
2359 1 14.279926431492608 33.04637039215011 22.95708230801969 0 0 1
3220 1 1.1262867054535197 11.578395587766241 8.917245405385655 1 0 0
3938 1 4.9638626275720865 13.84445833910561 3.338232847269515 0 -1 1
1742 1 11.951924934255672 10.21402701865642 1.667759529604349 0 0 0
391 1 5.294169790243163 11.14882978473543 4.419840990435557 0 0 0
1575 1 14.82929712388644 8.908921617430297 1.1211950531141714 0 -1 0
1402 1 2.8335914430567066 15.46437054350814 5.088549937061614 0 0 0
448 1 6.795040438406782 13.456426871462543 6.100447146870138 0 1 0
3566 1 1.8592732978073214 19.196707595908638 5.119279419152926 1 1 1
2084 1 4.891252240603385 18.07329205704238 4.282762463558383 0 -2 0
2836 1 7.077946037119086 14.941831558219963 1.7890978420549333 1 1 1
1296 1 10.159672857535506 15.753522769869342 5.801273279477803 0 -1 1
1096 1 10.615192279408502 18.510977192771332 6.388320555704841 0 0 2
3428 1 15.106300511893432 18.044103618526478 4.620452235804938 1 -1 1
282 1 14.230230171388513 15.81854708512249 3.4375896121728595 1 1 1
802 1 12.520101973344842 47.92533140295778 21.276397382756816 0 0 0
4581 1 1.3931452242669633 29.82918105353584 25.24604459571363 -1 0 0
4016 1 5.677088181438261 22.944565134523835 4.2736473040212 0 0 0
3545 1 2.340326555734073 19.217481713139374 2.43259006860862 1 0 0
3894 1 9.174030888079713 18.707379775721474 3.6081425322592615 2 1 0
1870 1 6.731301715251463 17.550290144963117 2.53821712845391 0 0 1
223 1 13.128508911220946 19.644374656213856 5.463182818663639 1 0 1
1555 1 12.284689248814889 24.611845969395844 5.258124521599974 0 1 -1
1785 1 2.782251939613139 21.59221129021771 0.9338944178570279 0 0 0
206 1 4.981761859067777 24.08721545529315 1.6384300447862663 0 0 0
2626 1 10.448806165161583 21.119831411688278 1.4275762802897876 -1 -1 1
905 1 7.844860375500069 24.316822427806134 5.332647146486478 0 0 2
2715 1 10.031573526570902 25.845466246913958 4.060006238758332 0 0 1
2255 1 14.760174227358263 29.23776781177265 2.59888313028465 0 1 0
3188 1 -0.23371062818819865 41.12544257938502 11.747340611890198 1 1 0
194 1 1.8710415246346992 28.573347315370135 3.1149378453950685 0 0 -1
2057 1 0.9570105843042462 20.904646391679215 14.736875895740745 0 1 0
1062 1 2.064505131520147 26.073214938281378 5.4197949612514025 0 1 1
333 1 11.736165382049355 29.913921685607253 1.8850661911981819 0 1 0
2676 1 -0.1321642605571106 27.849226876623398 23.818389520852364 2 0 0
87 1 0.5107866295774431 25.459925136483555 8.110420358195663 1 0 0
2714 1 14.680735500385683 26.31585839683648 2.6541027578069465 1 0 2
4583 1 2.2552811770651036 18.358720223474545 15.980868541476468 1 1 0
245 1 2.261626201614948 30.25834933661375 0.9048402696201205 0 1 0
1824 1 4.728337559157225 29.305889556596522 2.9568327382230004 1 1 0
2727 1 9.82531315878199 25.84739436325691 1.4897519284946827 0 1 -1
1487 1 10.523227837409896 28.55853689879607 4.022006749693693 0 0 0
3790 1 7.297795936419815 30.70777465911493 0.787256618567602 0 -1 1
3717 1 12.683413914500994 29.51938211968256 5.962027766285859 1 0 -1
1986 1 14.051379286742328 31.240261887612398 4.2925183822433395 0 0 1
3005 1 15.302396826273544 33.12842215555546 0.8862867623534938 -1 -1 1
3876 1 0.9039644436526701 0.08255994349567236 4.968328908044054 1 1 1
1683 1 7.751002101158438 30.17461864707662 4.862687434370983 1 -1 0
4498 1 4.454100315843745 33.791929786316345 6.445108295655502 1 0 0
2988 1 9.059993786159774 31.762896524405768 2.7604791975266187 0 0 2
4132 1 14.88728881345163 35.71196857460187 5.276421670891211 1 0 1
2819 1 12.371924206886183 35.24054185651482 3.830820975946808 0 -1 1
4293 1 16.074717623431884 32.645240129373384 5.330620101965408 1 0 1
1343 1 2.3964348345112767 36.6366770061579 4.905084610171348 0 -1 1
85 1 7.435570935460492 36.72983712192388 5.3229048092504865 0 1 -1
1571 1 7.568506382319821 38.96256410415418 3.561255427042202 1 0 -1
399 1 10.710633866705884 36.368242319675055 6.067576337090094 -1 -1 0
67 1 12.197336035423946 39.72583824569275 3.877841457746216 0 -1 0
4148 1 17.38541444490091 46.653714191433416 19.205877839624563 1 0 0
1648 1 2.239152267049342 11.869970158175981 0.4106339318323363 1 -1 0
1387 1 2.621076543692257 38.983407841174994 3.2605110389587413 0 0 0
895 1 4.827195115114789 40.618214275475914 3.1132625857229304 0 0 0
1170 1 10.979024738698302 40.63018809574173 1.5956076769215044 1 0 1
696 1 14.90413988100306 38.354670012163936 3.9415437810204015 0 0 -1
3881 1 0.8522089832998685 9.015716537508148 15.804044260894486 1 1 1
1879 1 1.4678139771729883 40.1792206545471 5.414331877587563 1 1 0
4469 1 3.7906006725626957 43.440906787079825 3.3850303785628615 1 0 2
608 1 8.413157255200169 45.60226998695489 2.631171734748649 1 -1 0
217 1 -0.12638630326721717 2.1515815025969363 19.605229369070113 0 0 -1
3761 1 7.413535943200739 23.354899175269626 22.575333435707346 1 0 -1
4127 1 4.370604611072875 -0.0019924792030984184 3.1942718742533303 2 0 0
716 1 3.9172878279712817 45.921445264668264 4.614461777627406 1 0 1
3351 1 2.9379297402044853 43.300192990514624 8.36952584650408 1 -1 -1
180 1 9.887325065523568 47.97303263339124 1.6921587280865922 0 0 0
3758 1 13.646556352929034 41.81089031243951 5.305398274652014 1 -1 0
911 1 3.7617262907788174 48.906612553175975 8.194266269937424 0 0 1
1281 1 12.155987194496966 46.19237594689559 1.2694456363028876 0 0 1
4238 1 16.710542142406332 6.839145270036285 6.8397327870073745 2 1 1
2059 1 7.8799882730835815 33.45031029496646 25.038618258537895 0 0 1
145 1 2.806839059440895 41.84824802154883 24.861211976893454 1 0 0
4481 1 2.354001099755713 49.51983292529985 4.105306806991868 1 0 1
1574 1 4.890629373502864 50.49902228683221 6.145157662912517 1 -1 0
1468 1 7.614673479412041 3.020115793186309 3.4487901745745018 0 0 0
2319 1 7.506465299852456 -0.19858802223873634 6.507049530340906 1 0 2
1637 1 17.37213829606093 49.68504797523718 4.122049307383372 -1 -1 1
2823 1 17.438104376100576 34.061041303048334 19.291015428574845 1 0 0
1950 1 4.403466134912563 1.883956609100264 12.157541632483781 0 1 1
4177 1 10.025593475062019 0.9455004841577572 8.651843695450898 1 0 1
2701 1 12.344250939776513 2.4220185449554124 9.099065584544732 0 1 1
2479 1 4.386285604751832 2.9352957533102866 9.416026887107904 0 1 1
1896 1 4.881155090177505 2.9045490234995026 3.515078513020533 0 0 -1
1858 1 5.5626719533700975 3.8690728415257025 6.428003622144222 0 1 1
350 1 8.302768348453135 3.2057637482080934 8.11347266581248 0 1 0
3234 1 14.400029417377118 1.8996785564680585 4.459284357930473 0 1 0
81 1 13.124308517401943 4.186735035409532 7.028869871053583 0 0 1
3872 1 14.486373845267522 4.390979450914277 11.452408105836366 1 1 2
2673 1 17.169255703748355 1.4512654794180713 6.691425618603929 0 1 0
3312 1 16.809312519063063 25.02010565273601 1.012339022179438 0 0 0
1346 1 4.199455730293512 6.1708189834236 6.586128526945149 -1 0 -1
3027 1 9.57573372807314 6.025573110221736 8.812140051918528 1 0 1
402 1 7.567227244703322 9.147504195213935 4.629143192293707 0 1 0
731 1 12.165117499421523 6.738664815163779 7.788849554998842 0 1 0
1723 1 1.2257179313910689 3.2339821040964436 23.484284388267557 1 1 0
4465 1 7.710800045227172 7.896136993089323 7.761653685952865 0 1 0
2752 1 11.907357541701003 7.805529660763915 3.275873747083156 1 -1 1
2693 1 12.099871796568276 8.698503282387527 5.888008850191863 1 2 0
3544 1 15.641866537067319 12.222954410135095 7.0543662290170035 1 0 0
4497 1 16.363563435727933 10.580232264489664 9.415953714634545 0 1 1
1838 1 3.3207093065123385 14.865774403149617 7.662507456663066 0 -1 -1
3944 1 11.740108358600086 18.08516485366477 24.466010703384242 1 0 1
4446 1 4.858462225027015 12.524685786021317 8.596077785599988 -1 1 1
1888 1 11.555739740368185 13.447483724008999 5.830338391444943 0 0 -1
3392 1 13.530081075839535 11.18925782804571 5.50939495628338 0 -1 1
447 1 15.912312356185549 14.628143086940252 5.304261008825011 0 0 0
1426 1 0.8207255978709787 44.51885981688399 7.546110647199454 1 0 1
2217 1 5.233130546532171 20.680721722887952 5.757774485969908 0 1 0
1732 1 3.6033131670238387 18.102457644108966 7.350780956864615 0 1 0
1738 1 7.679153818749455 15.57919927833496 4.994540139462326 1 0 0
4171 1 11.818138341890247 13.907272683878967 8.486067421064865 0 0 1
1154 1 14.125455068268218 12.95999462956292 9.529709454318084 1 0 1
2473 1 -0.07551276016505687 17.8866729145366 2.1475927198557643 0 -1 1
166 1 2.6150650523139856 21.990057013903773 4.946337546294652 0 0 -1
1759 1 8.762464886537298 21.827965235386717 3.66406614009011 0 -1 1
4153 1 7.068046177202923 21.891770326397744 7.698483407469342 1 0 -1
212 1 13.74937881424368 19.74930334807994 8.224197505990542 1 0 0
1764 1 15.436393643700224 32.409920024931075 11.07261963673277 0 0 1
2792 1 7.325958455385212 47.37469575270494 -0.21891715897236852 0 -1 1
861 1 2.7880692290665112 23.770510503113048 7.472943352617863 0 0 0
75 1 5.378272434760515 24.82627111034522 7.746626687101664 0 -1 0
3937 1 6.451152752704668 26.415968112100096 3.3254737610188077 1 1 0
328 1 12.631767014331087 21.993377005636486 9.342235221613914 0 -1 0
4596 1 15.056185597750524 25.617659713290305 8.23627996468949 1 0 -1
2961 1 14.007256883238655 27.053721420584232 5.8938409732064345 0 0 0
1319 1 2.0825794875120858 26.813317309373158 10.14232957797409 1 -1 2
2888 1 4.746536067347237 25.518878162596256 10.000468989963474 1 0 1
4256 1 8.058627346394704 28.408878062686956 2.517655628306207 0 0 2
1083 1 4.872247107811091 26.494369374669144 5.837687306548447 0 0 1
3467 1 11.139880933093362 24.178058130079975 7.813987468494423 0 -1 -1
3662 1 4.695334409934085 6.157911381890253 25.408099835607903 1 1 1
1878 1 4.054955934873423 28.993615230647578 7.207014831667804 1 1 -1
3099 1 13.01087991677046 34.691406298740766 6.905673164649487 1 0 0
205 1 4.908345585571123 30.813705393731485 5.210388132004538 0 0 0
414 1 9.015817060317465 31.95169333631368 6.676759875964159 -1 0 0
1852 1 7.841334871660081 27.932258323125314 7.259598523404779 1 0 0
4594 1 11.509437085947924 32.3946888488767 8.201917162030414 0 1 1
4210 1 12.230548949599044 37.194681016634085 8.485363976583713 2 1 1
4512 1 4.849932501087741 36.55283177796604 6.556887575152059 0 0 0
1121 1 0.5994607843955094 36.78790638278121 9.420819454311054 0 -1 -1
1210 1 6.55293134900168 32.279907854733665 7.561113505138858 0 1 -1
4402 1 5.919726237282848 37.91015401629802 8.91205491508581 0 0 0
2579 1 10.061354316467316 39.05004459331412 5.299549307715472 0 0 -1
1348 1 2.720382843740028 40.70864402735495 7.836081411502562 1 -1 1
4160 1 3.429416217098092 36.07909947922427 9.928601504473917 1 -1 0
456 1 7.918124152380427 36.35578056256714 10.397091224194668 0 0 0
973 1 12.127218331093326 39.86749047891666 7.458936682949153 -1 -1 1
2129 1 8.604230007465693 34.78399261629802 7.600668202029276 0 -1 1
1318 1 15.05117648542709 39.70748637656747 7.218609787099719 0 -2 1
222 1 15.49519018299324 49.149802283218314 23.644964592486115 1 -1 0
3578 1 0.40594289308994547 39.622819840851314 9.166563457721008 0 -1 1
2387 1 9.101349922559544 41.10698498039128 7.022731884850175 1 -1 2
1773 1 4.795335581406478 41.57939726166604 5.76461674863859 1 0 0
1861 1 6.372923087313391 40.48553826113713 7.941991321098872 0 -1 1
3264 1 13.673865078398475 42.136922731748435 9.405356231367213 0 -1 0
3155 1 5.068519702786749 44.39226493549915 6.9604974496547785 1 1 0
4008 1 1.1908370432493176 42.55297117517658 4.2094661499676995 1 -1 1
4464 1 9.02769065306928 45.63927410358557 5.461372902292072 0 0 1
3294 1 7.527072393385008 43.08424107241227 5.607336032304654 0 0 0
1323 1 11.299172747134811 43.00675702783844 6.1789156254205375 0 0 1
1877 1 11.855591504125199 46.10641180764853 5.801642448780319 -1 -1 0
2175 1 6.9099656504984805 47.02342359924604 6.370203253014344 0 -1 0
7 1 8.752249166552414 49.03860436048977 7.173122981049586 0 0 1
3319 1 8.254318690492685 48.30012241051158 9.642498209193272 0 0 -1
2472 1 12.90551713213676 44.09549731659647 3.1057760284475915 -1 0 0
3233 1 14.398781467064005 44.40382491320402 6.4875051791935405 0 -1 -1
1753 1 5.678349333035794 3.8491931822084027 24.619937677912624 -1 0 0
475 1 2.144042847521129 -0.20956264606068065 12.249741319331196 0 1 0
2097 1 7.2126635282266784 1.5329258027906214 11.626392500005172 -1 1 0
412 1 11.505389092124314 48.771921783568885 5.949808683491237 -1 0 1
3260 1 13.759202176852282 49.526183224415774 4.1949927852170905 2 0 -1
1866 1 14.008281827270098 -0.15557257989210907 8.998874655100963 1 1 -1
1971 1 0.4589500146463982 35.553885909080144 22.901264315631618 1 0 0
1104 1 2.6928129271552708 50.16935771857092 15.010640361943155 0 0 2
2188 1 4.596805458942785 3.1233923698864507 14.624238768037303 0 1 0
2593 1 10.937825182725161 50.36258952943474 12.741683096790668 0 0 1
600 1 10.41856819783438 0.7944151310412493 14.931172678523108 0 0 0
2554 1 9.884775186439443 5.795670841882796 11.71201321629943 0 0 2
3229 1 7.424923371909147 3.7491615320292304 14.23029829998007 2 1 0
2072 1 6.522488845370475 0.8964928767286238 8.983831898574422 0 0 -1
2509 1 11.826930838713334 3.169661949448931 4.719227088205196 1 0 -1
2230 1 7.489653252227158 4.5899395026287175 11.646960437196345 0 1 0
4283 1 12.590977412962733 8.176026820754256 11.994405034138131 0 2 1
1446 1 0.45766615395163934 10.944658053905867 3.23112708936569 -1 0 0
746 1 16.05911850712657 44.83425556191266 -0.09189086991381157 0 0 0
4548 1 13.763009154993838 6.725968221205678 10.064661282200746 2 0 0
3327 1 14.652355702399511 39.01588710933344 24.359476622394773 0 0 -1
1259 1 9.121790693650786 39.4291758263939 25.02438791555322 0 -1 1
1882 1 15.915886244066826 20.291559878604094 17.9304252393413 1 -1 -1
1332 1 -0.06569910842490242 13.709514703017845 12.488698647505435 -1 1 0
1842 1 1.120383434071955 7.675903279818403 8.160207522838663 1 1 0
1794 1 4.124449581513409 10.286836279572338 10.395244581993133 -1 1 -1
1069 1 14.043558961955968 10.690920357598818 11.504268775750944 -1 0 1
2884 1 14.718746388950489 12.398120185118065 13.41539473905928 1 0 1
2236 1 15.185297804040404 18.39844249451907 0.16171435828825476 -1 0 0
1431 1 2.9237356733107793 12.219637178158182 14.448682271106291 0 1 0
335 1 9.694114635903201 9.528734700520971 6.785498772875572 -1 1 0
3540 1 10.714819443720543 14.29264917480511 12.53685224369524 0 1 -1
369 1 13.134493823244577 14.247876911309536 11.65352973378175 1 1 0
4597 1 6.732667485012764 17.812991728833964 6.309111696624508 2 1 1
3231 1 7.380933341475016 13.56242869452026 9.277041749638821 0 0 0
4038 1 9.466619405410253 12.280216858498324 6.633138815148587 1 1 1
107 1 13.284167238528552 17.596392635222596 9.262674947202418 0 0 -1
3162 1 15.114975713079236 15.666374406698862 9.266262203264626 1 1 0
3868 1 8.262691573167919 18.933492888578588 8.059493530959298 1 0 0
246 1 5.004532302419564 18.900615522329176 13.031663931722473 -1 1 1
4245 1 2.154501254038251 17.841442516471414 11.850566955972868 1 0 2
4318 1 9.014517727662438 17.473975328178785 10.663322080890378 2 0 1
2728 1 10.853512727522991 16.39012939840145 8.650393227265921 1 0 1
263 1 15.180097653090654 27.616767768534395 23.798408656400962 0 0 -1
3853 1 2.8311573394931595 21.487336705089923 9.263916173663613 1 0 1
4159 1 5.726778571871922 22.15240795567902 11.943468598357757 0 1 0
1908 1 5.302824190072397 20.692805314408755 9.733347364411081 0 -1 0
1932 1 11.998962412970235 21.643600722314385 13.422162078256584 1 0 0
1005 1 14.85988430916161 23.66403303214289 10.24736059033673 0 0 0
3281 1 17.03646053261947 28.582320332180473 13.617491348951795 1 1 0
2136 1 9.498798001612625 28.13654327433853 9.722412719915623 0 -1 1
520 1 11.474429940207772 26.419683082086976 11.866202478313161 -1 1 0
1397 1 15.060005174172451 30.047985865161444 9.578941764623705 0 0 1
341 1 2.463521431522552 23.754572286484642 16.820828054139405 1 0 0
3482 1 8.540902009125135 16.08485692028579 25.0401934546382 1 -1 0
1285 1 2.2655340889242903 29.7925025638261 12.888521927860047 0 -1 0
1776 1 4.692167122088549 28.096235356029432 11.476787208834494 1 1 1
3344 1 12.66657789665459 29.54452892050535 8.78750951604361 0 1 0
758 1 12.082139687642524 26.82959584031083 9.172376592881506 1 0 -1
3444 1 15.96683838089325 33.954131238337744 16.53205265326222 1 0 0
794 1 15.664919493674448 3.7393668855973665 24.516953151312855 -1 1 1
3500 1 2.2990422236073407 32.245942046739785 7.429932922081115 1 0 0
4372 1 1.7648081391406958 29.424901329906387 8.976972027192849 0 -1 1
1491 1 5.8592009170042605 28.952505425849534 9.133629867115031 0 1 0
1958 1 10.45239306044937 30.662183501550267 10.827180012964096 1 0 0
1141 1 14.763262743627907 35.01855107436429 9.539041481095504 0 0 1
2192 1 17.026315861132993 16.45186352193512 7.388742197546088 1 0 1
3585 1 5.907269951198774 31.73804800552557 9.958684352699303 1 0 0
1231 1 9.685406586390414 34.08360035334461 10.585751769006384 0 0 0
4463 1 12.422413654635733 35.48128468587757 11.053142046582531 0 1 1
1093 1 16.034280406474654 36.88993649481731 11.312471958598385 0 -1 1
3297 1 3.847999211432527 34.38125533678686 23.07836675920973 1 0 0
2619 1 1.5864861746410406 36.43976119251195 14.051387911888831 0 1 1
411 1 7.118839216832971 33.45089701123338 12.059540107395897 0 -1 0
3911 1 13.736713955890178 36.93577400778672 13.36741388244303 0 0 0
3278 1 3.5954963692819315 47.767340628273864 2.0809979605781272 0 -1 0
1271 1 11.335687775116664 40.9098468416403 10.122752683926063 0 -1 1
4204 1 14.214031225857461 42.26902892325368 12.101736714119465 2 1 0
123 1 15.952612971025832 39.660902544038066 12.062729179368388 0 -1 1
2081 1 5.608711436695988 45.05703901833834 10.640738317772591 1 0 0
1927 1 7.039067843447541 42.38964909409332 9.95253142738115 1 -1 0
4208 1 3.942710143233356 40.391905322012946 12.774617923201003 0 1 1
2132 1 9.640686310355894 42.669998657452346 9.252911099934575 0 0 0
2338 1 12.34311825007146 44.5156878281966 8.678197572507537 0 -1 0
634 1 14.9957717689399 45.35380464104939 9.855246780657051 -1 -2 -1
3223 1 5.638312834257468 47.22958085774519 8.889666408304397 1 -1 0
3256 1 0.5875894937280866 14.365001909208601 8.475034204980306 1 0 0
4371 1 9.84661112525172 45.64084066193883 8.462471709662337 1 -1 1
4399 1 11.303613842363013 47.510958483566974 9.99010159879468 1 0 0
2353 1 1.7867550233103557 46.24187243942721 22.669504706515642 1 0 -1
2310 1 16.246315045644895 43.10609022746808 8.4990600141768 0 0 1
541 1 13.633915924345168 47.566867174367026 8.230190771494438 -1 0 0
751 1 3.9994042970780646 49.05655565801773 11.48767870504492 0 1 0
3835 1 6.109453101322305 50.332181457596405 12.878578047168517 1 -1 0
2089 1 8.9126623745109 50.85932341695487 11.104481962087032 0 0 0
248 1 11.452333332811024 50.062002314166335 8.860408650395659 1 -1 0
931 1 15.281577665959135 50.80448678983878 13.066059062844163 -1 0 2
2974 1 16.053416698959868 50.1395174619075 10.590816360807901 0 -1 0
4081 1 12.035634259340203 50.34637470297893 24.517870206779886 0 0 0
1692 1 0.756190903339016 5.155452410031295 10.466210892895687 0 1 0
1570 1 1.5106134170273509 47.79034221236409 17.582792917800038 0 -1 -1
3673 1 2.464984094907611 1.838436620974624 15.775447450606297 1 1 -1
2260 1 7.845116675371587 1.4199475093782588 16.186917020458722 1 0 0
766 1 12.658660242236975 31.33297862331673 19.1079988069528 0 -1 0
965 1 16.513768581368783 1.430134652632969 14.513613791398846 0 1 0
3831 1 1.3910226292472516 20.239009666403373 11.373273368805616 1 0 -1
4477 1 7.5498130949323885 5.134456926511796 17.21947448735826 0 0 0
1309 1 9.936372571270168 8.43039262066666 12.961535135929434 0 1 0
4194 1 11.499757803989294 3.3019686533743378 12.026024599853422 0 1 0
1331 1 1.6190109233403187 11.502749445972261 24.264691210720187 1 0 1
3893 1 5.503328789533975 6.666153503161956 11.627280339097174 0 1 0
2552 1 6.644938859507056 8.875684041825682 10.187733183744491 0 0 1
4319 1 8.874141717643338 9.328589000141656 15.630330921265454 0 0 1
1639 1 8.631593948480544 10.311501399629167 11.492984489101262 0 0 0
3365 1 15.34971829816636 6.750401974715781 15.72222264527938 2 1 0
1525 1 15.943249267796926 23.928589861685868 13.300206422978231 1 0 0
3969 1 1.5686400951774728 11.211240567743472 11.830981928260364 1 0 0
674 1 4.69353967446357 9.928123535226101 14.923189149434206 -1 0 0
4588 1 10.048362215404206 12.78172622889042 10.142045153618762 2 1 0
1924 1 13.75160549844075 11.350188636356627 15.846120016021139 0 -1 0
327 1 0.1241999451837772 22.59439312463308 5.233954429438944 0 0 0
4314 1 7.5362549396582 14.21674604669275 13.146243970930243 1 -1 -1
790 1 11.740895908076858 13.362213388990774 15.204898002312031 0 0 0
3151 1 13.545449350304262 32.06917815896876 15.131100128458822 0 0 0
381 1 3.408077088457738 16.424697370659224 14.15886613356753 1 1 0
1869 1 1.3792119049280296 14.699286251595204 14.505143805292073 0 0 0
1998 1 6.673020737075718 15.84096050870074 11.13271616421614 2 0 -1
2064 1 10.9326372466008 17.04542282023616 12.891278708103291 0 0 -1
1581 1 13.115089853764179 15.616138961466628 16.421805426881456 1 1 0
4558 1 14.03148100127241 16.371085776527153 13.75994941371234 1 -1 0
2412 1 12.029447044184998 41.35346121922516 21.47349050901179 0 -1 0
3573 1 9.372756668050158 21.729717811776172 12.757746144782722 0 1 0
275 1 12.683306276433306 19.231681224406593 11.847766334791993 0 1 0
110 1 7.898474839190694 19.334030507526162 12.988838420045655 1 1 -1
2629 1 15.02392519938115 19.125345924338376 14.007386613539147 0 0 1
2083 1 2.259294272082391 26.101430534993412 18.434543074324356 0 -1 -1
2141 1 4.738197553033265 23.204623070475275 18.765366747862323 1 0 0
3949 1 9.132698736739846 22.78013714922088 15.278788113171935 2 0 0
2971 1 8.497402845916831 24.741251257552054 8.135948487293845 0 0 -1
1826 1 12.876048054024901 24.504761415881674 13.634897099427592 0 1 0
718 1 11.893719430512038 23.20634945546233 16.25584723277843 0 0 0
1810 1 0.553372610568372 23.517073758402738 12.272496497996771 0 -1 -1
4203 1 3.4532347820988063 24.756788050853736 14.219187677500434 0 0 0
2028 1 3.114728203994004 23.706874031008137 11.36991080684874 1 0 -1
1959 1 8.785373799540094 25.904320043235128 11.641600581180187 0 0 -1