LAMMPS data file via write_data, version 29 Oct 2020, timestep = 100000

8501 atoms
1 atom types

-0.20486471595084765 104.79770122497627 xlo xhi
-0.26809221428596786 51.33781947585974 ylo yhi
-0.26809221428596786 51.33781947585974 zlo zhi

Masses

1 18.015

Atoms # atomic

1610 1 1.1115074342355145 1.7682118480657176 1.5987281955634853 0 1 1
1535 1 7.7879509731716805 1.9641247809710225 1.0462932923547439 0 1 1
1721 1 6.3330748306774405 -0.060531119662869615 -0.17028386880695737 0 1 1
1428 1 9.50058429085481 0.532768465448978 2.8084017519942908 0 1 0
6271 1 0.6804600346848055 4.971001858455622 14.506437982842494 0 1 2
1452 1 14.110534121775208 1.854905436514942 1.3386707537169131 0 1 1
2324 1 20.33635979366931 1.8356026405490353 0.9113975720703607 0 1 1
2764 1 21.75464750389869 0.5469291004806475 2.807425822505946 0 1 0
2256 1 27.33939505706422 2.2637628826173914 1.3054591546298167 0 1 1
2697 1 25.557279079926563 0.6853758118979895 -0.24681841403215066 0 1 1
2216 1 33.34189150090855 1.8055917448631567 0.7330725832033753 0 1 1
1576 1 2.9484884186579277 3.858739635290376 0.19992256977032918 0 0 1
2060 1 4.609392948271195 5.462216356771652 1.4240758089693555 0 0 1
2062 1 17.297901963416056 5.107661081991307 1.3162174184709727 0 0 1
2447 1 19.17874293775801 4.014561884529838 2.5870997854364073 0 0 0
2703 1 23.428586563337948 5.398306243731901 1.047563789529754 0 0 1
2594 1 25.48523096151618 4.005704673548414 2.7633552357943856 0 0 0
2704 1 30.38256747784869 5.530570684796002 0.7232617279512723 0 0 1
2734 1 31.935347941899693 3.802213891301922 2.618968324223693 0 0 0
2063 1 1.4426808800121638 8.450475570344913 1.3787896966866198 0 0 1
2065 1 8.057221939363778 8.42169557293786 1.1100853651840334 0 0 1
1327 1 28.688191144931416 3.775900063092209 25.513774484582882 0 0 0
2061 1 11.099240453903356 5.748213970273449 1.0768089763584852 0 0 1
2067 1 14.022680355562276 8.70199436566379 1.5332226053158458 0 0 1
2154 1 15.664440787649966 7.06924687456334 2.772112676321651 0 0 0
1893 1 18.255204766940416 6.97732478936482 -0.19736271042091066 0 0 1
2705 1 20.277804386892242 8.485408754328777 0.8899794853250849 0 0 1
2751 1 22.012297486035763 6.951735833493769 2.66983525724317 0 0 0
2706 1 27.20404820887303 8.361075015588485 1.1397287214887948 0 0 1
2191 1 28.673114497731483 6.743183459605287 2.5257333334768823 0 0 0
1577 1 6.082504080012246 9.729492481617626 2.805856234213262 0 0 0
2068 1 3.205153139551837 9.845684647451385 -0.17167751994276392 0 0 1
2072 1 10.991946784545606 11.711617454929138 1.5683684886507832 0 0 1
599 1 15.908668876789218 16.35851416332183 25.50132968805972 0 0 0
2073 1 15.530211899793722 10.377660006667936 -0.09855969831793224 0 0 1
2074 1 17.370817790746244 11.782034342341484 1.4669821304765283 0 0 1
2710 1 23.585425168710263 11.436271010390158 1.3672178808133206 0 0 1
2184 1 25.526444747199726 10.016556840451077 2.742008007724474 0 0 0
2711 1 30.217335946639132 11.751948879842065 1.300862518339509 0 0 1
2708 1 33.19858933865995 8.935198087385197 1.2252093771126513 0 0 1
1304 1 21.863693335358032 42.182188859475204 25.508218671052678 0 0 0
2071 1 4.843674375453273 11.868699558042179 1.2616569924536656 0 0 1
6982 1 0.078475431624835 31.956267629577166 20.542994234357828 0 -1 -1
458 1 -0.16879742105985027 45.55969874041001 19.023980813275788 0 0 0
2718 1 22.33734906829573 13.526012258217163 2.6338029756266454 0 0 0
2644 1 25.041828268260502 13.300916955000273 -0.18443178472906713 0 0 1
2757 1 28.495687944850452 13.374445152879925 2.6568159646353964 0 0 0
2077 1 1.6168689049430003 15.036675808475696 1.1559340634176891 0 0 1
2155 1 -0.00638049800861612 16.318845897399793 2.6937556709402792 0 0 0
1439 1 5.973213083855532 16.67840709661282 2.6817285264738855 0 0 0
2078 1 7.424351582424939 14.983441133652981 1.0015378114084894 0 0 1
1991 1 9.66880707893883 16.525789706003206 -0.25429537516534845 0 0 1
2081 1 14.1212019737616 14.944649870978985 1.2087364609543363 0 0 1
2713 1 20.2998455143334 14.827973681388317 1.3370551366850125 0 0 1
2647 1 22.329915354950074 16.645716426176232 -0.21162796467013073 0 0 1
2714 1 26.888789124345625 14.888542894095675 0.8956925623865153 0 0 1
2762 1 25.7600268914361 16.516879650113474 2.705218334985975 0 0 0
2719 1 30.21497198617993 17.8018980426976 1.2987987941043013 0 0 1
2716 1 33.248305867616324 14.894356626742567 1.0207502536208344 0 0 1
2083 1 4.704535276505558 18.298869763212824 1.0673506310517373 0 0 1
2084 1 11.117234473595955 18.55434422897172 1.302346716573127 0 0 1
2087 1 17.286733640183094 17.91534571802852 1.3874829950649794 0 0 1
2147 1 15.960539027672741 19.820119958043044 2.5366272952357956 0 0 0
2308 1 19.101039095237343 19.915404476513363 0.03248335088336668 0 0 1
2717 1 23.787914851279634 18.16981340938318 1.6561972070652566 0 0 1
2723 1 25.35910887397949 19.96232236672447 0.0894500692041621 0 0 1
2756 1 29.33579290851165 19.847510612902223 2.709080710658447 0 0 0
2726 1 31.941560542280783 19.33947675162727 -0.17692468490083718 0 0 1
2089 1 1.850256519032536 21.548134015387934 1.3190473983827875 0 0 1
1469 1 0.1014783526704452 22.99564181176038 2.8059193126201065 0 0 0
2091 1 7.9491772007063854 21.329271317256005 1.2542820143365045 0 0 1
2093 1 14.066274173631658 21.02274578276763 1.1355567072396884 0 0 1
1556 1 12.766923646503768 22.44827690436176 2.7189302782702955 0 0 0
2101 1 15.51518927414095 23.081475282136125 -0.1954929055564315 0 0 1
2722 1 20.83159186848245 21.316214987003967 1.5538700452156742 0 0 1
2658 1 22.330877576057542 22.889938924478404 -0.1720780451844032 0 0 1
2724 1 27.28948496316076 21.358535017382412 1.5760034049275744 0 0 1
2727 1 33.55600774853737 21.185775694791595 1.3989454531481182 0 0 1
2763 1 31.887708324606812 22.986406705795837 2.653585479980312 0 0 0
2097 1 4.534758580799033 24.06643437846536 1.453470303025579 0 0 1
7732 1 0.37472563068712483 12.678073855354517 0.4527458699826523 1 -2 2
2100 1 11.230248694644546 24.395989676468012 1.2950409240277858 0 0 1
2106 1 12.426987303057588 26.318546586313943 -0.20597726546718906 0 0 1
2102 1 17.305845048055005 24.64338733945223 1.142192227960392 0 0 1
2169 1 19.142542360676007 25.960325748287115 -0.020726650016328674 0 0 1
2728 1 23.87161392002748 24.535265998075094 1.3707617628256794 0 0 1
2730 1 30.558906691339068 24.793341399736786 1.1812372511866018 0 0 1
2606 1 28.64872011453441 26.230123051150144 2.727180924934042 0 0 0
2103 1 1.6345935555594235 27.690075099670878 1.2817169749665556 0 0 1
1769 1 -0.0512388763452328 29.334067895104045 2.729018688119767 0 0 0
1485 1 6.1687147712099595 29.306690441876963 2.5357046759458335 0 0 0
2105 1 7.805220343489744 27.54301314557229 1.1671278783654573 0 0 1
2107 1 14.372612362636024 27.657257383960744 1.1638268708245194 0 0 1
2731 1 20.773709908062063 27.541679925156174 1.3963880406300133 0 0 1
2634 1 19.006137433926963 29.289257186113602 2.6621462973275305 0 0 0
2735 1 22.254772736777298 29.378677616740095 -0.016595456347493154 0 0 1
2732 1 27.147569643173924 27.64932897355603 0.9762931840714271 0 0 1
2635 1 25.76680141848528 29.46457809876756 2.5111655472631753 0 0 0
2739 1 33.67041717257811 27.75706803290957 1.27782491155368 0 0 1
2219 1 31.812494958327846 29.20974333574169 2.7287724203049772 0 0 0
1421 1 2.959503614082949 32.853042360916035 2.7991188061170114 0 0 0
1343 1 31.5829540097547 13.057305690585979 25.49000591271888 0 0 0
2110 1 4.645819530453326 31.073734566631554 0.8541464181661644 0 0 1
2111 1 11.041128744912484 30.706171841245506 0.8226197164784765 0 0 1
2148 1 9.433037977617127 32.16929590003646 2.7885612300201696 0 0 0
1550 1 15.70527816617854 32.37648395412084 2.757469015989471 0 0 0
2113 1 17.353991234427706 30.76763166647811 1.2704312425809807 0 0 1
2740 1 23.990409021890983 31.027316497164186 1.1977216660744168 0 0 1
2738 1 30.336282020161107 30.91979603389941 1.0502149681847937 0 0 1
2114 1 1.3293673574645848 33.9638333025904 0.7669008660810612 0 0 1
2079 1 7.970292341420048 34.14277572432265 1.444299303817991 0 0 1
2109 1 14.113504765501427 34.06492669869027 1.146263410770725 0 0 1
559 1 12.371376245900601 48.54289412549393 22.329066038069538 0 0 0
1464 1 18.911203494142995 35.79137216744796 2.5901792704809776 0 0 0
2741 1 20.510017036891583 34.158167542949556 0.9919222037423012 0 0 1
2743 1 26.87475306027867 34.02729840647967 1.1527097525668273 0 0 1
2745 1 33.35590528693062 34.0731881505605 1.1857258167304898 0 0 1
2528 1 31.68221995862678 35.42986484638365 2.597243092400429 0 0 0
2090 1 4.7039700092331875 37.271274717788074 1.4443559520287126 0 0 1
1930 1 10.548335542806688 37.1211830676159 1.335518502310163 0 0 1
2069 1 17.236674950392334 37.316724717499625 1.2722443459875235 0 0 1
2127 1 15.942212522950275 39.0547435025333 2.7439591893395967 0 0 0
2747 1 23.933262044684316 37.080829466372876 0.8726580477118107 0 0 1
2230 1 22.26664642489268 38.929788570903156 2.635235277486724 0 0 0
2748 1 30.234371893769982 37.404202447553416 1.2587391274048798 0 0 1
2005 1 1.425208859507749 40.33977421993848 1.0493433324845634 0 0 1
2132 1 9.151886779107848 39.287362418128836 2.6717282127269284 0 0 0
2076 1 7.643337305452932 40.630949203786855 0.6546434349494898 0 0 1
1886 1 14.130502467864613 40.51132032346119 0.9320378796745155 0 0 1
2746 1 20.422076833176448 40.74119877332406 1.3892097768905136 0 0 1
2750 1 26.931978972079108 40.66110025543409 0.8741869401180804 0 0 1
2761 1 28.606503897409063 39.34630983255049 2.581563674737976 0 0 0
2737 1 33.51876625990386 40.56540240313082 0.9980300085887093 0 0 1
1695 1 2.905636742896721 45.104904549963265 2.7133041333349963 0 0 0
2104 1 4.576556373954506 43.81231013377064 1.226157981765995 0 0 1
1456 1 6.264516025629353 42.175075695213536 2.7691283040170966 0 0 0
2028 1 10.778319169001378 44.23861397809674 1.2654508827639759 0 0 1
1784 1 12.41534725061522 42.35837502073676 2.470375470785042 0 0 0
1969 1 17.510051672494438 44.07269525882124 1.189856558565127 0 0 1
2222 1 19.09602792395848 42.74487036096768 2.652288567965382 0 0 0
5604 1 0.5642046233818242 50.440457192425626 14.091665962350865 0 -2 4
2721 1 23.539233137936343 44.051441657314854 1.126149005643857 0 0 1
2712 1 30.201605253087852 43.79956350970167 1.194929652300957 0 0 1
2753 1 32.10053009343358 42.28762375374515 2.5276729647297222 0 0 0
2108 1 1.230525067287706 46.68237929393737 0.8989268342158712 0 0 1
2036 1 7.754377775449059 47.03245148271367 1.1661356095174542 0 0 1
2156 1 9.372528773109371 46.09940699053361 2.7533070784776754 0 0 0
1857 1 14.017863540129621 47.074186994844 1.1475923073176368 0 0 1
2150 1 15.736021272525557 45.5358101119112 2.756488848292863 0 0 0
2581 1 20.60084989660398 47.43261541279131 1.0171165809547176 0 0 1
2558 1 22.13964020603421 45.81004140052174 2.708253522112617 0 0 0
2548 1 26.755838458307387 47.11844906264585 1.4059956086882257 0 0 1
2517 1 33.37465890957368 46.85853366273099 0.9207872334719769 0 0 1
1708 1 4.3421127315794585 50.014719132727365 1.367817659795974 0 0 1
1688 1 11.088872776011964 50.16875343431626 1.1710947721966845 0 0 1
1678 1 17.199750605988424 50.02407783611716 1.4283365170659514 0 0 1
2421 1 23.464948031187596 50.69743482884667 1.1703381936690684 0 0 1
2170 1 25.173357450276143 49.0035960363237 2.635044153784469 0 0 0
2357 1 29.904509945016027 49.987820938557974 1.1439174142459243 0 0 1
2758 1 32.16913488111928 48.53129155572273 2.415057059122993 0 0 0
747 1 2.882797486546874 0.051748254408513994 3.5455291458261295 0 1 0
93 1 4.446180691591291 1.6274508249470894 5.161200602695297 0 1 0
94 1 11.140472272626786 1.9624445605762917 4.879060079156418 0 1 0
757 1 15.868423925723874 0.6152218398058904 3.518483870063164 0 1 0
95 1 17.84569874612923 2.159127137038552 4.779183780326702 0 1 0
849 1 23.735174713728046 1.8919625207623847 4.788375004511936 0 1 0
1382 1 28.39004004868806 0.10801845524006515 3.271644059965804 0 1 0
850 1 30.277926589039055 1.706807349557178 4.882846830887865 0 1 0
1 1 1.1737410836908675 5.395208802358538 4.919748938828926 0 0 0
25 1 6.334094757645822 3.035772814782618 3.4024556769388656 0 0 0
4 1 7.770632625322526 4.8953124529515515 5.139721726113294 0 0 0
43 1 12.787979950594774 4.127441353876961 3.249328192536068 0 0 0
6 1 14.539984629266696 5.404199308349754 4.997810547572329 0 0 0
775 1 20.939584061994633 5.447597307973547 4.850599506167115 0 0 0
777 1 27.32647916588772 5.198085697194461 4.82084058700136 0 0 0
778 1 33.63798465347415 5.678969172912947 4.561457381089155 0 0 0
3 1 -0.1771598199040746 39.125690488426386 6.29345419436635 0 0 0
12 1 3.1170257523229927 6.7161689349715346 3.73245935856802 0 0 0
8 1 4.658950455534152 8.46563688133983 4.989699852447491 0 0 0
488 1 9.155714561576046 6.687032859883389 3.4471360550361774 0 0 0
10 1 10.668902595468918 8.335264289852027 4.935894875873586 0 0 0
11 1 17.446570045845483 8.490992471300896 4.836404016013161 0 0 0
779 1 23.91026707482246 8.411786256224156 4.76370886526677 0 0 0
782 1 30.056076619991547 8.214411816414573 4.81515358215575 0 0 0
360 1 -0.1264897922724812 9.846871119278143 3.574019719138946 0 0 0
13 1 1.423451769337228 11.531322815635772 5.294104816447705 0 0 0
14 1 7.945462747757009 11.408588933931924 4.35823730101564 0 0 0
284 1 12.370826712828753 10.143753251418183 3.700282443281959 0 0 0
761 1 18.843712366200307 10.353380524142016 3.471878475110313 0 0 0
785 1 26.936932695341376 11.683044852255906 4.78053781941322 0 0 0
788 1 31.567526661677512 10.32011870079854 3.463617773064599 0 0 0
787 1 33.472730385863045 11.68815828371932 5.004371182507328 0 0 0
750 1 2.7331445782410735 13.335200100030956 3.283726523901856 0 0 0
1184 1 34.7763892630537 10.01494882305526 19.318338148651982 0 0 0
18 1 4.87303416085907 14.562181042385273 4.581292320834065 0 0 0
751 1 9.231398754010739 13.600344526914961 3.416010834673535 0 0 0
16 1 14.217883423839915 11.801096962243795 4.9796757530079905 0 0 0
38 1 15.879851151448115 13.350400368960765 3.4102345052322587 0 0 0
22 1 17.381388988950416 14.703561294577227 5.200959525294613 0 0 0
784 1 20.972725526805387 11.799152481236495 4.684576907954387 0 0 0
326 1 12.492699671923383 16.694467335413027 3.301468662699073 0 0 0
20 1 10.945989629085709 14.85926840857491 5.159291374817382 0 0 0
452 1 18.68527487322407 16.22828559294557 3.3484270459286507 0 0 0
789 1 24.031547456937005 15.311129404796274 4.7081630763401785 0 0 0
791 1 30.060699906180893 14.969520191140846 4.97487772151967 0 0 0
817 1 32.079197584693134 16.28846255542932 3.3623605060804405 0 0 0
24 1 1.5938585513364405 18.13190144263263 4.9126973253903925 0 0 0
650 1 3.273868667591983 19.623204755352397 3.270117261651003 0 0 0
28 1 7.917407866666837 18.11394891124103 4.922714244559272 0 0 0
759 1 9.477859572971013 19.788647852537377 3.4163608564398387 0 0 0
32 1 11.27695011779532 20.808719171757584 4.9880001166729135 0 0 0
29 1 14.315060344487145 18.068493002284303 4.814067967350691 0 0 0
792 1 20.28418136850167 18.129946649411163 4.688237893834215 0 0 0
816 1 22.22614849569307 19.87919034500076 3.823208997713876 0 0 0
794 1 27.257664060891457 18.444927824523013 4.6540102112342 0 0 0
795 1 33.7258728359562 18.16479472214039 4.928855631981954 0 0 0
31 1 4.928334006820553 21.25190405344102 5.092251647918344 0 0 0
270 1 6.600539268300836 22.643004961639473 3.569855541074306 0 0 0
34 1 17.22788226626051 21.406226764175354 4.862251263766357 0 0 0
746 1 18.96935395032215 22.955678914660904 3.3001696463892665 0 0 0
798 1 23.82436860763739 21.40915779594559 5.2688827581485445 0 0 0
1177 1 25.296842306459812 22.934882492402267 3.628810874359544 0 0 0
800 1 30.27792861740713 21.507795284649116 5.014059504773641 0 0 0
36 1 1.4503239559525618 24.34310853658161 4.986600635100012 0 0 0
107 1 3.3367498951816676 26.114004208236395 3.369466714227678 0 0 0
37 1 8.105239705386085 24.479546447622944 5.0219283834131385 0 0 0
310 1 9.51808146786787 25.913258827051223 3.28080233764337 0 0 0
39 1 14.133645663923593 24.386721191044263 4.702331581785576 0 0 0
480 1 15.97938889827283 26.313756092504228 3.4675485374171315 0 0 0
803 1 20.4244371700687 24.425929858655742 5.2848143868128385 0 0 0
802 1 22.350398874919335 26.12150555127107 3.694211061397126 0 0 0
808 1 27.08007627717754 24.551643472119686 4.881247734745 0 0 0
812 1 33.26582360586411 24.85971143494179 4.707731807659349 0 0 0
40 1 5.0161185219901725 27.87140049160062 5.378805477406452 0 0 0
42 1 11.033172715208641 27.637487529048148 4.84187728957428 0 0 0
760 1 12.537768531186567 29.20915163596656 3.359939154080758 0 0 0
48 1 17.395834896585505 28.06539841578314 4.94801062520457 0 0 0
814 1 24.183586382506316 27.994738299355586 5.027718719476594 0 0 0
810 1 30.28485526423226 27.9937679135555 4.7681956371020435 0 0 0
44 1 1.7337500364497902 30.913750443306736 4.625470594119928 0 0 0
45 1 7.874383593256487 30.709966050102945 4.810968382829262 0 0 0
52 1 14.193206716722772 30.84339711524167 4.981352666371762 0 0 0
818 1 20.585111091850198 31.029420208430096 4.777869029475885 0 0 0
1372 1 22.431529325027576 32.624327390376024 3.28302078506016 0 0 0
820 1 26.920884365894068 31.206296148118028 4.802444977055927 0 0 0
1379 1 28.74289486067569 32.570398988754576 3.2902565720121904 0 0 0
822 1 33.52052081975276 30.735352107668362 4.8393385271106 0 0 0
660 1 7.832738019540576 50.08181181172091 24.180199801384457 0 0 0
50 1 4.816166396647691 34.2088289661794 4.662631894038634 0 0 0
758 1 6.4629446518482245 35.92131779733586 3.2795439499735117 0 0 0
752 1 12.494093100102281 35.745949891415876 3.2796123341025285 0 0 0
55 1 11.098742666500215 34.006336961128255 4.667540427265186 0 0 0
58 1 17.110706460155303 34.341499722251214 4.797594779506387 0 0 0
824 1 23.50379987622638 34.58945340811212 4.570837513271518 0 0 0
1376 1 25.62460605264168 35.80721343970579 3.339118419586751 0 0 0
826 1 30.002265991149955 34.20917225296769 5.061409456812126 0 0 0
59 1 1.0334133524356846 37.162319143610645 4.731387368702287 0 0 0
2 1 2.9989930193997183 38.6915438214058 3.509064154388982 0 0 0
60 1 8.059359840131796 37.68442115606686 4.717840384591654 0 0 0
63 1 14.19075171652675 37.37984093220588 4.58943095093703 0 0 0
827 1 20.476275642628245 37.694702901117026 4.50595271920318 0 0 0
828 1 27.147590795057592 37.53612489468861 4.717988064726699 0 0 0
830 1 33.14435774214641 37.12731753908011 4.712020971707135 0 0 0
6754 1 0.01086402539696349 12.889210382950976 7.131004219956992 1 -3 2
66 1 4.866834539238478 40.55097438462634 5.025206127153907 0 0 0
62 1 12.444334197809098 39.158668560707156 5.903017813355895 0 0 0
70 1 10.953656674824853 40.6909703981152 4.452046035126397 0 0 0
72 1 17.408855868022446 41.064176177944546 4.702858477690911 0 0 0
813 1 19.026879051470555 39.49259973664837 5.999428021151869 0 0 0
834 1 23.706712314300308 40.50571796135122 4.923901141950657 0 0 0
836 1 30.098874496989843 40.93887152189707 4.818182573861063 0 0 0
73 1 1.693713808982838 43.05808606536455 4.651619841084444 0 0 0
15 1 0.15771801798599427 44.97456268986666 5.8825420569483144 0 0 0
76 1 7.7395972453721145 44.052905740844935 4.474467725183953 0 0 0
78 1 14.141759426789266 43.710219544381644 4.53590574621428 0 0 0
837 1 20.667304785737635 44.2212936494672 4.736042796224368 0 0 0
1380 1 25.283238842287876 42.33247252395766 3.3566936268888092 0 0 0
838 1 26.638424388596974 43.94613855854675 4.778523683524929 0 0 0
839 1 33.5030920952504 44.00753499520225 4.575374826301483 0 0 0
81 1 4.518673634317809 46.952807274604496 4.643574561580979 0 0 0
82 1 10.886389791004554 47.426208152618585 4.961505744913608 0 0 0
85 1 17.29948431950876 47.16751922597247 4.904351713015702 0 0 0
841 1 23.688942586094985 47.454463248402945 4.837752133327697 0 0 0
1375 1 28.399519982713823 45.60431105953447 3.4154538823860316 0 0 0
843 1 30.376395053283538 46.92635882651008 4.753365128328638 0 0 0
86 1 0.8870925635005873 50.05040293212119 4.967002055284537 0 0 0
5 1 6.340518480103547 48.56977019276739 3.2553444588460017 0 0 0
88 1 7.973594573677007 50.43178712018141 4.910366149554067 0 0 0
35 1 12.834501175569887 48.79255282873504 3.3095129970853705 0 0 0
90 1 14.652230793077598 50.57146822696852 5.081666773889232 0 0 0
765 1 18.840878273258358 48.40425527988022 3.2587174909296426 0 0 0
844 1 20.513251317885604 50.37938590261588 4.799920968011814 0 0 0
846 1 27.005447572775754 50.01813295702908 4.879722667770737 0 0 0
847 1 33.20677039963273 50.17381829905382 4.698506945979029 0 0 0
188 1 1.2819506546596493 1.781215839218738 8.088553214830606 0 1 0
182 1 6.247108983515088 0.08748629284635517 6.5101692552618 0 1 0
189 1 7.764156203628681 1.5027655847962478 8.09857340915346 0 1 0
91 1 12.870133844147917 0.24722143878029923 6.449985753930176 0 1 0
191 1 14.228824132377857 1.851573502287457 7.892376228317957 0 1 0
851 1 19.324427363918286 0.547192511826752 6.352782534887762 0 1 0
932 1 20.826799294391428 1.926225991976679 8.047128320231993 0 1 0
926 1 25.31124661041577 0.2276652054485354 6.227031321101345 0 1 0
933 1 27.288330402242753 1.344609634942508 8.018920342613072 0 1 0
931 1 31.746269126324762 0.03125110662235481 6.375495593666076 0 1 0
935 1 33.543498472340936 1.6434947853967952 7.912470940298892 0 1 0
187 1 2.8404564041180356 3.758671491809382 6.410654102391121 0 0 0
96 1 4.403050652748705 5.06841676127107 8.173522976443941 0 0 0
97 1 9.403970280733779 3.233738415768942 7.01466897210255 0 0 0
98 1 11.026184873438444 5.636126982746419 7.944667559397619 0 0 0
7 1 16.09640444963388 3.7534790629382577 6.4481983433693975 0 0 0
100 1 17.338540234168388 5.247188151154835 8.16903053568323 0 0 0
848 1 22.52214593569821 3.7900614180853314 6.43430563166338 0 0 0
852 1 24.259729717448092 5.174313525953372 7.812440514158395 0 0 0
939 1 25.543880952427184 3.024722539476452 9.32833953466245 0 0 0
934 1 28.694774348157697 3.221537588791765 6.727864838510053 0 0 0
853 1 30.9681288601723 4.931818496445392 7.872192690937245 0 0 0
101 1 1.1495523298046202 8.129578368935658 8.478558985615528 0 0 0
102 1 6.333642930234704 6.406279181355151 6.595937530481587 0 0 0
103 1 7.39654934653421 8.371200699352404 8.10797865721892 0 0 0
104 1 12.750319976066189 6.746708294953469 6.3843100692133135 0 0 0
105 1 14.292336331506174 8.575464367885978 8.154191739790027 0 0 0
796 1 19.05765724811129 6.784363018275631 6.642068679715554 0 0 0
856 1 25.887949718646905 6.782261794252789 6.451871693792253 0 0 0
857 1 27.599745196560455 8.419066192802726 7.9807049946017035 0 0 0
858 1 31.87724902597826 7.109412002702052 6.4601942215146595 0 0 0
859 1 33.60547018276278 8.51432352302119 7.958456648992499 0 0 0
106 1 3.099417270001667 9.576376313573657 6.875544247314446 0 0 0
108 1 4.508570027728446 11.617010451108555 8.067603029122942 0 0 0
110 1 9.027785994971211 9.810918868285915 6.471756675001298 0 0 0
111 1 11.043500505273885 11.48494700367781 8.199380698733119 0 0 0
17 1 16.05860345909689 10.173862245027422 6.410441998075256 0 0 0
855 1 20.675500804245946 8.883348440857947 8.120066930430921 0 0 0
860 1 22.520728151618595 10.145805097247568 6.331513509943203 0 0 0
947 1 25.59582166124574 10.128860568878201 9.17083785243201 0 0 0
862 1 28.916773847405914 10.415373734787755 6.353494791062436 0 0 0
863 1 30.59739308236734 11.726307579994307 7.978636584434492 0 0 0
652 1 6.105292134992868 48.518280704978125 22.418088637140666 0 0 0
116 1 6.305146749169746 12.921369921631984 6.304399325380385 0 0 0
117 1 7.8451532381964295 14.473317396538723 8.104079258916766 0 0 0
21 1 12.384218615609914 13.38690840962339 6.670794641860842 0 0 0
113 1 17.63666049543064 11.832694507066932 8.179868390744057 0 0 0
845 1 19.19094346218027 13.376950216905819 6.526692662432826 0 0 0
790 1 25.190231347028792 13.492617760615696 6.282866161384513 0 0 0
861 1 23.86102552370793 11.839374794440207 8.04716907508006 0 0 0
868 1 28.554410236749124 13.225380797190569 9.113337198417133 0 0 0
869 1 31.839726609048263 13.386239990624048 6.452938830683183 0 0 0
115 1 1.4203280327599728 14.83454680633493 7.928078641004642 0 0 0
26 1 3.0638396609617535 16.351049409085807 6.440625913340129 0 0 0
120 1 9.43532556430331 16.403805597386334 6.7477457956462485 0 0 0
118 1 13.99332807450566 14.995824162666356 8.360615124898892 0 0 0
122 1 15.627350531175681 16.351225065414326 6.591414181390792 0 0 0
123 1 17.542098983252338 17.854413920679242 8.001304472321484 0 0 0
865 1 20.868377078860252 14.991141011398819 8.291319674811248 0 0 0
793 1 22.371165209829524 16.6557986594644 6.427549465631014 0 0 0
867 1 26.936650685365723 15.060316251862433 7.883832363096532 0 0 0
874 1 25.356454560301867 16.822730556893095 9.04197034830136 0 0 0
875 1 28.566921995316044 16.61859157683139 6.319027855790248 0 0 0
870 1 33.33361599138279 15.125866068112861 7.98893842054853 0 0 0
57 1 0.1554521659946736 19.732294972463404 6.628060211603649 0 0 0
119 1 4.680528662713705 18.14266520249111 7.81518573466904 0 0 0
125 1 6.475680529315429 19.76945626066906 6.530347575875888 0 0 0
121 1 11.012108914828051 18.44022988910837 8.302951321193863 0 0 0
127 1 12.953196157522772 19.67125178827039 6.853229084442627 0 0 0
527 1 18.823804002555182 19.868674335613044 6.458205921136473 0 0 0
873 1 23.903799618731487 18.65504505633979 7.9488825685147155 0 0 0
799 1 25.901609277684262 20.024455727841985 6.352051961513956 0 0 0
876 1 30.277700970758563 18.212579516439718 8.124636912533152 0 0 0
801 1 32.208705869251425 19.837201474502244 6.349037970993973 0 0 0
124 1 2.0884400016008406 21.30299914886998 8.028926490497795 0 0 0
549 1 0.2910303928489619 22.9799892505561 9.344283462685931 0 0 0
129 1 3.3657427246981877 23.01952584752105 6.660997410140355 0 0 0
126 1 8.150255253154208 21.48189712233078 8.059676948015543 0 0 0
131 1 9.886257829783105 22.422388413571205 6.454451892680689 0 0 0
128 1 14.42412082731079 21.375370840784782 8.326382957456797 0 0 0
134 1 15.72087100002216 22.942610874421888 6.487848579703476 0 0 0
878 1 20.56187005990002 21.441889845719846 8.15774646260676 0 0 0
882 1 22.362021379372397 23.04489177725244 6.847346998295923 0 0 0
880 1 27.17874203680939 21.53497356391603 8.177067484256975 0 0 0
805 1 28.56232079712259 23.140389502026405 6.646981435753157 0 0 0
886 1 33.585380734165824 21.403895482252732 7.76414123209862 0 0 0
19 1 -0.13612994033252485 26.3601451519251 6.325240379906853 0 0 0
130 1 4.88603695269612 24.85571701802093 8.4318134900562 0 0 0
138 1 6.712718054614409 26.04327007088153 6.7823438144583355 0 0 0
132 1 10.930040158655686 24.551547504820558 8.466127756334512 0 0 0
139 1 12.687650748212045 26.05497726089494 6.461359719778643 0 0 0
135 1 17.5313619437696 24.564797609712166 8.238641497266189 0 0 0
764 1 18.99603970540193 26.444012301361205 6.823096610253394 0 0 0
889 1 24.248122353958852 24.76709089102596 8.058547554568417 0 0 0
809 1 25.638053086078063 26.152811745887536 6.336373863144685 0 0 0
811 1 31.607308850926433 26.281316566522587 6.462884252732462 0 0 0
884 1 30.25357652666521 24.52264184872704 8.388608070358446 0 0 0
136 1 1.4523988664249012 28.161777324858814 7.785069838180467 0 0 0
141 1 3.3006945374890293 29.711761941906467 6.418561346844444 0 0 0
142 1 8.037988631396024 27.628679841347058 8.307357480712719 0 0 0
46 1 9.725321020013384 29.22224292741902 6.60639416893672 0 0 0
144 1 15.68017529186464 29.224940499814284 6.833111138280285 0 0 0
145 1 14.191751419922447 27.649221904586742 8.493316848053432 0 0 0
888 1 20.80954511846734 27.516560620072372 8.17542865350776 0 0 0
892 1 22.133496120029694 29.12027536857601 6.423605551352889 0 0 0
893 1 27.051655254519524 27.845221934794683 7.761700081565092 0 0 0
815 1 28.577539491375294 29.576679340268775 6.3119511668553265 0 0 0
895 1 33.26667790917283 27.471109459756985 8.145005147811434 0 0 0
731 1 6.223226695239589 39.197476472844656 25.52486545880539 0 0 0
148 1 4.84141501441489 31.355212622300606 7.930546463658947 0 0 0
149 1 3.0428023238100246 32.554239409953354 9.301323563386482 0 0 0
150 1 6.561496078446478 32.865618023944165 6.250363441759083 0 0 0
143 1 11.410127348131383 30.993234034507072 7.927683543703289 0 0 0
51 1 12.89110479343176 32.60606899168502 6.359585470376686 0 0 0
740 1 18.802369911921737 32.62675694756078 6.27451451277987 0 0 0
153 1 17.49282651594234 30.971491326243335 7.9404847774501075 0 0 0
978 1 22.072336519376165 32.659370087430034 9.35245857805386 0 0 0
897 1 23.946395157753663 30.98094433276224 8.078158285712277 0 0 0
898 1 30.28855856568977 30.76625974245349 8.149269435223424 0 0 0
899 1 31.69173514333911 32.310145908023 6.345297525258702 0 0 0
53 1 2.825145721616846 35.9469135889794 6.511410454470061 0 0 0
147 1 1.2973143349964469 34.249089396273604 8.230685646504485 0 0 0
156 1 8.266232775649408 34.20363288219703 8.039366376492078 0 0 0
56 1 9.624091214319098 35.89976631769082 6.372748692401676 0 0 0
152 1 14.045814507578731 34.39902214105939 8.247805048537355 0 0 0
158 1 15.757526476351794 35.881681237023386 6.560253299719177 0 0 0
823 1 21.765071576323386 36.06257542012882 6.364847868247265 0 0 0
900 1 20.133146397723156 34.271675453887966 7.922621299175704 0 0 0
896 1 25.29211252018671 33.09331513756442 6.351626215156329 0 0 0
903 1 26.644126933000134 34.610405877857616 8.387628502863977 0 0 0
904 1 28.500672016117083 35.69026661860596 6.537209125359238 0 0 0
905 1 33.62167459385633 34.34099441417078 7.9820141623129555 0 0 0
159 1 4.299281508566301 37.35413154154263 8.32447185239684 0 0 0
160 1 6.135381390397404 38.63419804808969 6.579772035115223 0 0 0
161 1 11.19338878916569 37.76390753134784 7.8987878377422245 0 0 0
164 1 17.52760628930675 37.796708857343006 7.660907624148464 0 0 0
906 1 23.895972265251206 37.52247109812045 7.954281720760932 0 0 0
829 1 25.530436198513005 38.976155512373225 6.172165970953615 0 0 0
988 1 28.290082961098836 38.72068569423077 9.255936925506296 0 0 0
908 1 30.280167697446576 37.30006404884142 7.786996738779846 0 0 0
831 1 31.850372374616647 38.920009003048065 6.26675231897597 0 0 0
165 1 0.910293891054768 40.72526683630059 7.9603895420409305 0 0 0
708 1 15.714642268455595 23.092996750533523 25.497744217411306 0 0 0
67 1 3.3074274964107775 41.80339735438149 6.479212386514108 0 0 0
166 1 8.043107465651035 40.8236289694709 7.690118933291044 0 0 0
167 1 13.940750969834722 40.99733746488664 7.473959783191529 0 0 0