
# Import phase coexistance setup
#
read_data           data.coexist_${TEMP}K_${PRES}atm_ML
read_data           data.coexist_298K_${PRES}atm_ML
read_data           data.coexist_298K_-1000atm_ML
Reading data file ...
  orthogonal box = (-0.20486472 -0.26809221 -0.26809221) to (104.79770 51.337819 51.337819)
  3 by 1 by 2 MPI processor grid
  reading atoms ...
  8501 atoms
  reading velocities ...
  8501 velocities
  read_data CPU = 0.036 seconds

# Define potential
#
pair_style 	    sw
pair_coeff	    * * /data/emrosky-sim/Freezing_Simulations/Melting/MLmW_fancy/ML_mW.sw mW
Reading sw potential file /data/emrosky-sim/Freezing_Simulations/Melting/MLmW_fancy/ML_mW.sw with DATE: 2019-02-27

# Reset velocity/set timestep
#
velocity	    all create ${TEMP} 120598 rot yes dist gaussian
velocity	    all create 298 120598 rot yes dist gaussian
timestep	    10.0

# Define output
#
compute	            1 all msd
compute             2 all orientorder/atom nnn NULL degrees 2 4 12
thermo              1000
thermo_style        custom step temp press vol etotal ke pe c_1[4]

# Neighbor lists
#
neigh_modify        delay 0 every 1 check yes

# Set fixes
#
fix                 1 all momentum 10 linear 1 1 1 rescale
fix                 2 all nph iso ${PRES} ${PRES} ${PCOUPL}
fix                 2 all nph iso -1000 ${PRES} ${PCOUPL}
fix                 2 all nph iso -1000 -1000 ${PCOUPL}
fix                 2 all nph iso -1000 -1000 10000.0
fix                 3 all temp/csvr ${TEMP} ${TEMP} ${TCOUPL} 837492
fix                 3 all temp/csvr 298 ${TEMP} ${TCOUPL} 837492
fix                 3 all temp/csvr 298 298 ${TCOUPL} 837492
fix                 3 all temp/csvr 298 298 5000.0 837492

# Run very short equilibration
#
dump		    1 all atom 50 eq.${NAME}.dump
dump		    1 all atom 50 eq.melt_298K_-1000atm_ML.dump
run	            500
Neighbor list info ...
  update every 1 steps, delay 0 steps, check yes
  max neighbors/atom: 2000, page size: 100000
  master list distance cutoff = 6.0032907
  ghost atom cutoff = 6.0032907
  binsize = 3.0016454, bins = 35 18 18
  2 neighbor lists, perpetual/occasional/extra = 1 1 0
  (1) pair sw, perpetual
      attributes: full, newton on
      pair build: full/bin/atomonly
      stencil: full/bin/3d
      bin: standard
  (2) compute orientorder/atom, occasional, copy from (1)
      attributes: full, newton on
      pair build: copy
      stencil: none
      bin: none
Per MPI rank memory allocation (min/avg/max) = 4.593 | 4.595 | 4.598 Mbytes
Step Temp Press Volume TotEng KinEng PotEng c_1[4] 
       0          298   -1138.9285     279639.7   -75131.923    7550.3919   -82682.315            0 
     500    345.84286   -687.76167     273846.3   -76959.701     8762.581   -85722.282     15.52101 
Loop time of 1.14398 on 6 procs for 500 steps with 8501 atoms

Performance: 377.627 ns/day, 0.064 hours/ns, 437.069 timesteps/s
99.2% CPU use with 6 MPI tasks x no OpenMP threads

MPI task timing breakdown:
Section |  min time  |  avg time  |  max time  |%varavg| %total
---------------------------------------------------------------
Pair    | 0.39526    | 0.63371    | 0.90546    |  25.7 | 55.39
Neigh   | 0.12953    | 0.14844    | 0.16992    |   3.8 | 12.98
Comm    | 0.03168    | 0.32497    | 0.58199    |  38.3 | 28.41
Output  | 0.0078007  | 0.0083554  | 0.0088883  |   0.4 |  0.73
Modify  | 0.023004   | 0.023602   | 0.024073   |   0.2 |  2.06
Other   |            | 0.00491    |            |       |  0.43

Nlocal:        1416.83 ave        1444 max        1386 min
Histogram: 1 0 0 2 0 0 1 1 0 1
Nghost:        2021.17 ave        2047 max        1984 min
Histogram: 1 0 0 2 0 0 0 0 1 2
Neighs:        0.00000 ave           0 max           0 min
Histogram: 6 0 0 0 0 0 0 0 0 0
FullNghs:      39480.7 ave       40415 max       38132 min
Histogram: 1 0 0 1 0 1 0 1 1 1

Total # of neighbors = 236884
Ave neighs/atom = 27.865428
Neighbor list builds = 84
Dangerous builds = 0

reset_timestep      0
undump              1
unfix               2
unfix               3


################################################
#######         Run Simulation         #########
################################################

log                 log.run_${NAME}
log                 log.run_melt_298K_-1000atm_ML
