
# Define the lattice
#
variable	    lattice_constant equal 6.36339
lattice		    diamond ${lattice_constant}
lattice		    diamond 6.36339
Lattice spacing in x,y,z = 6.3633900 6.3633900 6.3633900

# Define region
# multiples of lattice spacing
#
region 		    simbox block 0 9 0 8 0 8

# Create Atoms
#
create_box          1 simbox
Created orthogonal box = (0.0000000 0.0000000 0.0000000) to (57.270510 50.907120 50.907120)
  3 by 1 by 2 MPI processor grid
create_atoms        1 box
Created 4608 atoms
  create_atoms CPU = 0.001 seconds
mass                1 18.015

# Define potential
#
pair_style          sw
pair_coeff          * * /data/emrosky-sim/Freezing_Simulations/Melting/MLmW_fancy/ML_mW.sw mW
Reading sw potential file /data/emrosky-sim/Freezing_Simulations/Melting/MLmW_fancy/ML_mW.sw with DATE: 2019-02-27

# Add velocity/set timestep
#
velocity            all create ${TEMP} 120598 rot yes dist gaussian
velocity            all create 298 120598 rot yes dist gaussian
timestep            5.0

# Define output
#
compute	            1 all msd
thermo              100
thermo_style        custom step temp press vol etotal ke pe c_1[4]

# Neighbor lists
#
neigh_modify        delay 0 every 1 check yes

# Set fixes
#
fix                 1 all momentum 10 linear 1 1 1 rescale
fix                 2 all nve
fix                 3 all temp/csvr ${TEMP} ${TEMP} 500.0 928347
fix                 3 all temp/csvr 298 ${TEMP} 500.0 928347
fix                 3 all temp/csvr 298 298 500.0 928347
fix                 4 all press/berendsen iso ${PRES} ${PRES} 1000.0 modulus 20000
fix                 4 all press/berendsen iso -1000 ${PRES} 1000.0 modulus 20000
fix                 4 all press/berendsen iso -1000 -1000 1000.0 modulus 20000

# Run 0.5 ns equilibration
#
dump		    1 all custom 1000 eq.${NAME}.dump id type x y z vx vy vz
dump		    1 all custom 1000 eq.ice_298K_-1000atm_ML.dump id type x y z vx vy vz
run                 100000
Neighbor list info ...
  update every 1 steps, delay 0 steps, check yes
  max neighbors/atom: 2000, page size: 100000
  master list distance cutoff = 6.0032907
  ghost atom cutoff = 6.0032907
  binsize = 3.0016454, bins = 20 17 17
  1 neighbor lists, perpetual/occasional/extra = 1 0 0
  (1) pair sw, perpetual
      attributes: full, newton on
      pair build: full/bin/atomonly
      stencil: full/bin/3d
      bin: standard
Per MPI rank memory allocation (min/avg/max) = 4.779 | 4.779 | 4.779 Mbytes
Step Temp Press Volume TotEng KinEng PotEng c_1[4] 
       0          298   -601.87744    148418.52   -51804.872    4092.3124   -55897.184            0 
     100    199.26552   -836.05413    149006.21   -50122.051    2736.4321   -52858.483   0.10013889 
     200    230.29348   -906.40811    149377.02   -49126.689    3162.5264   -52289.215   0.11072755 
     300     253.5336   -956.99796    149595.48   -48494.795    3481.6735   -51976.469    0.1396671 
     400    268.42762   -972.59893     149745.1   -48076.091    3686.2069   -51762.298   0.14322236 
     500    284.01018   -947.18587    149849.11   -47780.837    3900.1959   -51681.033   0.13984048 
     600    291.86455   -950.76176    149933.39    -47499.24    4008.0568   -51507.297   0.15855989 
     700    295.67262   -1015.5204    150000.78   -47449.527    4060.3515   -51509.878   0.14449138 
     800    293.04718   -1023.6863    150015.05   -47351.021    4024.2974   -51375.318   0.15948869 
     900    300.76037   -1006.3249    150011.25   -47327.676    4130.2194   -51457.895   0.16169514 
    1000    292.19325    -1006.239    149987.13    -47376.87    4012.5706    -51389.44   0.15309903 
    1100    296.48058   -1000.3186    150016.01   -47319.084    4071.4469   -51390.531   0.14912349 
    1200    293.16712   -991.92579    150028.15    -47308.69    4025.9445   -51334.634   0.16065594 
    1300    293.87651   -1036.6285    150018.19   -47226.935    4035.6861   -51262.621   0.15979357 
    1400    296.89798   -989.96327       150036   -47331.143    4077.1788   -51408.322   0.15309062 
    1500    292.34385   -1021.5043    149991.71   -47356.488    4014.6387   -51371.126   0.15457814 
    1600     302.1988   -978.72206    149991.63   -47293.824    4149.9728   -51443.796   0.15820302 
    1700     296.5674   -969.89113    149988.48   -47317.735    4072.6391   -51390.374   0.15421047 
    1800    299.67009   -997.02058    149959.97   -47308.238    4115.2471   -51423.485   0.16141803 
    1900    301.15293   -1014.6482    150000.87   -47219.914    4135.6103   -51355.524   0.15993954 
    2000    303.84575   -1026.7797    150040.32   -47168.741    4172.5897   -51341.331   0.15143966 
    2100    296.35704    -1009.405    150006.72   -47333.592    4069.7503   -51403.342   0.16068413 
    2200    296.94076   -953.74499    150016.26   -47259.433    4077.7662   -51337.199    0.1454679 
    2300    301.24551    -991.9144    150030.12    -47195.33    4136.8816   -51332.211   0.16658295 
    2400    303.16543   -1000.2001    150036.82   -47222.366    4163.2471   -51385.614   0.15672119 
    2500    303.11924    -1006.391     150025.8   -47273.803    4162.6128   -51436.416   0.14662115 
    2600    302.13537   -1043.4091    150021.97   -47309.158    4149.1018    -51458.26   0.16122688 
    2700    301.41324   -970.23534    150005.68   -47279.439     4139.185   -51418.624   0.14293561 
    2800    302.95729   -973.72414    150015.25   -47176.229    4160.3889   -51336.618   0.16288802 
    2900    299.63736    -992.0532    150058.22   -47204.764    4114.7976   -51319.562    0.1600945 
    3000    300.65708   -988.66299    150007.65   -47260.654    4128.8009   -51389.455   0.16172161 
    3100    297.59349   -995.13942    150037.82   -47233.739      4086.73   -51320.469   0.15617238 
    3200    297.52843    -1009.045    150000.75   -47347.924    4085.8365    -51433.76   0.15630796 
    3300    300.30497   -955.77224    149966.62   -47410.668    4123.9655   -51534.634     0.139627 
    3400    298.19078   -1033.1919    149961.18    -47344.13    4094.9322   -51439.062   0.15752308 
    3500    300.24676   -1029.1039    149968.18   -47304.662    4123.1662   -51427.829   0.16046221 
    3600    298.60157   -1039.2533    149966.35   -47311.154    4100.5735   -51411.727   0.15916374 
    3700    297.80152   -983.95905     149970.1   -47270.005    4089.5867   -51359.591   0.15876037 
    3800    293.65659   -1028.6963    149997.14   -47265.967    4032.6661   -51298.633   0.16392981 
    3900     295.7839   -1008.7905    150003.74   -47267.642    4061.8796   -51329.522   0.16164658 
    4000    299.17666   -960.28065    149979.62   -47311.396    4108.4709   -51419.867    0.1470323 
    4100    299.35591   -992.94747    149973.59   -47332.916    4110.9326   -51443.848   0.16180335 
    4200    295.93451   -1017.4081    150002.94   -47285.819    4063.9479   -51349.767   0.15037001 
    4300    297.68268   -1024.1568    149967.56    -47426.39    4087.9548   -51514.344   0.15986146 
    4400    300.58837   -993.52429    149981.27   -47304.608    4127.8574   -51432.465   0.15102676 
    4500    293.03289   -1055.8815    149954.75   -47363.376    4024.1011   -51387.477   0.16140468 
    4600     293.1185   -999.46041     149952.7   -47394.708    4025.2768   -51419.985   0.15127138 
    4700    304.05807   -974.58831    149970.89   -47294.874    4175.5054   -51470.379   0.14909873 
    4800    302.14938    -945.0341    149992.69   -47189.604    4149.2941   -51338.898    0.1549966 
    4900    302.21171   -998.86823    150032.41   -47161.279    4150.1501    -51311.43   0.16133748 
    5000    296.41966   -994.61816    149989.43   -47293.581    4070.6102   -51364.191   0.16077543 
    5100    295.35859   -975.66904    150003.59    -47218.81     4056.039   -51274.849    0.1561335 
    5200    294.19825   -1008.3177    150001.72   -47285.763    4040.1044   -51325.867   0.16985598 
    5300    296.58095   -995.80148    149961.38   -47397.936    4072.8252   -51470.761   0.14734169 
    5400    299.48527   -982.87839    149947.62   -47362.698     4112.709   -51475.407   0.15522255 
    5500    297.94174   -981.51852    149939.26   -47330.248    4091.5123    -51421.76    0.1592788 
    5600    298.42017   -992.17179    149943.06   -47373.233    4098.0824   -51471.315   0.15084725 
    5700     301.1188   -964.16862    149952.79   -47356.074    4135.1416   -51491.215   0.15209773 
    5800    301.77671   -996.95701    149949.86   -47300.595    4144.1764   -51444.772     0.156428 
    5900    299.15268   -1003.2076    149950.12   -47377.827    4108.1416   -51485.968   0.15584267 
    6000    292.65411   -993.75408    149940.72   -47357.612    4018.8995   -51376.511   0.15555542 
    6100    292.00997   -1003.0063    149943.77   -47434.173    4010.0537   -51444.226   0.15744981 
    6200    297.04845   -991.80942    149958.72   -47411.626    4079.2451   -51490.871   0.15612309 
    6300    302.25723   -1011.4011    150000.08   -47294.452    4150.7752   -51445.227   0.16028147 
    6400    301.27051    -1045.807    149987.68   -47348.491     4137.225   -51485.716    0.1554268 
    6500    295.73335    -979.1085    149985.18   -47367.178    4061.1854   -51428.364   0.15275015 
    6600    299.56257   -987.69192    149969.88    -47364.55    4113.7705    -51478.32   0.15198981 
    6700    293.86183   -1031.3392     149972.9   -47425.711    4035.4846   -51461.195   0.16083827 
    6800     296.0698   -1018.1352    149974.52   -47376.959    4065.8058   -51442.765   0.15456056 
    6900     303.5215   -981.05971    149993.19   -47297.524    4168.1369   -51465.661   0.15318452 
    7000    297.19484   -1006.6193    149980.51   -47298.262    4081.2554   -51379.517   0.16046169 
    7100    296.21064   -1015.8709    149975.78   -47306.036    4067.7398   -51373.776   0.14594495 
    7200    292.08705   -1020.4927    149956.27   -47420.447    4011.1122   -51431.559   0.16722331 
    7300    297.32495   -995.57936    149936.92   -47475.107    4083.0422   -51558.149   0.14488716 
    7400     297.2963   -1004.3145    149955.23   -47356.852    4082.6488   -51439.501   0.16090363 
    7500    298.72342   -995.89081    149988.08   -47291.475    4102.2468   -51393.722   0.16343623 
    7600    296.27447   -996.55413    149994.03   -47267.683    4068.6164     -51336.3   0.15754355 
    7700    290.84151   -1009.1417     149981.8   -47359.902    3994.0078    -51353.91   0.16742891 
    7800    293.13611   -1032.1119    149977.68   -47427.814    4025.5185   -51453.333   0.15675815 
    7900    294.80221   -988.30149    149948.48   -47363.666    4048.3984   -51412.064   0.15702929 
    8000    301.74371   -998.54446    149985.23   -47265.698    4143.7232   -51409.421    0.1565064 
    8100    307.49277   -969.05987    149979.87   -47222.951    4222.6727   -51445.624   0.16185496 
    8200    300.97813   -1008.1065    149971.64   -47243.153    4133.2099   -51376.363   0.15829576 
    8300    294.50853   -1027.9177    149988.73   -47205.291    4044.3654   -51249.656   0.17376141 
    8400    300.54052   -1039.8674    150006.86   -47181.028    4127.2004   -51308.229   0.16206038 
    8500    302.26763   -992.26644    149971.31   -47274.121     4150.918   -51425.039   0.16628644 
    8600    298.15936    -1011.414    149968.79   -47283.785    4094.5008   -51378.286    0.1540526 
    8700    297.76683   -982.13171    149937.65   -47250.185    4089.1104   -51339.296   0.17219651 
    8800    300.53089   -978.41776    149962.58   -47297.462    4127.0681    -51424.53   0.15717316 
    8900    300.65595   -951.45537    149968.81   -47361.728    4128.7855   -51490.514   0.15776827 
    9000    296.86968   -939.67338    149969.59   -47281.234    4076.7902   -51358.025   0.16103666 
    9100    297.55387   -1008.0094     150000.7   -47341.761    4086.1859   -51427.947   0.14550731 
    9200     299.8581   -970.86517    149996.97   -47231.758    4117.8289   -51349.586   0.16978728 
    9300    296.76865   -989.67813    149989.44   -47388.532    4075.4027   -51463.935   0.14630013 
    9400      293.016   -1005.8835    149967.86   -47348.412    4023.8691   -51372.282   0.16438871 
    9500    298.47259   -943.07263    149978.11   -47397.354    4098.8023   -51496.156   0.15346728 
    9600     295.2071   -1007.3324    149981.33   -47388.233    4053.9586   -51442.191   0.15323932 
    9700    299.25358   -994.32641    149975.97   -47258.355    4109.5273   -51367.882   0.15956707 
    9800    298.91185   -1030.6364    149999.69       -47211    4104.8345   -51315.835   0.16875149 
    9900    298.35103   -1037.1238    150004.85   -47239.884     4097.133   -51337.017   0.16085415 
   10000    299.21802   -1019.3562    150024.37   -47299.074     4109.039   -51408.113   0.16370127 
   10100    310.76803   -964.35554    150022.62   -47246.749    4267.6506   -51514.399   0.15335785 
   10200    297.27459   -986.10096    150046.03   -47218.739    4082.3507    -51301.09    0.1625536 
   10300    299.73968    -1055.451    150038.16    -47214.74    4116.2028   -51330.942   0.16744613 
   10400    298.83128   -1038.9559    150025.23   -47222.915    4103.7281   -51326.643   0.16154173 
   10500    302.72115    -983.7133    150001.54   -47273.202    4157.1461   -51430.348    0.1592589 
   10600    300.16866    -1007.472    150010.29   -47299.566    4122.0937   -51421.659   0.15633231 
   10700     302.9462   -1008.3015    149999.35   -47321.691    4160.2365   -51481.928   0.16082236 
   10800    293.07257   -990.46017    149947.61    -47452.89     4024.646   -51477.536   0.15608713 
   10900     293.4826   -1014.9625    149931.17   -47440.242    4030.2767   -51470.518   0.16176786 
   11000    291.86112   -1038.9693    149932.77   -47457.229    4008.0096   -51465.239   0.16084814 
   11100     299.3086   -989.90787    149957.04   -47355.977    4110.2828    -51466.26   0.14944429 
   11200    292.25067   -1007.9397    149934.62   -47465.747    4013.3592   -51479.106    0.1592214 
   11300    297.37368   -975.27695    149950.63   -47376.578    4083.7114   -51460.289   0.15067892 
   11400    299.11006   -969.52238    149951.15    -47352.13    4107.5564   -51459.687   0.15616761 
   11500    301.83356   -1003.3368    149993.01    -47255.05    4144.9571   -51400.007   0.16135352 
   11600    298.19521   -997.39293    150002.77    -47251.18    4094.9932   -51346.173   0.15815258 
   11700    305.03741   -986.16797    150027.16   -47116.979    4188.9542   -51305.934   0.16038856 
   11800    304.04487   -996.78609    150055.22   -47197.459    4175.3241   -51372.783   0.16126459 
   11900     296.5488   -1021.1456    149996.61   -47237.063    4072.3836   -51309.447   0.16373903 
   12000    302.44825   -1027.4296    150038.18   -47206.326    4153.3985   -51359.724   0.16214531 
   12100    302.42736   -984.26534    149979.34   -47263.794    4153.1115   -51416.905     0.165561 
   12200    297.52208   -1016.3767     149973.5   -47264.261    4085.7493    -51350.01   0.15512167 
   12300    296.24878   -991.24173    149940.35   -47316.194    4068.2636   -51384.457   0.16496007 
   12400     294.9808   -996.75663    149950.23   -47312.274     4050.851   -51363.125   0.15629398 
   12500    298.48484   -983.17592     149948.6   -47235.791    4098.9706   -51334.761   0.16639671 
   12600    300.69143   -992.05897    149945.76   -47193.396    4129.2727   -51322.668   0.16033696 
   12700    300.83929    -1000.431    149964.28   -47283.147    4131.3031    -51414.45   0.16094124 
   12800    299.63871   -973.48298    149937.56   -47257.339    4114.8161   -51372.155   0.15663801 
   12900    296.83493   -1054.7821    149922.29   -47328.787    4076.3129     -51405.1   0.16265872 
   13000    299.19298   -993.48085    149939.59   -47293.382    4108.6952   -51402.077   0.16102026 
   13100     292.4155   -995.71239    149954.17   -47372.412    4015.6227   -51388.034   0.15750114 
   13200    293.29519   -993.07993    149960.14   -47403.882    4027.7031   -51431.585   0.15910618 
   13300    292.08143   -1037.0528     149951.3   -47490.992     4011.035   -51502.027   0.15027498 
   13400    294.86919   -965.90838    149916.87   -47472.634    4049.3183   -51521.953   0.15421603 
   13500    303.28391   -995.74837    149960.78   -47384.335    4164.8741   -51549.209   0.15187397 
   13600    298.64085   -980.18057    149962.12   -47330.302    4101.1129   -51431.415   0.15973453 
   13700    293.49873   -993.93285    149966.08   -47361.381    4030.4983   -51391.879   0.14636608 
   13800    299.14436   -959.48166    149974.89   -47313.617    4108.0274   -51421.645   0.16127202 
   13900    298.34369   -992.43262    149984.08   -47305.333    4097.0321   -51402.365   0.14963944 
   14000    300.26552   -1011.1471    150027.58   -47193.486    4123.4239    -51316.91   0.16160258 
   14100    301.58227   -1010.4146    149994.42   -47282.504    4141.5062    -51424.01   0.16246767 
   14200    300.02632   -984.84495    149996.82   -47291.183    4120.1391   -51411.322   0.14967846 
   14300    299.31728   -973.88193    149996.54   -47320.513     4110.402   -51430.915   0.16304379 
   14400    296.34292    -1009.292    149996.16   -47374.701    4069.5564   -51444.257   0.15363855 
   14500    293.76732   -1036.2284    149962.51   -47396.775    4034.1868   -51430.962    0.1557538 
   14600    298.21162   -1002.9496    149969.61   -47346.203    4095.2185   -51441.421   0.16082402 
   14700    295.01604   -985.10374    149984.28   -47296.161    4051.3349   -51347.496   0.15293821 
   14800    295.35039   -1019.9508    149980.48   -47271.773    4055.9264   -51327.699    0.1635352 
   14900    300.30807   -994.85845    149992.59   -47288.424    4124.0082   -51412.432   0.16033323 
   15000    295.79743   -981.47381    149975.39   -47351.507    4062.0654   -51413.573   0.15227985 
   15100    292.65142    -1005.666    149992.01   -47371.073    4018.8625   -51389.935   0.15501555 
   15200    293.23534   -996.90418    149990.57   -47292.322    4026.8812   -51319.203   0.16214268 
   15300    295.33098   -988.05313    149983.16   -47381.699    4055.6598   -51437.359   0.15867611 
   15400    296.78278   -979.00709    149965.89   -47372.961    4075.5969   -51448.558   0.15327567 
   15500    303.27071   -1001.7327    149977.08   -47307.383    4164.6929   -51472.076    0.1562963 
   15600    302.52815   -987.83727    150023.76   -47185.107    4154.4957   -51339.603   0.16289414 
   15700     303.7874   -1002.9843    150029.69   -47198.908    4171.7884   -51370.696   0.15276226 
   15800      304.595   -992.51714    150012.11   -47201.459    4182.8789   -51384.338   0.16560942 
   15900    301.85929   -1011.1708     150005.7   -47223.448    4145.3105   -51368.758    0.1549548 
   16000    301.89078   -992.33945    149987.65   -47269.436    4145.7429   -51415.179    0.1532712 
   16100    306.12392   -968.16499     149953.3   -47299.662    4203.8749   -51503.537   0.15878151 
   16200    300.81697    -993.6194     149968.1   -47314.499    4130.9967   -51445.496      0.14797 
   16300    299.52238   -997.74247    149938.99   -47333.769    4113.2186   -51446.987   0.16507902 
   16400    297.95665   -1001.8328    149964.74   -47344.952    4091.7171   -51436.669   0.15026865 
   16500    299.17317   -1014.8161     149974.4   -47259.146     4108.423   -51367.569   0.15953768 
   16600    309.26773   -935.31197    149979.41   -47180.658    4247.0475   -51427.706   0.15818516 
   16700     304.5879   -985.86548    149960.67   -47226.252    4182.7813   -51409.033   0.15835931 
   16800    300.31015   -985.99588    149951.29    -47280.32    4124.0368   -51404.357   0.15587831 
   16900    301.77767   -988.87964    149952.25   -47305.678    4144.1895   -51449.867   0.16148859 
   17000    300.49895   -1013.1584    149937.56   -47355.708    4126.6294   -51482.338   0.15387497 
   17100    298.51914   -987.86928    149965.08   -47303.417    4099.4416   -51402.858   0.15778895 
   17200     295.4554   -1041.2333    149954.85   -47366.161    4057.3684    -51423.53    0.1599428 
   17300    291.86725   -1022.7385    149954.32    -47470.47    4008.0938   -51478.563    0.1513912 
   17400    292.90258   -993.67541    149925.23   -47453.211    4022.3116   -51475.523   0.15761786 
   17500    297.92759   -994.68692    149964.41   -47343.554    4091.3179   -51434.872   0.15187072 
   17600    295.87991   -1033.6324    149955.63   -47360.616    4063.1981   -51423.814    0.1626186 
   17700    292.58766   -989.27913    149928.88   -47419.093    4017.9869    -51437.08   0.14995475 
   17800    293.81847   -970.28665     149944.5   -47373.687    4034.8892   -51408.576   0.16006485 
   17900    296.73227   -991.52077    149985.16   -47316.626    4074.9032   -51391.529   0.15402955 
   18000    306.32899   -956.24193    149994.19   -47223.876     4206.691   -51430.567   0.15507811 
   18100    303.21107   -1020.0348     150012.1   -47233.588    4163.8738   -51397.462   0.15772112 
   18200    298.62014   -997.29555     149994.2   -47274.972    4100.8285     -51375.8   0.15342205 
   18300    300.24524   -978.42472    149997.98    -47277.79    4123.1454   -51400.935   0.15238617 
   18400    294.45261   -1010.7898    149969.47   -47381.477    4043.5975   -51425.075   0.15658385 
   18500    298.06136   -1005.7087    149972.27   -47313.993     4093.155   -51407.148   0.15933328 
   18600    297.13321   -1034.1241    149989.48   -47265.735     4080.409   -51346.144   0.15859178 
   18700    301.76657   -1023.5405    149962.95   -47283.367    4144.0372   -51427.404   0.16096043 
   18800    294.95512   -1017.1356    149979.08   -47299.393    4050.4983   -51349.892   0.15384817 
   18900    299.47698    -982.2292    150005.11    -47256.77    4112.5952   -51369.366   0.16063374 
   19000    299.82145   -1010.0328    150018.41   -47289.438    4117.3256   -51406.763   0.15346074 
   19100    304.40041   -938.26647    150009.58   -47199.794    4180.2066   -51380.001    0.1518299 
   19200     300.5481   -980.59779     149994.5    -47232.38    4127.3043   -51359.684   0.16006083 
   19300    306.81059   -1021.3925    150028.93   -47122.985    4213.3046   -51336.289   0.15284255 
   19400    303.91127   -1005.4721    150009.52   -47190.349    4173.4894   -51363.839   0.16064562 
   19500    303.17574   -984.97981    150003.82   -47186.112    4163.3887   -51349.501    0.1557641 
   19600    299.03777   -1051.1523    150028.02   -47181.053    4106.5636   -51287.616   0.15950469 
   19700    298.64823   -984.38718    150034.07   -47231.253    4101.2143   -51332.467   0.15375412 
   19800    307.68819      -981.15    150037.91   -47183.553    4225.3564    -51408.91   0.15562452 
   19900    299.78446   -1011.2043    150010.78   -47267.435    4116.8176   -51384.253   0.16046466 
   20000    296.95261   -1003.4435    149967.71   -47295.128     4077.929   -51373.057   0.15027212 
   20100    294.39745   -977.73261    149943.48   -47338.738      4042.84   -51381.578   0.15823972 
   20200     296.8573   -987.12228    149955.34   -47315.397    4076.6202   -51392.017   0.15465754 
   20300    298.72945   -975.20936     149969.5    -47274.71    4102.3297    -51377.04   0.15639723 
   20400    295.17589   -1041.6172    149956.02   -47343.498    4053.5301   -51397.028   0.15880322 
   20500     293.9227   -977.00406    149950.45   -47380.846    4036.3205   -51417.166    0.1536402 
   20600    292.24064   -1018.2671    149935.62   -47401.703    4013.2214   -51414.925   0.15038333 
   20700    299.20815   -998.81464    149952.23   -47345.562    4108.9035   -51454.466   0.15815772 
   20800    301.72713   -986.24419    149966.59   -47197.813    4143.4956   -51341.308   0.15174083 
   20900    298.91508   -1000.4877    149986.67   -47310.066    4104.8789   -51414.945   0.16232257 
   21000    299.17878   -994.21464    149988.48   -47325.429    4108.5001   -51433.929   0.15320904 
   21100    301.52662   -993.39501    150044.85   -47200.229     4140.742   -51340.971    0.1523629 
   21200    301.59771   -997.32392     150009.6    -47214.85    4141.7182   -51356.568   0.16867837 
   21300    300.97198    -999.0647    150019.68   -47209.885    4133.1254   -51343.011   0.15438006 
   21400    297.53195   -991.63499    149988.69   -47253.098    4085.8848   -51338.983   0.16331407 
   21500    300.46524   -979.46356    150002.71   -47154.677    4126.1665   -51280.844   0.15821028 
   21600    306.09657   -985.32216    150024.26   -47163.023    4203.4993   -51366.522   0.16048399 
   21700    293.36873   -1018.4906    150013.98   -47302.983    4028.7131   -51331.696   0.15567716 
   21800    296.65139   -989.66431    149958.84   -47327.243    4073.7925   -51401.036    0.1592563 
   21900    291.15246   -988.46498    149952.87   -47293.983    3998.2779   -51292.261   0.15643287 
   22000    298.50854   -985.59961    149950.16   -47329.575     4099.296   -51428.871   0.15703563 
   22100    298.96536   -1003.0373    149957.73   -47373.743    4105.5692   -51479.313   0.15867828 
   22200    295.77541   -1014.5131     149929.7   -47461.309    4061.7631   -51523.072   0.15682659 
   22300     294.7156   -1009.4373    149948.23    -47337.56    4047.2091    -51384.77   0.15849842 
   22400    298.00991   -993.96167    149996.95   -47290.123    4092.4485   -51382.571   0.16050048 
   22500    302.48564   -982.79803    149984.03   -47236.666    4153.9118   -51390.578   0.15687083 
   22600    296.96874    -988.4518     149972.5   -47283.665    4078.1505   -51361.816   0.15687545 
   22700    298.90305   -1002.6258    149978.34   -47347.854    4104.7137   -51452.568   0.16021854 
   22800    301.69463     -952.966    150006.28    -47268.23    4143.0492   -51411.279   0.14782208 
   22900    297.15623   -1026.6352    149963.89   -47307.007    4080.7252   -51387.732   0.16219912 
   23000    294.28249   -985.93767    149960.87   -47382.252    4041.2613   -51423.514   0.15503939 
   23100    297.46925   -1004.8101    149969.76   -47321.432    4085.0239   -51406.456   0.15499334 
   23200      303.415   -951.72857     150005.3   -47270.473    4166.6743   -51437.147   0.15846828 
   23300    299.28247   -965.42816     149999.5   -47266.093     4109.924   -51376.017   0.15493718 
   23400    296.09991   -1015.9386    149993.45   -47319.761    4066.2193    -51385.98   0.16001899 
   23500    302.74499   -960.58357    150007.96   -47200.817    4157.4734    -51358.29   0.16135622 
   23600     303.7463   -993.29764    150035.21   -47220.812    4171.2239   -51392.036   0.15844386 
   23700    301.43647   -1005.1135    150013.13   -47214.348     4139.504   -51353.852   0.15752788 
   23800    304.47591   -927.91201    149994.67   -47219.007    4181.2435    -51400.25   0.15869849 
   23900    296.39201   -1034.9254    149983.98   -47315.769    4070.2305       -51386    0.1576157 
   24000    297.17697   -983.93813     149977.6   -47252.759    4081.0101    -51333.77   0.15953009 
   24100    299.65126   -1008.4714    150000.02   -47179.996    4114.9885   -51294.984   0.16754136 
   24200    299.13114   -1036.7043    150013.09   -47313.781    4107.8459   -51421.627   0.15416614 
   24300    296.79823   -1014.8961    149978.79   -47352.918     4075.809   -51428.727    0.1611835 
   24400    295.14693   -1031.1447    149981.46   -47386.402    4053.1324   -51439.535   0.15486155 
   24500    296.88832   -1043.9859    149985.97   -47332.712    4077.0462   -51409.758   0.16449219 
   24600    293.77568    -980.9126    149976.28   -47384.573    4034.3016   -51418.875   0.15142268 
   24700    292.83847   -973.31909    149967.34   -47386.834    4021.4311   -51408.266   0.15725049 
   24800    295.78961   -966.26601    149940.16   -47320.362    4061.9579    -51382.32   0.15790869 
   24900    297.14266   -999.26633    149928.16   -47389.833    4080.5389   -51470.372   0.15528392 
   25000    296.65309   -1023.1005    149922.16   -47363.026    4073.8158   -51436.841   0.16089843 
   25100    293.34216   -997.42757    149948.71   -47417.101    4028.3481   -51445.449   0.15501645 
   25200    291.75487     -994.775    149913.18   -47548.612    4006.5506   -51555.163    0.1532779 
   25300    299.23289   -940.74249    149924.68   -47375.128    4109.2432   -51484.371   0.15619141 
   25400     295.7923   -984.17603     149932.6   -47415.813     4061.995   -51477.808   0.15757642 
   25500    299.29595   -997.77656    149953.65   -47298.493    4110.1091   -51408.602   0.16266027 
   25600    302.93492   -1025.8102    149990.32    -47220.23    4160.0817   -51380.312   0.16527222 
   25700     287.9599   -1056.6012    149972.34   -47315.755    3954.4358   -51270.191   0.15942069 
   25800    300.53608    -1013.056    150002.16   -47170.675    4127.1393   -51297.815   0.16781592 
   25900    303.48133   -1003.7508    150016.66   -47196.429    4167.5853   -51364.014   0.15420675 
   26000    295.38047   -989.22644    150025.42   -47248.806    4056.3395   -51305.145   0.16282779 
   26100    300.44947   -996.68578    150025.02   -47228.821      4125.95   -51354.771   0.15716402 
   26200    297.34314   -1031.1327       149979   -47341.762     4083.292   -51425.054   0.15712475 
   26300    300.06541   -937.48836    149945.05   -47293.556    4120.6758   -51414.232   0.15519029 
   26400    297.12834   -986.93415    149950.38    -47356.54    4080.3422   -51436.882   0.15229178 
   26500     297.0663   -1005.0545    149947.73   -47266.158    4079.4903   -51345.648   0.16437975 
   26600    298.33109   -983.71825    149985.71   -47215.905    4096.8591   -51312.765   0.15833247 
   26700    300.28344   -994.13611    150004.15    -47220.42    4123.6699    -51344.09   0.16432253 
   26800    300.84672   -1019.5624    150006.09   -47273.709    4131.4052   -51405.114   0.15945579 
   26900    299.84415   -991.60405    150013.65   -47211.577    4117.6373   -51329.214   0.15801314 
   27000    301.41789   -1018.0225    150008.96   -47249.162    4139.2489   -51388.411   0.16444269 
   27100    300.42073   -980.36065     149995.4   -47191.388    4125.5553   -51316.943   0.15891644 
   27200    297.30433   -997.41698    149981.44    -47258.28    4082.7591   -51341.039   0.15812688 
   27300    301.97421    -1005.017    150010.26   -47086.579    4146.8885   -51233.468   0.16633848 
   27400    300.92908   -991.31842    149988.19   -47213.011    4132.5363   -51345.548   0.15713424 
   27500    296.44665   -1020.2936    149949.01   -47324.383    4070.9809   -51395.364   0.15923276 
   27600     295.7905   -997.54633    149911.78    -47373.49    4061.9702    -51435.46   0.15780026 
   27700    300.86392    -959.3138    149952.02   -47270.243    4131.6415   -51401.884    0.1541452 
   27800    301.54401   -973.72801    149984.35   -47250.821    4140.9809   -51391.802   0.16410988 
   27900    297.42879   -1001.8019    149976.24     -47309.7    4084.4681   -51394.168   0.15317576 
   28000    295.81801   -1007.4369    149950.09   -47387.755     4062.348   -51450.103   0.15733102 
   28100    296.77519   -990.77615    149968.85   -47357.955    4075.4926   -51433.447   0.16197148 
   28200    292.99353    -1043.684    149983.51   -47327.406    4023.5606   -51350.967   0.15834628 
   28300     297.7412   -1009.2616    149958.78   -47344.751    4088.7584   -51433.509   0.16163289 
   28400    300.59298   -980.63802    149982.45   -47279.872    4127.9207   -51407.793   0.15570918 
   28500    300.05314   -997.07825    149974.57   -47312.202    4120.5073   -51432.709   0.15842878 
   28600    298.97084   -1014.4453    149955.17    -47315.22    4105.6446   -51420.864   0.15597012 
   28700    295.87541   -997.14175    149958.13    -47315.84    4063.1362   -51378.976    0.1642185 
   28800    300.33301   -1005.5468    149962.74   -47360.528    4124.3507   -51484.878   0.15230903 
   28900    295.35555    -975.4441    149973.32   -47330.589    4055.9972   -51386.586   0.15843031 
   29000    300.24292   -1002.4024    149975.71   -47272.712    4123.1135   -51395.826   0.16020964 
   29100    296.45497   -989.55597    149992.03   -47269.435    4071.0951    -51340.53   0.16052053 
   29200    301.40117   -1009.7654    149997.27   -47197.324    4139.0193   -51336.343   0.16547222 
   29300    299.54394   -975.40662     150026.5   -47209.375    4113.5146    -51322.89   0.15979803 
   29400    298.33066   -1036.9491    150006.88   -47219.676    4096.8532   -51316.529   0.16358001 
   29500    294.95865   -1009.8786    149998.06   -47267.592    4050.5468   -51318.139   0.16049971 
   29600    298.34121   -981.38454    150009.57   -47236.636     4096.998   -51333.634    0.1648964 
   29700    298.08964   -957.99969    149986.12    -47309.82    4093.5434   -51403.364   0.15268265 
   29800    294.33515   -1008.4462    149959.19   -47410.531    4041.9845   -51452.515    0.1649509 
   29900    300.00313   -990.43881     149978.6    -47390.73    4119.8205   -51510.551     0.150788 
   30000    299.63652    -1008.621    149974.83   -47354.394    4114.7861    -51469.18   0.15853419 
   30100    301.99074   -1031.7765    149990.65   -47321.787    4147.1155   -51468.903    0.1566413 
   30200    298.86655   -1017.5015     150009.5   -47334.094    4104.2124   -51438.306   0.15830665 
   30300    300.43832   -950.56378    150009.55    -47315.77    4125.7968   -51441.567   0.15476193 
   30400     297.6088   -993.54522    149993.78   -47355.855    4086.9402   -51442.795   0.15839223 
   30500    298.18424    -1010.208    149948.59     -47456.7    4094.8424   -51551.543   0.15130253 
   30600    301.87733    -1016.045    149955.19   -47328.611    4145.5582   -51474.169   0.15708973 
   30700    300.34429   -972.77019     149951.6   -47362.601    4124.5056   -51487.107   0.15857642 
   30800    294.11135    -1033.839    149939.29   -47288.694    4038.9112   -51327.605   0.15959691 
   30900    303.86877   -959.75173    149994.89   -47271.308    4172.9057   -51444.213   0.16635067 
   31000    298.92477   -1006.4424    149995.74   -47306.363    4105.0119   -51411.374   0.15595906 
   31100    296.59317   -1041.0381     149981.6   -47317.021    4072.9929   -51390.014   0.16201992 
   31200    299.33289   -1015.9912    149994.95   -47257.048    4110.6165   -51367.664   0.16025676 
   31300    302.73396   -994.82714    150006.86     -47193.1     4157.322   -51350.422   0.15988106 
   31400    295.29526   -1008.5248    149992.38   -47315.357    4055.1693   -51370.527   0.16014113 
   31500     294.4067   -1010.0089    149992.91   -47261.568     4042.967   -51304.535   0.15896552 
   31600    300.26912   -974.63272    149996.01   -47287.492    4123.4732   -51410.965   0.16016246 
   31700    297.56743   -1015.4923    150003.48   -47258.462     4086.372   -51344.834   0.16145153 
   31800    298.58253   -1007.0614       149983   -47323.263     4100.312   -51423.575   0.15783552 
   31900    297.12085   -1000.1491    149975.88   -47314.446    4080.2394   -51394.685    0.1621359 
   32000    295.90511   -1004.0475    149974.92   -47262.244    4063.5441   -51325.788   0.16308514 
   32100    298.42072   -1007.3571    149980.27   -47301.215      4098.09   -51399.305    0.1577641 
   32200    289.71401   -1021.3079    149944.74   -47424.724    3978.5243   -51403.248   0.15798143 
   32300    295.38529   -984.57317    149958.21    -47360.44    4056.4057   -51416.846   0.15421214 
   32400    297.44474   -984.26939    149942.71   -47463.813    4084.6872   -51548.501   0.15910994 
   32500    299.91231   -971.94506    149964.57   -47311.128    4118.5733   -51429.701   0.16024268 
   32600    302.96543   -978.06374     149985.6    -47264.82    4160.5007   -51425.321   0.15486292 
   32700    290.56355   -1021.1555    149949.78   -47363.458    3990.1906   -51353.649    0.1696762 
   32800    296.38573    -1019.396    149990.76   -47224.577    4070.1443   -51294.722   0.15832329 
   32900    297.39649   -1021.8283    149991.42   -47302.748    4084.0247   -51386.773   0.16672379 
   33000    295.38508   -973.13698    149988.73   -47282.461    4056.4028   -51338.863   0.15983021 
   33100    298.18663   -989.93317    149977.71   -47320.503    4094.8753   -51415.378    0.1605714 
   33200    297.35038    -1015.738    149972.32    -47296.62    4083.3915   -51380.011   0.16352786 
   33300    300.60227   -981.94685    150001.99   -47302.285    4128.0483   -51430.334   0.15866289 
   33400    301.36415    -1026.922    149954.18   -47319.978    4138.5109   -51458.489   0.16587411 
   33500    293.19426   -1019.1525    149948.82   -47345.868    4026.3171   -51372.185   0.16074092 
   33600    295.59623   -1016.8829    149952.34   -47361.902    4059.3023   -51421.205   0.16496515 
   33700    300.65132   -965.57668    149972.48   -47248.119    4128.7219   -51376.841   0.15533064 
   33800    303.96787   -1022.1554    150011.05   -47145.516    4174.2666   -51319.782   0.17020365 
   33900    302.39399   -1000.9101    150021.33   -47168.622    4152.6532   -51321.275   0.16343541 
   34000    296.01238   -1000.5115    149987.42   -47320.631    4065.0172   -51385.649   0.16243788 
   34100    298.12735   -1015.6568    149991.61   -47339.998    4094.0612   -51434.059   0.15795164 
   34200    298.60937   -983.08181    149978.06   -47338.365    4100.6806   -51439.046   0.16164675 
   34300    300.51769    -990.5784    149949.83   -47369.871    4126.8868   -51496.758   0.15083598 
   34400    298.38268   -975.35478    149948.93   -47294.456    4097.5675   -51392.023   0.16147168 
   34500    300.65424   -959.60535    149984.82   -47212.452     4128.762   -51341.214   0.16375433 
   34600    301.40768   -1019.6955    150005.32   -47211.348    4139.1087   -51350.456   0.15979124 
   34700    298.29191   -973.14805    149958.41   -47322.035    4096.3211   -51418.356   0.16561923 
   34800    299.18245   -971.82907    149951.09   -47320.136    4108.5504   -51428.686   0.14929342 
   34900    298.45571   -979.82438    149968.75   -47300.131    4098.5705   -51398.702   0.16171469 
   35000    298.21905   -1020.6679    149988.84   -47277.269    4095.3205    -51372.59   0.15900023 
   35100    294.86797    -1007.846    150012.36   -47298.882    4049.3015   -51348.183   0.15983317 
   35200     295.7298   -1026.6217    149999.43   -47236.456    4061.1366   -51297.592   0.16617562 
   35300    298.11104   -1039.5371    150001.84   -47326.069    4093.8373   -51419.906   0.16247257 
   35400    298.23331   -962.15427     150012.6   -47323.882    4095.5163   -51419.398   0.15387601 
   35500    299.14925   -974.71665    150025.56   -47306.728    4108.0946   -51414.823   0.15854039 
   35600    302.11637   -1030.1098    150021.72   -47281.039    4148.8408   -51429.879   0.16146927 
   35700    297.15347   -1057.5622    150026.28   -47296.948    4080.6873   -51377.635   0.15849085 
   35800    303.09899   -1021.1821    150055.51   -47127.158    4162.3348   -51289.493   0.17006458 
   35900    303.20053   -957.12667    150029.93   -47246.803    4163.7291   -51410.532   0.15291063 
   36000    298.86727   -952.03422    150011.08   -47301.876    4104.2223   -51406.098   0.16057245 
   36100    295.32962   -1007.2953    149986.55   -47350.667    4055.6412   -51406.309   0.16021707 
   36200    301.75555    -1024.923    149969.91    -47384.24    4143.8859   -51528.126   0.15767753 
   36300    299.83566   -1017.8805     149956.4   -47313.766    4117.5207   -51431.287   0.15856227 
   36400    296.78275   -1039.0585    149965.75   -47374.526    4075.5963   -51450.122   0.15931658 
   36500    300.57216   -1010.5386    149963.76    -47343.58    4127.6349   -51471.215   0.15917381 
   36600    297.83677   -1002.6706    149981.58   -47344.554    4090.0708   -51434.624   0.15452173 
   36700    294.70868   -1012.0678    149991.24   -47383.599     4047.114   -51430.713   0.16139033 
   36800    293.78738   -1009.8573     149966.2   -47456.738    4034.4623   -51491.201   0.15204637 
   36900    295.10594   -992.60783    149961.45    -47371.28    4052.5695   -51423.849    0.1586597 
   37000     297.8188   -994.77324    149976.84   -47360.091    4089.8241   -51449.916   0.15603748 
   37100    288.27576   -1004.2807    149963.73   -47404.613    3958.7733   -51363.387   0.16003586 
   37200    293.97057   -1004.2306    149973.98   -47407.983    4036.9779   -51444.961   0.15388101 
   37300     297.1553   -1006.5184    149943.37    -47406.37    4080.7125   -51487.083   0.16380295 
   37400    294.71502   -998.77609    149931.67   -47416.235    4047.2011   -51463.436   0.15494124 
   37500    298.76682   -975.20133    149931.76   -47385.712    4102.8429   -51488.555   0.15500874 
   37600    290.77421   -987.39236    149913.28   -47433.002    3993.0835   -51426.086   0.16147258 
   37700     290.5239   -983.85899    149878.55    -47511.44    3989.6461   -51501.086   0.14855487 
   37800    290.31334    -974.2762    149862.58   -47531.729    3986.7547   -51518.484   0.16362546 
   37900    293.45145    -1020.941    149887.49   -47435.378     4029.849   -51465.227   0.15238992 
   38000      292.589   -1016.2245    149924.61   -47369.529    4018.0053   -51387.535    0.1680953 
   38100    302.28941   -925.84469    149926.44   -47302.015    4151.2171   -51453.232   0.15453296 
   38200    299.44709   -1010.1372     149934.6   -47271.323    4112.1847   -51383.508    0.1598583 
   38300    298.60697     -952.375    149932.33   -47318.103    4100.6477   -51418.751   0.16239458 
   38400    301.04868   -975.72862    149988.09   -47250.296    4134.1787   -51384.475   0.15757795 
   38500    299.02662   -980.18417    149975.14   -47311.325    4106.4105   -51417.736   0.16242736 
   38600    299.81868   -1015.5228    149957.28   -47269.299    4117.2876   -51386.587   0.15910349 
   38700    300.31371   -988.06712     149970.8   -47239.049    4124.0857   -51363.134   0.16477981 
   38800    303.76181   -971.06314    149982.13   -47279.215     4171.437   -51450.652   0.15852676 
   38900    298.32646   -994.13458     149984.1   -47215.898    4096.7956   -51312.693    0.1649768 
   39000    301.59165   -1032.5885    149990.55   -47276.567     4141.635   -51418.202    0.1606898 
   39100    299.43646   -991.10177    149947.85   -47298.752    4112.0388   -51410.791   0.16314179 
   39200    289.98354   -1017.6143    149948.37    -47427.84    3982.2256   -51410.066   0.15410033 
   39300    295.43461   -1016.8684    149920.71    -47441.95     4057.083   -51499.032   0.16654408 
   39400    296.71375   -988.02436    149971.93   -47309.465    4074.6489   -51384.114   0.15777746 
   39500    298.52867    -994.2201    149977.19   -47294.159    4099.5724   -51393.732   0.16156362 
   39600    301.58764   -1006.7557    149989.78   -47293.471      4141.58   -51435.051   0.16434735 
   39700    300.01837   -982.96781    149997.86   -47276.629    4120.0299   -51396.659   0.15155143 
   39800    299.05035   -1011.5368    149970.21   -47295.237    4106.7364   -51401.974   0.16965901 
   39900    303.03668     -994.479    149991.27   -47261.639    4161.4791   -51423.118   0.15657951 
   40000    297.05248   -1016.4821    149996.79   -47339.015    4079.3004   -51418.315   0.16365586 
   40100    297.30467   -984.52856    149987.67   -47345.294    4082.7636   -51428.057   0.15684211 
   40200    296.20353   -1014.5322    149988.54   -47322.922    4067.6421   -51390.564   0.16177225 
   40300    295.54378   -990.94557    149970.05   -47328.308    4058.5821    -51386.89   0.16339714 
   40400    290.31697    -1010.448     149976.8   -47419.607    3986.8044   -51406.412    0.1562878 
   40500    303.53654   -988.79572     149987.6   -47281.007    4168.3434   -51449.351   0.16339487 
   40600    298.66555   -1030.6839    150000.76   -47354.814    4101.4521   -51456.266   0.15446886 
   40700    298.79061   -1014.7472    149986.62   -47359.161    4103.1695   -51462.331   0.15959064 
   40800    298.77813   -960.44315    150001.57   -47331.451    4102.9982   -51434.449   0.15525802 
   40900    295.09048   -996.68796    149983.49   -47322.368    4052.3571   -51374.725   0.15798535 
   41000    289.18427   -1018.3613    149976.41   -47385.751    3971.2496   -51357.001   0.16017871 
   41100    300.39507   -1005.1542    149964.02   -47352.006    4125.2029   -51477.209    0.1592965 
   41200    304.54878   -1013.9582    149982.16   -47238.609     4182.244   -51420.853   0.15881404 
   41300    297.74853   -992.47633    149980.73   -47320.443     4088.859   -51409.302   0.16194668 
   41400     303.2797   -992.76391    149948.11   -47263.279    4164.8163   -51428.095   0.15606454 
   41500    302.99641   -998.28701    149959.79   -47279.697     4160.926   -51440.623   0.15685904 
   41600    295.01384   -986.71739    149947.17   -47284.803    4051.3046   -51336.107   0.16474676 
   41700    289.98121   -995.52317    149934.84   -47400.268    3982.1936   -51382.462   0.15354694 
   41800    298.10117   -1001.6161    149950.25   -47306.693    4093.7017   -51400.395   0.16636379 
   41900     294.2552   -1019.9367    149931.15   -47388.565    4040.8866   -51429.452    0.1549238 
   42000    293.52054   -1010.9345     149917.4   -47364.042    4030.7978   -51394.839   0.16031484 
   42100    295.66841   -989.58664    149908.71   -47432.222    4060.2936   -51492.515    0.1559677 
   42200    289.53601   -1003.2331    149917.04    -47393.65    3976.0799    -51369.73   0.16311818 
   42300    298.06594   -965.64597    149935.75   -47351.013    4093.2179   -51444.231   0.15656031 
   42400     296.7009    -1017.753    149956.92   -47383.386    4074.4724   -51457.858   0.16049692 
   42500     296.5974   -984.18765    149939.59   -47338.798    4073.0511   -51411.849     0.157428 
   42600    295.77497   -1001.2946    149952.25   -47385.057     4061.757   -51446.814   0.15335779 
   42700     290.6354   -981.22311    149921.59   -47448.314    3991.1774   -51439.491   0.15948694 
   42800    297.08989   -988.49374    149929.19    -47360.03    4079.8142   -51439.844   0.15299541 
   42900    292.97445   -998.84422    149958.49   -47380.495    4023.2986   -51403.794   0.16480874 
   43000     291.1956   -997.93668    149951.69   -47401.135    3998.8704   -51400.006   0.15589495 
   43100    296.86469   -989.73045       149975   -47324.502    4076.7216   -51401.224   0.15839335 
   43200    298.21256   -1011.7318    149985.77   -47340.228    4095.2314   -51435.459   0.15460045 
   43300    299.42985   -1004.0642    149945.58   -47326.911     4111.948   -51438.859   0.15726171 
   43400      302.255   -1022.5047    149963.25   -47261.174    4150.7446   -51411.919   0.15818865 
   43500    299.00117   -989.66188    149984.65   -47316.834    4106.0611   -51422.895   0.15901937 
   43600    302.03338   -995.61523    149924.71   -47357.223    4147.7011   -51504.924    0.1596457 
   43700    289.25638   -1002.4605    149933.56   -47404.431    3972.2399   -51376.671   0.15648432 
   43800    290.74232   -1015.2059    149916.53   -47437.606    3992.6456   -51430.252   0.15529479 
   43900    293.80911   -1027.8633    149944.21   -47356.138    4034.7606   -51390.898   0.16403549 
   44000    294.21119   -992.05548    149912.64   -47442.377    4040.2823   -51482.659   0.15383701 
   44100    298.04799   -969.05549    149912.65   -47398.912    4092.9714   -51491.883   0.15346043 
   44200    293.91653   -1007.6511    149906.84   -47352.567    4036.2357   -51388.803   0.16263812 
   44300    298.17361   -956.28056    149929.88   -47355.238    4094.6965   -51449.934   0.15290907 
   44400    296.29526   -985.90449    149924.58   -47370.666    4068.9019   -51439.567   0.16725631 
   44500    292.81389    -1046.037    149943.77   -47377.704    4021.0936   -51398.798   0.15901389 
   44600    291.74208   -1014.6547    149946.61    -47385.54    4006.3749   -51391.915    0.1627272 
   44700    294.15486   -1002.3863    149929.92   -47370.125    4039.5086   -51409.634   0.16151123 
   44800    294.95577    -934.7022    149936.41    -47322.04    4050.5072   -51372.548   0.15377111 
   44900    295.85516   -960.40639    149951.39   -47308.537    4062.8581   -51371.396   0.16642018 
   45000    296.61269    -1009.488    149945.47   -47357.141     4073.261   -51430.402   0.15732056 
   45100    302.67754   -991.73847    149950.93    -47243.76    4156.5472   -51400.308   0.16457377 
   45200    296.22167   -998.43856    149948.44   -47271.341    4067.8913   -51339.232   0.16176072 
   45300    297.20265   -1007.7648    149962.02   -47300.749    4081.3627   -51382.112   0.15727045 
   45400     300.3822   -1008.2102    149930.53   -47366.998    4125.0262   -51492.024   0.16364512 
   45500    300.51481   -1030.8114    149920.95   -47300.584    4126.8472   -51427.432    0.1589552 
   45600    299.25745   -1060.1376    149921.92   -47293.025    4109.5805   -51402.606   0.16492573 
   45700    299.35205   -1017.6761    149917.56   -47244.415    4110.8795   -51355.295   0.16251492 
   45800    296.89177   -1008.3594    149910.81   -47323.897    4077.0935   -51400.991   0.16046769 
   45900    303.79064   -1000.5041    149944.96   -47177.901    4171.8328   -51349.734   0.16370309 
   46000     305.6659   -987.08926    149937.21   -47241.289    4197.5851   -51438.874   0.15674162 
   46100    305.46965   -955.67658    149953.64   -47147.462    4194.8901   -51342.352   0.16075376 
   46200    304.04682   -1025.0377    149941.99   -47208.828    4175.3508   -51384.179   0.17061048 
   46300    305.81964   -968.10497    149976.37   -47202.979    4199.6964   -51402.676     0.156609 
   46400    300.77833   -979.81039    149958.62   -47244.065    4130.4661   -51374.531   0.16720041 
   46500    296.40197   -998.94003    149975.05   -47208.235    4070.3673   -51278.602   0.16383529 
   46600    299.16664   -1003.1622     149939.4   -47271.505    4108.3333   -51379.839   0.15996284 
   46700    305.42203   -1002.9709    149952.76   -47205.649    4194.2361   -51399.885   0.16780109 
   46800    303.41118   -993.97837    149935.47   -47218.445    4166.6219   -51385.067   0.16413315 
   46900    301.18714   -1003.5348    149926.33    -47272.75    4136.0801   -51408.831   0.16443702 
   47000    301.52119   -1020.9026    149948.25   -47311.261    4140.6674   -51451.929    0.1551576 
   47100     300.3469   -1044.9498    149919.25   -47318.322    4124.5414   -51442.863   0.16730385 
   47200    298.88405   -929.72775    149932.38   -47279.736    4104.4527   -51384.189   0.15479649 
   47300    296.44131   -1044.8595    149929.77   -47415.612    4070.9076   -51486.519   0.15629117 
   47400     298.1711   -984.28882    149934.76    -47344.13     4094.662   -51438.792   0.15838804 
   47500    300.65293   -995.01444    149960.11   -47352.498     4128.744   -51481.242   0.15459536 
   47600    295.79089   -1007.4146    149949.33   -47344.447    4061.9756   -51406.423   0.16011076 
   47700    297.13141   -992.43588    149965.83    -47268.76    4080.3844   -51349.144   0.16223432 
   47800    297.13141   -1002.9251    149973.03   -47335.008    4080.3844   -51415.392   0.15567289 
   47900    293.32798   -1024.2446     149953.8   -47389.722    4028.1535   -51417.876   0.16427041 
   48000    299.62704   -1011.3147     149960.1   -47348.897    4114.6559   -51463.553   0.15666348 
   48100    296.59859   -953.73415    149935.71   -47385.612    4073.0674    -51458.68   0.15207914 
   48200    292.13875    -991.2736    149939.13   -47369.437    4011.8223   -51381.259   0.16453403 
   48300    301.28394   -998.67457    149977.58    -47326.88    4137.4094   -51464.289   0.15088828 
   48400    294.26615   -1016.5044    149950.92   -47359.284    4041.0369   -51400.321   0.16222038 
   48500    296.74027   -999.47897    149948.19   -47453.319     4075.013   -51528.332   0.15363829 
   48600    295.12071   -994.38361     149945.6   -47451.736    4052.7723   -51504.508   0.15455236 
   48700    292.71565   -972.83367    149951.46   -47329.179    4019.7445   -51348.924    0.1627491 
   48800    300.60674   -994.95698    149960.08   -47318.637    4128.1097   -51446.747   0.15803926 
   48900    296.59279   -984.92982    149969.72   -47348.006    4072.9877   -51420.994   0.15872492 
   49000    295.41419   -1015.3178    149948.85   -47381.241    4056.8025   -51438.043   0.15889246 
   49100     297.4723   -995.59054    149963.61   -47292.333    4085.0657   -51377.398   0.16273781 
   49200    296.64477   -1012.4377    149976.87   -47329.026    4073.7016   -51402.727   0.15627441 
   49300    295.92991   -1043.9119    149950.16   -47402.992    4063.8846   -51466.877   0.16427612 
   49400    295.75878   -1001.8406    149930.84   -47414.256    4061.5346   -51475.791   0.15824761 
   49500    296.99748    -969.2611    149955.84    -47352.13    4078.5452   -51430.675   0.15622822 
   49600    292.07139   -1016.1535    149956.27    -47347.12    4010.8972   -51358.018   0.16284306 
   49700    295.81125   -1001.3953    149973.11   -47354.152    4062.2552   -51416.407   0.15769738 
   49800    294.32547   -950.68138    149975.49   -47367.288    4041.8516   -51409.139   0.15749804 
   49900    296.70681   -978.89444    149983.53     -47348.1    4074.5536   -51422.654   0.15632971 
   50000    295.75562   -989.74925     150003.3   -47353.932    4061.4913   -51415.424   0.15847121 
   50100    303.08742   -1005.7651    150036.03   -47208.023    4162.1759   -51370.199   0.15923701 
   50200    298.75802   -1022.3852    150007.95   -47288.048    4102.7219    -51390.77   0.16108421 
   50300    299.94449   -980.58578     149972.1   -47300.969    4119.0152   -51419.984   0.15694412 
   50400    294.66131   -981.53751    149973.03   -47320.011    4046.4635   -51366.475   0.16145154 
   50500    300.65344   -1021.3227     149983.4   -47228.472    4128.7509   -51357.223   0.16303253 
   50600    304.93131   -1019.7969    150014.98   -47157.026    4187.4973   -51344.523   0.15926486 
   50700     301.6849   -1007.5012    149966.64   -47400.066    4142.9156   -51542.981   0.15560578 
   50800    299.35136   -995.41674    149952.57   -47380.501    4110.8701   -51491.371   0.16024835 
   50900    288.52423   -1003.8878    149949.76   -47405.002    3962.1855   -51367.188   0.15750259 
   51000    298.19653   -990.68502    149979.37   -47366.556    4095.0112   -51461.567    0.1559438 
   51100     298.6922    -967.7606    149956.86   -47371.103    4101.8181   -51472.921   0.16173962 
   51200     292.4156   -999.17919     149959.1   -47433.764    4015.6241   -51449.388    0.1503164 
   51300    293.52025   -969.35193    149959.41   -47442.466    4030.7938   -51473.259   0.15907827 
   51400    299.37363   -1000.8867    149980.43   -47380.522    4111.1758   -51491.698   0.15164945 
   51500    292.32106    -1026.803    149970.75   -47445.095    4014.3258   -51459.421   0.16055852 
   51600    298.23492   -1026.1562     149979.5   -47350.195    4095.5384   -51445.734   0.15703576 
   51700    299.09459   -969.68869    149976.16   -47242.662    4107.3439   -51350.006    0.1569842 
   51800    300.25677   -983.91059    149970.26   -47295.456    4123.3036    -51418.76   0.16542078 
   51900    292.40497   -1006.7782    149960.15   -47360.346    4015.4782   -51375.824    0.1526005 
   52000    298.56822     -1012.72    149939.54   -47342.873    4100.1155   -51442.989   0.16200499 
   52100    292.36123    -1006.152    149928.18   -47423.726    4014.8774   -51438.604   0.15436159 
   52200    284.32032   -1058.0956    149892.77   -47478.075     3904.455    -51382.53   0.16337948 
   52300    292.46576   -986.53964    149902.94   -47457.392    4016.3129   -51473.705   0.15668883 
   52400    292.68224   -995.32909    149905.96   -47545.401    4019.2858   -51564.687   0.14940845 
   52500    293.98073   -966.71461    149926.29   -47388.234    4037.1174   -51425.352   0.16028313 
   52600    297.62899   -997.85058    149952.36   -47355.751    4087.2175   -51442.968   0.15768389 
   52700    306.66168   -965.82109    149971.92   -47288.273    4211.2597   -51499.532    0.1521158 
   52800       301.44   -1025.2032    149985.46   -47257.471    4139.5525   -51397.024   0.16389912 
   52900     305.8881   -997.64588    149988.04    -47279.86    4200.6365   -51480.497   0.15350606 
   53000    302.06442   -1020.2109    149994.28   -47228.753    4148.1274    -51376.88   0.16427476 
   53100    295.89567     -1036.62    149965.18   -47372.239    4063.4145   -51435.653    0.1583866 
   53200    296.75237   -1043.9878    149948.16    -47423.84    4075.1792   -51499.019   0.14997369 
   53300    299.15565   -982.39314    149933.28   -47379.037    4108.1825    -51487.22   0.15955639 
   53400    300.27055   -1003.1919    149955.76   -47314.273    4123.4929   -51437.766   0.15279742 
   53500     302.4659   -965.47437    149931.37     -47301.9    4153.6408   -51455.541   0.15814172 
   53600    295.07302   -984.30643    149918.08   -47370.067    4052.1174   -51422.184   0.15535268 
   53700     297.8128   -1040.3207    149970.91   -47354.584    4089.7416   -51444.326    0.1559427 
   53800    291.61649   -1002.8689    149971.91   -47377.493    4004.6503   -51382.144   0.15831456 
   53900    294.60376   -1032.6981     149957.1   -47388.024    4045.6732   -51433.697   0.15259157 
   54000    292.78922   -1023.0941    149958.35   -47395.655    4020.7548    -51416.41   0.16413695 
   54100    300.57916   -983.24411    149966.97   -47369.065     4127.731   -51496.796   0.15042479 
   54200    298.15979   -1011.7536    149991.53   -47317.299    4094.5067   -51411.806   0.16108639 
   54300    299.20155   -1017.1582    149976.23   -47236.529    4108.8128   -51345.341   0.16321117 
   54400    304.38509   -991.06059    150009.23   -47160.571    4179.9963   -51340.567   0.15568147 
   54500    306.57068   -966.90178     150004.3   -47233.957      4210.01   -51443.967   0.16092099 
   54600    297.60649    -1027.403    149992.18   -47245.929    4086.9085   -51332.837   0.15934646 
   54700    297.67074   -988.55158    149995.54   -47300.793    4087.7907   -51388.583   0.16198699 
   54800    300.89741   -1004.4145    149989.16    -47230.79    4132.1013   -51362.891   0.16350642 
   54900    301.95038   -997.19612    149988.84   -47253.285    4146.5613   -51399.846   0.15359027 
   55000    301.76549   -1005.1544       149985   -47284.806    4144.0223   -51428.828   0.16084053 
   55100      292.109   -1056.4795    149988.78   -47303.289    4011.4137   -51314.702   0.16518415 
   55200    293.57514   -1009.5843     149954.3   -47418.846    4031.5476   -51450.394   0.15137813 
   55300    292.66896   -984.11315    149909.69   -47458.359    4019.1034   -51477.462   0.15846554 
   55400    297.13747   -998.42221       149932   -47424.954    4080.4677   -51505.421   0.14968382 
   55500    299.76217    -979.0818    149943.83   -47386.103    4116.5115   -51502.615   0.15456953 
   55600    302.04185   -1003.7822    149971.97   -47277.889    4147.8175   -51425.706   0.15871221 
   55700    301.27768     -987.987    149996.65   -47240.166    4137.3234    -51377.49   0.15952115 
   55800    298.45851   -974.07365    150029.64   -47226.439     4098.609   -51325.048   0.15601198 
   55900    301.97019   -1020.9031    150039.16   -47244.181    4146.8334   -51391.015   0.15961298 
   56000    302.67739   -986.66418    149995.74   -47253.736     4156.545   -51410.281   0.15548019 
   56100    299.60737   -1007.6134    150004.84   -47237.509    4114.3857   -51351.895   0.15812567 
   56200    296.74386   -995.13385    150040.28   -47280.007    4075.0623    -51355.07   0.16485193 
   56300    296.59896   -1038.4408    150012.16   -47348.814    4073.0725   -51421.886   0.15014998 
   56400    294.99557   -1046.1302    149968.55   -47401.425    4051.0537   -51452.478   0.16132964 
   56500    292.70728   -979.58833    149938.88    -47447.29    4019.6297    -51466.92   0.15014428 
   56600    296.44324   -986.04054    149942.94   -47509.979     4070.934   -51580.913   0.15033478 
   56700     291.4333   -1043.1792    149956.39   -47488.412    4002.1345   -51490.547   0.15409388 
   56800    295.97314   -1017.0251     149983.5   -47367.619    4064.4783   -51432.098   0.15663017 
   56900     294.6621   -992.66217    150002.79   -47468.999    4046.4744   -51515.474   0.15211327 
   57000     297.4398   -965.48929    149962.91   -47450.019    4084.6193   -51534.639    0.1461005 
   57100    297.44512   -989.58518    149993.22   -47369.206    4084.6925   -51453.899   0.15459293 
   57200    299.13054   -1005.1148    150000.44   -47322.816    4107.8376   -51430.653    0.1572203 
   57300    293.37588   -988.85188    149975.63   -47457.779    4028.8113    -51486.59   0.15068841 
   57400    296.20652   -981.77066       150005   -47338.363    4067.6832   -51406.046   0.15572149 
   57500    298.31608   -1000.7172    150013.13   -47302.171     4096.653   -51398.824   0.15232205 
   57600    294.54368   -997.89063    149999.03   -47418.791    4044.8481    -51463.64   0.15637179 
   57700    297.52043   -975.09839    150009.38   -47327.249    4085.7266   -51412.976   0.15497218 
   57800    301.63377   -940.08735    150026.65   -47273.914    4142.2135   -51416.128    0.1480031 
   57900    298.54104   -969.08811    150042.64   -47315.847    4099.7422   -51415.589   0.16275656 
   58000    298.56526   -1014.7677     150021.5   -47271.884    4100.0749   -51371.959    0.1530585 
   58100     297.6051   -1013.7348    150014.88   -47323.689    4086.8894   -51410.578   0.15838253 
   58200    296.34539   -1014.1128    150041.78   -47215.621    4069.5903   -51285.212   0.16479862 
   58300    299.94648   -989.79747    150032.83   -47289.934    4119.0427   -51408.976   0.15024377 
   58400    298.05987   -994.01068    149983.47   -47330.992    4093.1346   -51424.126   0.16211821 
   58500    297.88242    -976.1427    149967.63   -47323.765    4090.6976   -51414.462   0.14390574 
   58600    295.80229   -980.15514    149972.28   -47367.331    4062.1322   -51429.463   0.15995046 
   58700     299.3334    -1021.103    149994.72   -47318.359    4110.6234   -51428.982   0.15718533 
   58800    302.23986   -1009.1045    150002.04   -47366.587    4150.5367   -51517.124   0.14735196 
   58900    299.70866   -991.56226    149987.28   -47276.624    4115.7767   -51392.401   0.16456334 
   59000    297.47167   -997.02542    150013.49   -47241.393    4085.0571    -51326.45    0.1525283 
   59100    299.36482   -990.55563    150010.93   -47204.357     4111.055   -51315.412   0.16575343 
   59200    297.43739   -1004.8631    149982.54   -47325.221    4084.5863   -51409.807    0.1547398 
   59300    301.32811   -980.06773    150005.44   -47315.553     4138.016   -51453.569   0.15303407 
   59400    293.89291   -990.62738    150012.58   -47293.704    4035.9114   -51329.615   0.16167242 
   59500     293.7268   -1006.8778    149983.55   -47405.843    4033.6303   -51439.473    0.1463733 
   59600       293.19   -1008.3595    149990.15   -47380.698    4026.2586   -51406.957   0.15491979 
   59700    303.56392   -978.31323    149995.42   -47305.492    4168.7194   -51474.212   0.15717451 
   59800     293.7217   -987.90799    149966.54   -47423.643    4033.5602   -51457.204   0.14911645 
   59900    293.38925   -999.45559    149978.52   -47414.117    4028.9948   -51443.112   0.15806311 
   60000    296.03083   -995.42039    150008.28   -47381.903    4065.2705   -51447.174   0.15298434 
   60100    297.45387   -989.87381    150008.13   -47344.605    4084.8126   -51429.418   0.15367348 
   60200    294.03793   -976.28468    149981.05   -47305.692    4037.9029   -51343.595   0.15843912 
   60300    300.31967    -959.5559    150001.69   -47267.652    4124.1675   -51391.819   0.15096024 
   60400    299.36729   -987.02016    150006.55   -47216.953    4111.0889   -51328.042   0.16553718 
   60500    298.66898   -1003.5409    150015.75   -47248.355    4101.4993   -51349.854   0.15571921 
   60600    296.47072   -998.15141    149990.96   -47309.502    4071.3113   -51380.813   0.15990037 
   60700    303.35874   -999.72382    150019.94   -47131.021    4165.9018   -51296.923    0.1591381 
   60800    299.30724   -976.87755    150044.85    -47159.14    4110.2642   -51269.404    0.1624709 
   60900    297.94219   -994.45784    150019.24   -47252.527    4091.5185   -51344.046   0.16104562 
   61000    299.62386   -990.24422    150002.15   -47298.779    4114.6122   -51413.392   0.15275311 
   61100    294.47063   -1027.6804    149996.92   -47273.998     4043.845   -51317.843   0.16743016 
   61200    305.89066   -992.78423    150006.54    -47216.54    4200.6716   -51417.211   0.15683168 
   61300    293.98517   -1027.6944    149989.82   -47309.793    4037.1784   -51346.971   0.16249712 
   61400    293.19449   -1032.5481    149990.28   -47363.787    4026.3203   -51390.108   0.16127517 
   61500    295.29249   -1003.6258    149990.84   -47301.282    4055.1312   -51356.413    0.1531352 
   61600    297.03293   -1004.8824    150009.94    -47350.98     4079.032   -51430.012   0.15751219 
   61700    295.13815   -1006.1521    150001.25   -47413.096    4053.0117   -51466.108   0.15083631 
   61800    291.62052   -1014.6729    149981.09    -47400.22    4004.7056   -51404.926   0.15080018 
   61900    298.93066    -980.4697    150009.89   -47293.007    4105.0927   -51398.099   0.15912692 
   62000    293.59116    -995.2496    150015.88   -47302.732    4031.7676     -51334.5   0.15281106 
   62100    293.81693   -1029.3143    150023.88   -47375.064     4034.868   -51409.932    0.1542511 
   62200    301.25976   -985.97163    150019.01   -47268.595    4137.0773   -51405.672    0.1610906 
   62300    299.78537   -1001.5975    150009.62   -47318.574    4116.8302   -51435.404   0.15233122 
   62400    297.08703   -1015.9085    150015.51   -47366.951    4079.7749   -51446.726   0.15277685 
   62500    293.66848   -1024.4794    150020.31   -47353.961    4032.8294    -51386.79   0.15796944 
   62600     294.7451   -1003.7541    150004.23   -47384.968    4047.6142   -51432.582   0.15348589 
   62700    296.21151   -1033.8704    149982.38   -47420.393    4067.7518   -51488.145   0.15368086 
   62800    296.37451   -1012.7288    149984.26   -47397.197    4069.9903   -51467.187   0.15402847 
   62900    300.74754    -981.8399     149996.7   -47294.726    4130.0432   -51424.769   0.15331504 
   63000    301.31367   -1002.8506    150000.93    -47325.93    4137.8176   -51463.747   0.15530653 
   63100    298.89936   -1012.5444    149961.46   -47399.245     4104.663   -51503.908   0.15495076 
   63200    301.28642    -1018.837    149995.95   -47279.771    4137.4434   -51417.214   0.15684008 
   63300    294.68102   -1031.6367    149995.58   -47377.101    4046.7342   -51423.835   0.16204577 
   63400     293.9994    -977.4498    149986.41   -47468.359    4037.3738   -51505.732   0.14688422 
   63500    292.16195   -991.36459    149988.04   -47441.754    4012.1408   -51453.895   0.15435764 
   63600    295.62488   -974.89093    149978.33   -47493.758    4059.6959   -51553.454   0.14906666 
   63700    288.19054   -961.78293    149984.86   -47459.383    3957.6031   -51416.986   0.15213983 
   63800    293.45005   -1023.5607    149973.89   -47534.736    4029.8298   -51564.565   0.15008237 
   63900    288.75372   -986.22962    149985.22    -47421.08    3965.3371   -51386.417   0.15279248 
   64000    295.90407    -1002.848    150000.64   -47328.959    4063.5298   -51392.489   0.15859626 
   64100    297.94004   -965.44999    150005.15   -47282.986    4091.4889   -51374.475    0.1546739 
   64200    298.36721   -1032.5887    150019.57   -47271.264    4097.3552   -51368.619   0.16258386 
   64300    297.05457   -1032.4422    150021.97   -47316.282    4079.3292   -51395.611   0.15639223 
   64400    298.20827   -976.51641    150004.74   -47371.824    4095.1725   -51466.997   0.15065785 
   64500    294.78803   -998.38639     149976.8    -47362.02    4048.2037   -51410.224    0.1578117 
   64600    298.04464   -1000.8221     149969.5   -47400.715    4092.9255   -51493.641   0.15352822 
   64700    289.01759   -1023.3696    149982.34    -47404.04    3968.9606       -51373   0.15861158 
   64800    294.69896   -1004.7443    149972.95   -47345.011    4046.9805   -51391.991   0.15803278 
   64900    297.77258   -986.15244    150002.63   -47258.248    4089.1893   -51347.437   0.15090661 
   65000    304.15673    -1016.874    150016.51   -47245.584    4176.8602   -51422.445   0.16406063 
   65100    296.16711   -982.89099    150012.34   -47314.421     4067.142   -51381.563   0.15089521 
   65200    294.52948   -997.92771    150012.45   -47333.408    4044.6531   -51378.062    0.1620141 
   65300    298.59386    -987.6419    150003.31   -47263.021    4100.4676   -51363.489   0.15674291 
   65400    299.85843   -1023.2661    149989.89   -47313.735    4117.8335   -51431.569   0.14963392 
   65500    298.77458   -1021.1779    149994.06   -47242.952    4102.9494   -51345.901   0.16840289 
   65600     294.6394   -1008.2504    150035.24   -47258.722    4046.1627   -51304.884   0.15161276 
   65700    300.34662   -1003.9746     150000.4   -47213.712    4124.5376    -51338.25   0.16502775 
   65800    297.88024    -1000.094    149994.81    -47284.34    4090.6677   -51375.008   0.16036239 
   65900    296.58729   -999.48044    149974.86   -47296.571    4072.9122   -51369.483   0.15413702 
   66000    295.57476    -1010.415    149997.96   -47305.052    4059.0076    -51364.06   0.16210717 
   66100    298.15486    -976.4809    149989.32   -47273.218    4094.4391   -51367.657   0.15250301 
   66200    298.09862   -1014.5903    149960.47   -47410.014    4093.6667   -51503.681   0.15604031 
   66300    298.08166   -988.82589    149966.49   -47339.859    4093.4338   -51433.292   0.15456181 
   66400    299.73295   -999.25015    149968.85   -47340.081    4116.1103   -51456.191   0.14946442 
   66500    289.68122   -1073.0159    149985.78   -47380.965     3978.074   -51359.039   0.16445116 
   66600    296.54188   -1003.2926    149977.03   -47386.077    4072.2886   -51458.366   0.15367919 
   66700    295.01676   -979.60666    149985.48   -47367.895    4051.3448    -51419.24   0.15372643 
   66800    291.53525   -1004.2341    149988.17   -47395.298    4003.5346   -51398.832   0.15935061 
   66900    291.29953   -999.27485     149987.8   -47404.605    4000.2976   -51404.903   0.15275057 
   67000    292.35531   -988.59579     149955.4    -47511.97    4014.7962   -51526.766   0.15204977 
   67100    294.57814   -1018.5073    149986.92   -47346.869    4045.3214    -51392.19   0.15533225 
   67200     294.4102   -986.22988    150004.39   -47459.241    4043.0151   -51502.256   0.15727905 
   67300    297.09386   -989.41437    150022.72   -47373.037    4079.8687   -51452.905   0.15240281 
   67400    295.68468   -995.25146    150031.12   -47354.733     4060.517    -51415.25   0.14926283 
   67500    299.77079   -979.84872    150056.15   -47336.774      4116.63   -51453.404   0.15457482 
   67600    301.51482   -1005.3912    150061.99   -47191.491      4140.58   -51332.071   0.15278795 
   67700    300.97098   -1014.9541    150038.16   -47265.547    4133.1116   -51398.659   0.16200048 
   67800    298.09171   -1014.9126    150043.45   -47308.854    4093.5718   -51402.426   0.15380448 
   67900     298.9219   -1039.0635    150031.93   -47348.179    4104.9725   -51453.151   0.16040514 
   68000     297.5982   -1021.1564    150003.95   -47380.322    4086.7946   -51467.116   0.15606419 
   68100    300.13518   -1009.1564     149997.1   -47385.565     4121.634   -51507.199   0.14748931 
   68200    293.93021   -1000.0176    149980.99   -47345.278    4036.4236   -51381.702   0.15749788 
   68300    299.79205   -991.44543    150005.85     -47291.5    4116.9219   -51408.422   0.15491401 
   68400    297.52813   -1025.1238    150041.11   -47260.816    4085.8324   -51346.648   0.15807864 
   68500    299.36665   -975.18762     150054.4   -47257.868    4111.0801   -51368.948   0.15552691 
   68600    297.93154   -1009.7994    150028.63   -47348.516    4091.3722   -51439.888   0.15615409 
   68700    300.65062   -1021.1958    150001.15   -47321.461    4128.7122   -51450.173   0.15328917 
   68800    297.13407    -987.2908    150031.34   -47314.213    4080.4209   -51394.634   0.16108342 
   68900    300.08057   -997.64022    150020.65   -47315.062     4120.884   -51435.946   0.15115307 
   69000    298.83249   -1008.3094    150008.69   -47315.072    4103.7446   -51418.817   0.16035909 
   69100    300.19355    -1015.528    149984.64   -47383.564    4122.4356       -51506   0.15338677 
   69200    294.28358   -1011.3287    149987.69   -47394.638    4041.2763   -51435.914   0.15501937 
   69300    295.66689   -1014.7725    150003.29   -47433.589    4060.2728   -51493.862   0.15662276 
   69400    290.40404   -959.55948    149964.62   -47477.792    3988.0002   -51465.792   0.15445782 
   69500     295.4472   -966.47422    149984.89   -47334.678    4057.2559   -51391.934   0.15345334 
   69600    293.80685    -980.0866    150044.69   -47236.033    4034.7296   -51270.763   0.16348601 
   69700    292.00042   -1007.4023     150030.3   -47328.208    4009.9226    -51338.13    0.1595618 
   69800    298.94748   -964.87316    150042.21   -47330.708    4105.3237   -51436.032   0.15316836 
   69900    296.47384   -993.28199    149989.54   -47424.814    4071.3542   -51496.168   0.16069342 
   70000    295.46977    -1001.278    150005.65   -47352.469    4057.5658   -51410.035   0.14983203 
   70100    291.59495   -1027.2332    149979.91   -47483.325    4004.3545    -51487.68   0.16266309 
   70200    296.16086   -981.35679    150011.33   -47310.859    4067.0562   -51377.915   0.15468527 
   70300    302.24445   -980.26853    150004.79    -47319.64    4150.5997    -51470.24   0.15411101 
   70400    302.31884   -998.87174    150021.17   -47204.965    4151.6212   -51356.587   0.16491535 
   70500    301.90384   -973.92038     150010.7   -47280.536    4145.9223   -51426.458   0.15292062 
   70600     295.4628   -1004.9394    150012.81   -47342.415    4057.4701   -51399.885   0.15965535 
   70700    298.04638   -961.36736    150006.28   -47305.701    4092.9494   -51398.651   0.15224207 
   70800    300.27201   -1016.5031    150012.83   -47344.687     4123.513     -51468.2    0.1579425 
   70900    295.91885   -1025.0724    149985.49    -47337.97    4063.7328   -51401.702    0.1572291 
   71000    296.13541   -1022.8176    149975.73   -47357.216    4066.7068   -51423.922   0.15854145 
   71100    298.90296   -1005.7866    149977.67    -47344.88    4104.7123   -51449.593   0.16029202 
   71200     288.5662   -992.68125    149979.16   -47379.624    3962.7619   -51342.386   0.15606353 
   71300    293.04242   -990.88937    149955.94   -47440.257     4024.232   -51464.489   0.15825038 
   71400    295.98742   -1007.3608    149952.33   -47375.432    4064.6744   -51440.107   0.15864129 
   71500    294.48339    -1007.714    149954.99   -47322.785    4044.0202   -51366.805   0.16171076 
   71600    301.81329   -990.61883    149957.16    -47341.33    4144.6787   -51486.009   0.16258455 
   71700    298.17419   -1010.5779    149986.84   -47332.638    4094.7045   -51427.342   0.15255467 
   71800    293.59442   -996.04144    149957.49   -47510.989    4031.8124   -51542.802   0.15416753 
   71900     289.7701   -987.96386    149935.47    -47448.36    3979.2945   -51427.655   0.16065124 
   72000    294.91363   -998.72556    149950.65   -47424.072    4049.9285   -51474.001   0.15147109 
   72100    296.61376   -992.01809     149963.8   -47283.024    4073.2758     -51356.3   0.17255593 
   72200    300.71505   -1009.6914    150006.95   -47167.024    4129.5971   -51296.621    0.1592113 
   72300    300.93302   -1032.3729    150036.56   -47148.505    4132.5903   -51281.096   0.17038435 
   72400    304.66251   -966.89226     150005.1   -47264.853    4183.8059   -51448.659   0.15756222 
   72500    300.97176   -981.80687    150011.77   -47261.116    4133.1223   -51394.239   0.15222789 
   72600     301.5489   -1032.1032    150027.12    -47200.29     4141.048   -51341.338   0.17400654 
   72700    292.28916    -1028.031    149996.19   -47368.666    4013.8878   -51382.554    0.1524357 
   72800    301.36829   -970.19169    149998.81   -47288.796    4138.5677   -51427.364   0.16018105 
   72900    299.87814    -1013.669    150009.58   -47301.227    4118.1041   -51419.331   0.16239749 
   73000    295.05423   -992.62354    149981.81   -47311.808    4051.8593   -51363.667   0.15845356 
   73100     300.0117   -999.30827    149977.67    -47264.18    4119.9383   -51384.118   0.16289512 
   73200    297.79317   -985.97482    150007.45   -47246.323    4089.4721   -51335.796   0.16330247 
   73300    304.56393   -986.86176    150004.67   -47226.042    4182.4521   -51408.494   0.15608234 
   73400    301.11604   -987.76154    150003.17   -47208.606    4135.1037   -51343.709   0.16477803 
   73500    301.13041   -1015.8472    149990.97   -47214.207     4135.301   -51349.508   0.16188703 
   73600    295.96258   -1021.3749    149962.04   -47251.562    4064.3333   -51315.895   0.16499988 
   73700    296.03367   -1012.5841    149954.38    -47316.91    4065.3096   -51382.219   0.16527494 
   73800    294.38238   -995.06667    149931.66   -47405.363    4042.6331   -51447.996   0.15250719 
   73900    293.06793   -1016.1877    149948.75   -47392.445    4024.5823   -51417.028   0.16057586 
   74000    303.92059   -963.24851     149951.1   -47311.328    4173.6174   -51484.945   0.15819409 
   74100    306.24289   -1012.7721     150013.7    -47144.64    4205.5087   -51350.148   0.16556657 
   74200    298.15052    -1018.237    150002.53   -47315.034    4094.3795   -51409.413    0.1590578 
   74300    299.18222   -1018.6343    149975.29   -47311.126    4108.5473   -51419.673   0.16316405 
   74400    298.76843    -980.7968    149985.16   -47342.464    4102.8649   -51445.329   0.15461761 
   74500    293.33209   -1006.0599    149991.23   -47361.697    4028.2098   -51389.907   0.15910519 
   74600     300.9962   -995.60662    150018.05   -47362.376     4133.458   -51495.834   0.15927778 
   74700    297.23181    -995.1921    150020.99   -47275.507    4081.7631   -51357.271   0.16338425 
   74800    296.49504    -1010.581    149996.93   -47334.248    4071.6454   -51405.894   0.16331044 
   74900     296.8065   -988.13889    150005.56   -47331.904    4075.9225   -51407.827   0.15771394 
   75000    298.98716   -995.30093    150012.89   -47311.817    4105.8687   -51417.685    0.1591691 
   75100    302.98493   -954.77563    150040.13   -47235.149    4160.7684   -51395.918   0.15882992 
   75200    300.96875   -1057.4358    150022.04   -47289.968    4133.0811   -51423.049   0.16454055 
   75300    294.49497   -997.92011    150017.12   -47341.604    4044.1792   -51385.783    0.1546529 
   75400     294.6574    -968.7886    150024.25   -47356.899    4046.4098   -51403.308   0.16008765 
   75500    299.13187   -986.27003    150002.59   -47356.553    4107.8559   -51464.408   0.15320251 
   75600    296.06685   -1004.6736     150009.8   -47285.242    4065.7652   -51351.007   0.15740153 
   75700    296.46198   -985.72761    150014.98   -47239.627    4071.1914   -51310.818   0.16973673 
   75800    296.90768   -1027.2562    150043.29   -47262.719     4077.312   -51340.031   0.15651733 
   75900    293.99194   -1045.1614    150030.15   -47286.672    4037.2713   -51323.943   0.16775594 
   76000    303.01454   -970.92196     150019.3   -47295.377     4161.175   -51456.552   0.15442014 
   76100    292.75624   -1000.8636    149994.09   -47380.825     4020.302   -51401.127   0.15289447 
   76200    288.49113   -1062.3516    149961.63   -47433.633     3961.731   -51395.364    0.1698954 
   76300    296.11548   -1010.1088    149973.85   -47368.311     4066.433   -51434.744   0.15218114 
   76400     296.2811   -1006.6151    150004.71   -47363.032    4068.7074   -51431.739   0.15714027 
   76500    293.56605    -1021.061    150008.96   -47347.647    4031.4228   -51379.069   0.16187404 
   76600    294.32876   -1025.4304    149995.77   -47393.294    4041.8967   -51435.191    0.1527123 
[...]
   81900    292.93903   -977.54658    149976.34   -47386.662    4022.8122   -51409.474   0.15520403 
   82000    296.39021    -981.5092    149991.19   -47292.927    4070.2058   -51363.133    0.1588093 
   82100    302.11745   -988.09763    150005.75   -47241.484    4148.8556    -51390.34    0.1623591 
   82200    301.99972    -996.5566     149996.9   -47255.978     4147.239   -51403.217    0.1543243 
   82300    296.39947   -1012.2181    149977.77   -47332.228     4070.333   -51402.561   0.16553526 
   82400    301.84429   -1001.9614    150010.31   -47211.039    4145.1045   -51356.143   0.15346741 
   82500    302.44083   -1019.7941    150053.14   -47112.717    4153.2965   -51266.014   0.16336691 
   82600    304.44717   -1015.7875     150041.9   -47214.616    4180.8487   -51395.465   0.16160148 
   82700    300.57666   -1017.8821    150010.03   -47301.126    4127.6966   -51428.823     0.150808 
   82800    301.12161   -1003.9057    150019.14   -47314.735    4135.1802   -51449.915   0.16367965 
   82900    304.51682    -951.5706    149993.93   -47260.872    4181.8053   -51442.677   0.15296018 
   83000    306.04092   -983.41446    150025.59    -47200.58    4202.7351   -51403.315   0.15468916 
   83100    302.04759   -1000.5666    150027.09   -47241.722    4147.8962   -51389.618   0.16407278 
   83200       298.92   -1018.7592    150007.97    -47275.16    4104.9463   -51380.106    0.1573684 
   83300    302.16001   -1002.5477    149992.51   -47265.605    4149.4401   -51415.045   0.15973415 
   83400    297.31075    -1016.933    149961.07   -47342.896    4082.8472   -51425.743   0.15942437 
   83500    292.81215   -977.22328    149941.41   -47451.425    4021.0698   -51472.495    0.1486647 
   83600    292.14352   -998.94857    149951.17   -47396.103    4011.8877    -51407.99   0.16473861 
   83700    295.52809   -1021.9103     149933.5   -47424.174    4058.3666   -51482.541   0.15630579 
   83800    294.51953    -986.9832    149942.18   -47384.558    4044.5165   -51429.074    0.1597049 
   83900     299.7777   -997.82849    149931.45   -47383.137    4116.7248   -51499.862   0.16051739 
   84000    294.88419   -997.00668    149944.65   -47399.802    4049.5242   -51449.326   0.15529675 
   84100    297.34641   -983.78366    149969.62    -47320.42     4083.337   -51403.757   0.15836876 
   84200    301.86901   -953.79358    149989.74   -47275.526    4145.4439    -51420.97   0.15511923 
   84300    296.80723   -1006.5731    149987.61   -47333.128    4075.9326    -51409.06   0.15988088 
   84400    299.26998   -962.28884    149980.21    -47329.36    4109.7526   -51439.113   0.15106212 
   84500    294.82552   -995.92595    149964.35   -47387.168    4048.7186   -51435.886   0.15970624 
   84600    299.21815   -983.87702    149950.99   -47295.517    4109.0408   -51404.558   0.16402172 
   84700    299.91999   -1022.6729    149972.61    -47308.55    4118.6788   -51427.228   0.15615639 
   84800     294.2007    -1023.809    149972.06   -47296.081    4040.1382   -51336.219   0.16868763 
   84900    302.39726   -997.95105    149983.19   -47217.823    4152.6982   -51370.521   0.15946933 
   85000    301.18773   -993.27826    149955.55    -47292.64    4136.0882   -51428.728   0.15847708 
   85100     301.8983    -973.7928    149941.01   -47308.686    4145.8462   -51454.532   0.16032183 
   85200    294.45387   -1002.3598    149947.28   -47356.272    4043.6148   -51399.887   0.15692526 
   85300    295.71672   -1028.2695    149942.39   -47366.822     4060.957   -51427.779   0.15981895 
   85400    294.37033   -1025.4319    149910.16   -47397.924    4042.4676   -51440.392    0.1625766 
   85500    298.51595   -1010.4396    149945.99   -47344.167    4099.3978   -51443.564   0.15363746 
   85600    297.12736   -978.49279    149939.09   -47374.642    4080.3288   -51454.971   0.16373055 
   85700    297.95323   -992.16802    149957.39    -47313.71    4091.6701    -51405.38   0.15665542 
   85800    297.92101    -999.9949    149948.76   -47302.795    4091.2277   -51394.022   0.15994047 
   85900    296.85782    -1018.322     149973.3   -47272.123    4076.6273   -51348.751   0.16819627 
   86000    297.98045   -984.90788    149970.55    -47324.09    4092.0439   -51416.134    0.1549597 
   86100     297.3936   -982.69384    149984.97   -47298.704    4083.9849   -51382.689   0.16395716 
   86200    296.84291   -1010.4438    149986.95   -47258.934    4076.4226   -51335.356   0.16082316 
   86300    300.70336   -955.84291    149962.45   -47311.654    4129.4366   -51441.091   0.15555932 
   86400    295.78789   -1011.1824    149942.82   -47375.438    4061.9344   -51437.372   0.16178496 
   86500    298.19402   -1007.6224    149918.23    -47409.79    4094.9768   -51504.767   0.15990057 
   86600    296.66446   -1019.7246     149921.9   -47243.271     4073.972   -51317.243   0.16372677 
   86700    299.06854   -966.37205    149931.26   -47236.569    4106.9862   -51343.555   0.16694533 
   86800    295.84092   -1010.5397    149941.62   -47363.535    4062.6626   -51426.197   0.15760929 
   86900    295.63634   -1037.0876    149933.46   -47348.217    4059.8532    -51408.07   0.16642321 
   87000    295.08366   -1005.4997    149954.67   -47321.711    4052.2635   -51373.974   0.16582382 
   87100    297.06678   -1001.3809    149925.04   -47294.299    4079.4969   -51373.796   0.16003114 
   87200    303.48362   -983.60506    149960.02    -47226.57    4167.6167   -51394.186   0.16839341 
   87300    300.99435   -961.98176    149946.79   -47233.791    4133.4325   -51367.224    0.1587075 
   87400    295.51373   -1030.5712    149920.58   -47294.768    4058.1694   -51352.938   0.16797904 
   87500    297.12005   -1010.6232    149937.76   -47264.796    4080.2284   -51345.024   0.16654715 
   87600    297.25944   -983.15933    149966.94   -47292.524    4082.1426   -51374.667   0.16218944 
   87700    304.05444    -989.9373    149956.01   -47260.571    4175.4556   -51436.027   0.16252037 
   87800    297.26976   -1012.7865    149935.94   -47348.437    4082.2842   -51430.721   0.16633966 
   87900     293.1461   -1019.3563    149952.85   -47373.257    4025.6558   -51398.913   0.16442838 
   88000    297.36086   -966.45973    149947.78   -47341.343    4083.5354   -51424.878   0.16344094 
   88100    300.13366   -1006.6972    149932.76   -47311.812    4121.6131   -51433.425   0.16531655 
   88200    288.02406   -1029.5161    149922.28   -47415.936    3955.3169   -51371.253   0.16713652 
   88300    293.64901   -990.84269    149934.71   -47353.667    4032.5621    -51386.23   0.16152081 
   88400     299.7023   -991.31867    149968.93    -47282.94    4115.6893   -51398.629   0.16470998 
   88500    299.92189   -979.37872    149966.33   -47360.689    4118.7049   -51479.394   0.16028643 
   88600     292.7457   -1046.2259    149965.89   -47349.813    4020.1572    -51369.97   0.16250248 
   88700    299.97352   -990.68291       149941   -47319.317    4119.4139   -51438.731   0.16566951 
   88800    291.57294   -993.96406    149936.72   -47386.036    4004.0522   -51390.089   0.16205424 
   88900    300.26013   -976.15316     149949.8   -47322.617    4123.3498   -51445.967   0.16264678 
   89000    298.21987    -973.1957    149939.63   -47283.567    4095.3318   -51378.899   0.16438913 
   89100    293.98235   -996.90384    149939.95   -47340.187    4037.1397   -51377.327   0.15873909 
   89200    297.12039   -1011.5201    149935.23   -47286.381    4080.2331   -51366.614    0.1723381 
   89300    292.81596   -1027.4243    149926.33   -47413.546    4021.1221   -51434.668   0.15519724 
   89400     295.4273   -1048.3861    149939.72    -47315.28    4056.9826   -51372.262   0.16912842 
   89500    294.97712   -1021.6827    149926.14   -47407.964    4050.8004   -51458.765   0.16409052 
   89600    301.75432   -975.04949    149930.91   -47435.634    4143.8689   -51579.503   0.15242551 
   89700     297.5243    -994.6155    149935.53    -47344.49    4085.7798    -51430.27   0.16948597 
   89800    296.62618   -1013.1475    149942.81   -47278.033    4073.4462   -51351.479   0.16371246 
   89900    299.09532   -1017.9727    149950.31   -47268.751    4107.3539   -51376.105   0.16570921 
   90000    300.31726    -1013.397    149964.05   -47281.328    4124.1344   -51405.462   0.16839518 
   90100    303.77721   -1006.7263    149967.06   -47266.084    4171.6485   -51437.732    0.1615823 
   90200    295.23167   -975.79283    149969.87   -47340.587     4054.296   -51394.883   0.16602429 
   90300     293.3375   -1004.0628    149954.27   -47315.664    4028.2842   -51343.948   0.16492238 
   90400    299.90911   -939.85423    149972.89   -47299.449    4118.5294   -51417.979   0.15489596 
   90500    297.36273   -979.30719    149976.96   -47312.846     4083.561   -51396.407   0.16995873 
   90600    300.35276   -993.79258    149988.73   -47336.654    4124.6219   -51461.276   0.15710895 
   90700    295.23445   -995.60622     149971.1   -47369.739    4054.3342   -51424.073   0.16707963 
   90800    296.66333   -982.21123    149970.84   -47389.088    4073.9564   -51463.045   0.15797722 
   90900     293.4986   -1010.5679    149962.43   -47363.551    4030.4965   -51394.047   0.16217072 
   91000    300.01852   -976.63389    149962.44   -47377.493    4120.0319   -51497.525   0.16199722 
   91100    285.50241    -1013.537    149937.19   -47485.626     3920.688   -51406.314   0.16109802 
   91200    287.79446   -1005.5925    149950.47   -47426.554    3952.1639   -51378.717    0.1640549 
   91300    299.71843   -967.87279    149974.42   -47363.125    4115.9109   -51479.036    0.1536565 
   91400    297.43061    -1004.679     149959.8   -47331.804    4084.4932   -51416.297   0.16593951 
   91500    302.50401   -991.39987    150017.94   -47169.382    4154.1641   -51323.546   0.16526783 
   91600    303.94344   -976.88528    149990.85   -47237.566    4173.9312   -51411.497   0.16506667 
   91700    298.07554   -1022.3803    149990.19   -47309.659    4093.3498   -51403.009   0.16662126 
   91800    299.28678   -1017.9819    149993.85   -47281.746    4109.9832   -51391.729   0.16310688 
   91900    297.50288   -1023.1206    149996.11   -47271.546    4085.4856   -51357.032   0.16643423 
   92000    296.32454   -973.62089    149997.21   -47319.996     4069.304     -51389.3   0.16311657 
   92100    295.73598   -1011.7373    149998.55   -47303.546    4061.2215   -51364.767   0.16341257 
   92200    298.47998   -1006.6274    149985.25   -47340.777    4098.9038   -51439.681   0.16212508 
   92300    304.17692   -976.93168    150017.23   -47213.888    4177.1375   -51391.026   0.16081092 
   92400     302.8757   -1018.7841    150000.43   -47269.434    4159.2684   -51428.702   0.16377642 
   92500     298.4548   -999.42095    149975.08   -47259.032     4098.558    -51357.59   0.16772128 
   92600    306.12503    -995.9335     149988.3   -47167.293    4203.8901   -51371.183   0.16634833 
   92700    300.26346   -1000.0303    149988.87   -47293.711    4123.3956   -51417.106   0.16122811 
   92800    298.35362   -1000.1031    149988.14   -47308.178    4097.1684   -51405.347   0.16087187 
   92900    295.73645   -996.82699    149984.07   -47347.157    4061.2279   -51408.385   0.16232132 
   93000    297.12528   -999.67051    149966.65   -47354.729    4080.3002   -51435.029   0.16363411 
   93100     299.4108   -965.78764    149977.11   -47269.469    4111.6863   -51381.155   0.16134356 
   93200      294.773   -1020.0603    149973.02   -47338.878    4047.9973   -51386.876   0.16627195 
   93300    296.03678   -989.66919    149934.42    -47376.45    4065.3523   -51441.802   0.15927633 
   93400    296.92148   -1033.0006    149944.06    -47441.02    4077.5015   -51518.521   0.16421894 
   93500    287.31547   -1058.9149    149936.43   -47437.698    3945.5861   -51383.284   0.16141048 
   93600    294.48704   -1049.8476    149924.87   -47391.332    4044.0703   -51435.402   0.16750078 
   93700    296.15879   -996.20601    149945.68   -47364.291    4067.0278   -51431.319   0.16019535 
   93800    294.92742   -1034.8859    149938.87   -47363.501    4050.1179   -51413.619   0.16570666 
   93900    295.60184   -984.04783    149936.65   -47442.625    4059.3795   -51502.005   0.15905743 
   94000    297.28028   -994.85177    149928.93   -47408.979    4082.4288   -51491.408   0.15431143 
   94100    299.56664   -990.67251    149969.61   -47289.825    4113.8264   -51403.651   0.16851373 
   94200    303.37142   -1001.9743    150013.02   -47283.821    4166.0759   -51449.897   0.15231996 
   94300    301.52416   -1004.2188    149997.68   -47295.585    4140.7083   -51436.293   0.16828476 
   94400    300.86708   -973.55378    149998.19   -47285.133    4131.6848   -51416.818   0.15751831 
   94500    300.11608   -979.03838       150009   -47292.465    4121.3716   -51413.837   0.15858517 
   94600    296.50798   -992.25326    149965.47   -47296.292    4071.8231   -51368.115    0.1659571 
   94700    297.16008   -1033.5835    149964.75   -47338.277    4080.7782   -51419.055   0.16001383 
   94800    298.81903   -1019.2689    149959.35   -47385.104    4103.5598   -51488.664   0.16154324 
   94900    289.10571   -987.86769     149937.6   -47405.529    3970.1708     -51375.7   0.16367332 
   95000    294.57105   -1011.3883    149958.33   -47367.189     4045.224   -51412.413   0.15664488 
   95100    293.65364   -988.75047    149973.96   -47323.683    4032.6256   -51356.309   0.16579474 
   95200    293.28372   -970.66774    149979.08   -47354.721    4027.5457   -51382.267   0.15810391 
   95300     293.9538   -977.23643    149969.78   -47305.914    4036.7476   -51342.661   0.15944785 
   95400    299.74298   -1038.2843    149979.91   -47271.514     4116.248   -51387.762    0.1668177 
   95500    300.45096   -1020.9983    150008.22   -47292.339    4125.9705   -51418.309   0.15731779 
   95600     299.0477   -992.15595    149967.66   -47276.859       4106.7   -51383.559   0.16666703 
   95700    296.25128   -1019.7473    149966.12   -47322.613     4068.298   -51390.911    0.1617413 
   95800    302.94214    -1005.147    149954.28   -47255.832    4160.1808   -51416.012   0.16501867 
   95900    300.52472    -1011.415    149949.58   -47282.093    4126.9834   -51409.077     0.163875 
   96000    303.57011   -979.63657    149974.98   -47248.311    4168.8045   -51417.115   0.16343638 
   96100    299.66971   -1001.3216    150016.38   -47196.256    4115.2418   -51311.497   0.16679745 
   96200    302.89846   -992.38629    150023.85    -47220.97    4159.5809   -51380.551    0.1558495 
   96300    297.35494   -1023.6433    150006.06   -47240.526     4083.454    -51323.98   0.16992672 
   96400    297.23456   -1000.0872    149997.01    -47294.93    4081.8008   -51376.731   0.15926863 
   96500    299.45098   -990.45485    149966.55   -47283.883    4112.2381   -51396.121   0.16069611 
   96600    299.79262   -996.66879    149973.64   -47339.242    4116.9298   -51456.172   0.16464256 
   96700    300.14103   -968.65695    149988.19   -47307.337    4121.7143   -51429.051   0.15271003 
   96800     290.2598   -988.21012    149972.06   -47326.174    3986.0193   -51312.193   0.16884081 
   96900    298.56541   -994.14613    149977.15   -47339.305    4100.0769   -51439.382   0.15968511 
   97000    291.67398   -1001.8146    149965.19   -47411.411    4005.4397   -51416.851   0.15947222 
   97100    297.65757   -967.05963    149967.22   -47379.641    4087.6099   -51467.251   0.16214433 
   97200    297.65512   -1003.3632    149987.94   -47320.839    4087.5762   -51408.415   0.15810816 
   97300    300.11911    -979.1751    150010.09   -47204.127    4121.4133    -51325.54   0.16416645 
   97400    295.94524   -1045.7478    150000.44    -47303.83    4064.0952   -51367.925   0.16938804 
   97500    301.25689   -997.13368    149973.44   -47275.496    4137.0379   -51412.534   0.16039221 
   97600    302.12451   -997.89651    149991.41   -47215.483    4148.9525   -51364.435   0.16605005 
   97700    303.09987   -965.68859    150004.93   -47170.295    4162.3468   -51332.642   0.16396795 
   97800     296.7245   -1003.8371    149992.19    -47285.96    4074.7964   -51360.757   0.16303326 
   97900    295.19508   -1052.5776    149985.58   -47240.192    4053.7935   -51293.986      0.17095 
   98000    294.82538   -1041.6126    149989.08   -47336.823    4048.7167    -51385.54   0.16402491 
   98100    294.82736   -1016.4399    149956.19   -47309.422    4048.7438   -51358.165   0.16752384 
   98200    297.50652   -989.08354    149970.42   -47311.015    4085.5356   -51396.551   0.16311747 
   98300    298.18287   -962.31301    149986.29   -47249.518    4094.8237   -51344.342   0.16549384 
   98400    294.15057   -984.40769    149985.64   -47286.046    4039.4498   -51325.496   0.15853095 
   98500    297.21281   -991.92049    149977.47   -47263.327    4081.5022   -51344.829   0.16885283 
   98600    301.51185   -984.43002     149984.4    -47275.25    4140.5392   -51415.789   0.15772039 
   98700    301.59268   -966.81536    149982.83   -47242.547    4141.6492   -51384.196   0.16286527 
   98800    296.46632   -987.70612    150000.46   -47249.905     4071.251   -51321.156   0.16793746 
   98900     297.9395   -983.93304    150013.83   -47317.272    4091.4815   -51408.754   0.16149451 
   99000    296.12616   -1039.5967    150011.81   -47309.484    4066.5797   -51376.064   0.16605354 
   99100    298.13171   -1004.5704    150002.23   -47371.882     4094.121   -51466.004   0.15682945 
   99200    297.26716   -1041.1089    149984.28   -47378.061    4082.2486   -51460.309   0.16742529 
   99300    296.58442    -1025.371    149994.58    -47302.32    4072.8728   -51375.193   0.16271158 
   99400    290.97251   -1027.4287    149999.32   -47346.959    3995.8067   -51342.765   0.16202664 
   99500    300.37191   -980.14273    150001.52   -47303.166    4124.8849   -51428.051   0.15856113 
   99600    299.55331   -978.78137    149987.82   -47293.416    4113.6433    -51407.06   0.16157155 
   99700     295.1792   -995.64595    150002.04   -47343.072    4053.5756   -51396.648   0.15986423 
   99800    301.14027   -1008.6126    149999.83   -47357.642    4135.4364   -51493.078    0.1576938 
   99900    291.14949    -989.8443    150003.94   -47414.191    3998.2372   -51412.428    0.1585489 
  100000     300.1266   -950.61151     150007.6   -47323.993    4121.5162   -51445.509   0.16226277 
Loop time of 50.1947 on 6 procs for 100000 steps with 4608 atoms

Performance: 860.648 ns/day, 0.028 hours/ns, 1992.241 timesteps/s
97.6% CPU use with 6 MPI tasks x no OpenMP threads

MPI task timing breakdown:
Section |  min time  |  avg time  |  max time  |%varavg| %total
---------------------------------------------------------------
Pair    | 37.449     | 37.581     | 37.751     |   1.9 | 74.87
Neigh   | 5.2835     | 5.4558     | 5.6845     |   6.5 | 10.87
Comm    | 4.1388     | 4.5224     | 4.8373     |  10.5 |  9.01
Output  | 0.1682     | 0.16894    | 0.17148    |   0.3 |  0.34
Modify  | 1.8187     | 1.8663     | 1.9004     |   2.1 |  3.72
Other   |            | 0.6        |            |       |  1.20

Nlocal:        768.000 ave         773 max         757 min
Histogram: 1 0 0 0 0 0 1 0 3 1
Nghost:        1389.17 ave        1404 max        1384 min
Histogram: 1 3 1 0 0 0 0 0 0 1
Neighs:        0.00000 ave           0 max           0 min
Histogram: 6 0 0 0 0 0 0 0 0 0
FullNghs:      21835.3 ave       22002 max       21533 min
Histogram: 1 0 0 0 0 0 1 3 0 1

Total # of neighbors = 131012
Ave neighs/atom = 28.431424
Neighbor list builds = 6410
Dangerous builds = 0

undump              1
unfix               2
unfix               3
unfix               4




################################################
#######         Run Simulation         #########
################################################

reset_timestep      0
log                 log.run_${NAME}
log                 log.run_ice_298K_-1000atm_ML
