

read_data data.ice_${TEMP}K_${PRES}atm_ML group ice
read_data data.ice_298K_${PRES}atm_ML group ice
read_data data.ice_298K_-1000atm_ML group ice
Reading data file ...
  orthogonal box = (-0.091466585 -0.081303631 -0.081303631) to (57.361977 50.988424 50.988424)
  3 by 1 by 2 MPI processor grid
  reading atoms ...
  4608 atoms
  reading velocities ...
  4608 velocities
  read_data CPU = 0.021 seconds
read_data data.liq_${TEMP}K_${PRES}atm_ML add append shift ${X_HI} ${YZ_LO} ${YZ_LO} group water
read_data data.liq_298K_${PRES}atm_ML add append shift ${X_HI} ${YZ_LO} ${YZ_LO} group water
read_data data.liq_298K_-1000atm_ML add append shift ${X_HI} ${YZ_LO} ${YZ_LO} group water
read_data data.liq_298K_-1000atm_ML add append shift 50.9884236307857 ${YZ_LO} ${YZ_LO} group water
read_data data.liq_298K_-1000atm_ML add append shift 50.9884236307857 0.0813036307894315 ${YZ_LO} group water
read_data data.liq_298K_-1000atm_ML add append shift 50.9884236307857 0.0813036307894315 0.0813036307894315 group water
Reading data file ...
  orthogonal box = (-0.091466585 -0.21236011 -0.21236011) to (104.68430 51.282087 51.282087)
  3 by 1 by 2 MPI processor grid
  reading atoms ...
  4608 atoms
  reading velocities ...
  4608 velocities
  read_data CPU = 0.020 seconds

write_data data.icewater_test
System init for write_data ...
WARNING: Communication cutoff is 0.0. No ghost atoms will be generated. Atoms may get lost. (../comm_brick.cpp:167)

# Define potential
#
pair_style sw
pair_coeff * * /data/emrosky-sim/Freezing_Simulations/Melting/MLmW_fancy/ML_mW.sw mW
Reading sw potential file /data/emrosky-sim/Freezing_Simulations/Melting/MLmW_fancy/ML_mW.sw with DATE: 2019-02-27

# Delete water and ice atoms that are overlapping
#
delete_atoms overlap 2.5 water ice
System init for delete_atoms ...
Neighbor list info ...
  update every 1 steps, delay 10 steps, check yes
  max neighbors/atom: 2000, page size: 100000
  master list distance cutoff = 6.0032907
  ghost atom cutoff = 6.0032907
  binsize = 3.0016454, bins = 35 18 18
  2 neighbor lists, perpetual/occasional/extra = 1 1 0
  (1) command delete_atoms, occasional, copy from (2)
      attributes: full, newton on
      pair build: copy
      stencil: none
      bin: none
  (2) pair sw, perpetual
      attributes: full, newton on
      pair build: full/bin/atomonly
      stencil: full/bin/3d
      bin: standard
Deleted 715 atoms, new total = 8501

# set timestep
#
timestep 10.0

# Define output
#
compute 1 all msd
thermo 50
thermo_style custom step temp press vol etotal ke pe c_1[4]

# Neighbor lists
#
neigh_modify delay 0 every 1 check yes

# Set fixes
#
fix 1 all momentum 10 linear 1 1 1 rescale
fix 2 all nph iso ${PRES} ${PRES} ${PCOUPL}
fix 2 all nph iso -1000 ${PRES} ${PCOUPL}
fix 2 all nph iso -1000 -1000 ${PCOUPL}
fix 2 all nph iso -1000 -1000 10000.0
fix 3 all temp/csvr ${TEMP} ${TEMP} ${TCOUPL} 837492
fix 3 all temp/csvr 298 ${TEMP} ${TCOUPL} 837492
fix 3 all temp/csvr 298 298 ${TCOUPL} 837492
fix 3 all temp/csvr 298 298 5000.0 837492


# Fix ice atoms in place
#
velocity ice set 0.0 0.0 0.0
fix 4 ice setforce 0.0 0.0 0.0

# Run 1.0 ns equilibration of water
#
dump 1 all atom 1000 eq.all.${NAME}.dump
dump 1 all atom 1000 eq.all.coexist_298K_-1000atm_ML.dump
run 100000
Neighbor list info ...
  update every 1 steps, delay 0 steps, check yes
  max neighbors/atom: 2000, page size: 100000
  master list distance cutoff = 6.0032907
  ghost atom cutoff = 6.0032907
  binsize = 3.0016454, bins = 35 18 18
  1 neighbor lists, perpetual/occasional/extra = 1 0 0
  (1) pair sw, perpetual
      attributes: full, newton on
      pair build: full/bin/atomonly
      stencil: full/bin/3d
      bin: standard
Per MPI rank memory allocation (min/avg/max) = 4.591 | 4.599 | 4.606 Mbytes
Step Temp Press Volume TotEng KinEng PotEng c_1[4] 
       0    134.87199   -1963.8561    277831.62   -82878.131    3417.2361   -86295.367            0 
      50    160.71073   -1402.3631    275978.71   -82579.068    4071.9092   -86650.977   0.86915718 
     100    168.95644    -783.3092    272866.61   -82261.492    4280.8299   -86542.322    1.8965334 
     150    178.94317   -553.51387    271474.31   -81918.004    4533.8627   -86451.867    3.0500156 
     200    184.84814   -810.62955    272072.78   -81676.529    4683.4762   -86360.005    4.1528789 
     250    183.24158   -791.05887    273309.24   -81357.336    4642.7709   -86000.107    5.2187408 
     300    191.21781   -1283.3896    274484.22    -81000.52    4844.8638   -85845.384    6.4971015 
     350    195.70399   -1112.1108    274960.32   -80771.254    4958.5295   -85729.784    7.7589062 
     400    199.20794     -1313.29    274806.45   -80543.149    5047.3087   -85590.458    9.0982479 
     450    202.79307   -903.41732    274350.96   -80277.454    5138.1449   -85415.599    10.410945 
     500     208.6351   -707.12689    274439.39    -80074.29    5286.1637   -85360.454    12.044329 
     550    211.04348    -1150.336    274951.28   -79870.284    5347.1846   -85217.468    13.881732 
     600    214.75998   -1081.9027    275261.06   -79668.173     5441.349   -85109.522     15.69981 
     650    219.33728   -1090.0541    275673.67   -79457.422    5557.3234   -85014.745    17.520199 
     700    221.90109   -1167.8471     275887.2   -79255.471    5622.2825   -84877.753    19.348894 
     750    222.59173   -932.59898    275502.99   -79093.211    5639.7813   -84732.992     21.18697 
     800      230.149   -740.32419    274948.98   -78912.205    5831.2589   -84743.464    23.325144 
     850    232.05127   -742.19458     275073.7   -78716.547    5879.4564   -84596.004    25.306303 
     900    236.69644   -974.77155    275787.29   -78538.034    5997.1506   -84535.185       27.656 
     950    233.42851   -1304.6637    276724.92   -78353.961    5914.3513   -84268.313    29.879912 
    1000    238.36337    -1066.625     276821.7   -78206.669    6039.3854   -84246.054    32.228258 
    1050    245.25704   -1063.6427    276328.87   -78093.905    6214.0494   -84307.954    34.823545 
    1100    243.51253   -915.10224     275748.9   -77989.365    6169.8491   -84159.214    36.995864 
    1150    247.87714   -1005.6066    275859.35    -77863.45    6280.4348   -84143.884    39.269025 
    1200    250.50358   -1100.7972     276468.9   -77756.541    6346.9805   -84103.521    41.867534 
    1250    246.95418   -1257.0441    277022.32   -77636.324    6257.0498   -83893.374    44.144114 
    1300    248.52318   -1115.7627    277163.71   -77542.612    6296.8034   -83839.416    46.861597 
    1350    253.70077   -946.39026    277142.54   -77454.871    6427.9874   -83882.858    49.766743 
    1400    255.02602   -1018.2708       277263   -77321.851    6461.5652   -83783.416    52.490374 
    1450     260.7726   -1158.8997    277333.05   -77212.802    6607.1655   -83819.968    54.955561 
    1500    258.89388   -995.39528     277372.3   -77133.942    6559.5646   -83693.507     57.67535 
    1550    261.68554    -795.1351    277328.24   -77053.989    6630.2964   -83684.286    60.940896 
    1600    268.50039   -1163.2548    277368.72   -76972.138    6802.9635   -83775.101    63.602177 
    1650    263.52989   -647.76285    277289.58   -76907.178    6677.0266   -83584.205     66.81601 
    1700    266.82263   -851.12712    277595.23   -76799.769    6760.4544   -83560.224    69.842752 
    1750    268.18994    -1019.216    277963.73   -76735.116    6795.0977   -83530.213    72.220182 
    1800    268.43325   -1140.8979    278050.49   -76629.019    6801.2625   -83430.282     74.84276 
    1850    268.56138   -1072.1519    278047.22   -76539.937    6804.5089   -83344.446    78.097068 
    1900    275.78185   -1110.7162    278103.85    -76451.68    6987.4532   -83439.134    81.423982 
    1950    274.57622   -937.16208       278203   -76372.263    6956.9062    -83329.17     84.61749 
    2000    272.18887    -806.7225    278441.58   -76273.858    6896.4182   -83170.277    87.947911 
    2050     276.4907   -1106.4786     278709.8   -76254.494    7005.4131   -83259.907    91.230625 
    2100    278.30176   -1312.2805    278736.34   -76222.143    7051.2998   -83273.443    94.582346 
    2150    277.27045   -954.43469    278523.08   -76160.434    7025.1695   -83185.604    97.443079 
    2200    277.89828   -1078.7924    278580.19   -76092.076     7041.077   -83133.153     100.6791 
    2250    282.00248   -1021.1169    278652.76   -76052.905    7145.0646    -83197.97    103.70469 
    2300    281.33789   -1048.5443    278855.39   -75955.372    7128.2259   -83083.598    106.75444 
    2350     282.0808   -1110.4249    279038.51   -75865.015    7147.0489   -83012.064    109.79485 
    2400     283.8221   -964.15763     278863.8   -75831.869     7191.168   -83023.037    112.53351 
    2450    285.99441   -1031.7772    278760.88    -75786.55    7246.2075   -83032.757     115.7626 
    2500    283.57173   -757.40835    279039.74   -75704.336    7184.8244   -82889.161    118.22251 
    2550     285.0972   -1049.0172     279416.1   -75667.243     7223.475   -82890.718    121.27608 
    2600    287.32184   -1245.9753    279770.06   -75636.025    7279.8405   -82915.866    124.10827 
    2650    289.30829   -900.77293    279649.93   -75554.227    7330.1711   -82884.398    126.94013 
    2700    291.62499   -1118.5549    279272.67   -75527.229     7388.869   -82916.098    129.88769 
    2750    287.87162   -956.73676    278472.89    -75560.54    7293.7702    -82854.31    132.16779 
    2800     294.0618   -592.30949    278207.28   -75537.642    7450.6102   -82988.252    135.43361 
    2850    289.92142    -993.0018     278907.2   -75544.179    7345.7059   -82889.885    139.14663 
    2900    287.87829   -1038.3107    279594.07   -75547.806    7293.9392   -82841.746    142.38445 
    2950    289.54618   -814.32025    279510.14   -75541.221    7336.1983   -82877.419    145.71772 
    3000    292.76526   -1161.6974    279238.03    -75499.92    7417.7598    -82917.68    149.07673 
    3050    291.07077   -845.09481    278957.35   -75508.577    7374.8268   -82883.403    152.19471 
    3100    293.85745   -1080.8653    279134.12   -75493.744    7445.4325   -82939.177    155.60854 
    3150    291.68145   -864.61875    279269.41   -75494.881    7390.2995   -82885.181    158.67101 
    3200    291.14702   -1263.0636    279416.43   -75451.381    7376.7588    -82828.14    162.28586 
    3250    292.67364   -1121.5112    279410.68   -75422.746    7415.4385   -82838.185    165.64947 
    3300    293.33467   -1135.4644    279450.39    -75376.39     7432.187   -82808.577    169.49005 
    3350    294.09462   -1062.5407     279480.1    -75269.84    7451.4417   -82721.282    173.48049 
    3400    295.87835   -1236.0542    279527.94    -75313.94    7496.6357   -82810.576    176.60697 
    3450    295.01424   -988.28002    279260.49   -75335.481    7474.7421   -82810.224    179.66472 
    3500    295.66136   -963.06348    279384.75   -75319.775     7491.138   -82810.913    182.76037 
    3550    292.33885    -934.4352    279402.14   -75268.942     7406.956   -82675.898    186.45784 
    3600     292.7727   -726.72725    279357.88   -75278.349    7417.9484   -82696.297    189.23917 
    3650    297.01606    -1147.924    279613.35   -75287.408     7525.462    -82812.87    191.96604 
    3700    295.11748   -1064.7922    279718.86    -75278.23    7477.3578   -82755.587    194.99109 
    3750    296.41076   -1010.4694    279654.17   -75307.933    7510.1255   -82818.058    198.42503 
    3800     296.7033   -1036.9593    279546.03   -75312.175    7517.5374   -82829.712    201.98466 
    3850    294.81475   -1160.2892     279402.2   -75296.229    7469.6876   -82765.917    204.78415 
    3900    297.17064   -887.37512    279048.71   -75311.865    7529.3785   -82841.243    207.64401 
    3950    300.58135   -757.58408    279027.74   -75277.128    7615.7952   -82892.923    210.49615 
    4000    296.48329   -950.65665    279329.08   -75276.985    7511.9632   -82788.949    214.13866 
    4050    292.50766   -970.26123    279860.66   -75252.932     7411.233   -82664.165     217.6531 
    4100    296.32272   -1242.6426    280034.74   -75242.567    7507.8947   -82750.462    221.23039 
    4150     302.3772   -1166.4222    279851.81   -75203.524    7661.2965   -82864.821    224.35476 
    4200    298.93364   -791.16072     279311.3   -75203.529    7574.0473   -82777.576    227.91905 
    4250    301.20836   -890.62501    279230.16   -75189.462    7631.6817   -82821.144    230.94182 
    4300    293.72582   -917.31128    279421.84   -75193.127    7442.0974   -82635.225    234.39671 
    4350    298.15541   -897.91181    279584.67   -75211.854    7554.3296   -82766.183    238.80921 
    4400    295.46329   -970.09039    279528.26   -75199.624    7486.1196   -82685.743    241.82772 
    4450    299.90895   -1006.7985    279528.71   -75142.212    7598.7588   -82740.971    245.24448 
    4500    300.32846   -937.94005    279655.07   -75088.918    7609.3877   -82698.306    248.36804 
    4550     299.1312    -1080.438    280033.78   -75035.642     7579.053   -82614.695      252.142 
    4600    299.44447   -1173.5483    280309.93   -75026.119    7586.9904   -82613.109    255.64438 
    4650    298.38127   -1125.7309    280328.68   -74963.217    7560.0519   -82523.269    259.16311 
    4700    304.45336   -1140.3691    279867.97   -74953.099    7713.8999   -82666.998     261.2258 
    4750    293.09591   -523.74361    279384.45   -74979.122    7426.1374   -82405.259    264.36365 
    4800    302.73589   -894.43294    279638.95   -74975.772    7670.3846   -82646.157    267.57978 
    4850    297.39224   -1183.8212    280097.73   -74969.612    7534.9931   -82504.605    271.00482 
    4900    306.06777   -1127.8001    280109.38   -74975.356    7754.8041    -82730.16    273.60915 
    4950    296.61477   -1084.7464    279818.06   -74987.636    7515.2944    -82502.93    275.68509 
    5000     302.3965    -830.4308    279318.12   -75020.704    7661.7855    -82682.49    279.15593 
    5050     303.0546   -994.97949    279452.14   -75031.909    7678.4597   -82710.369    282.63855 
    5100     302.4908   -993.99462     279729.2   -75042.155    7664.1748   -82706.329    285.49376 
    5150    291.82835   -1063.5463    280262.94   -75056.844    7394.0214   -82450.865    289.39069 
    5200    298.71866   -1102.6825    280535.61   -75056.567    7568.6004   -82625.168    293.52469 
    5250    295.69778   -1249.5919    280420.21   -75036.543    7492.0607   -82528.604    297.52072 
    5300    302.05963   -1300.4956    279892.53   -75036.325    7653.2503   -82689.575    300.47929 
    5350    299.06215   -929.76667    279505.36     -75006.7    7577.3035   -82584.003    302.75142 
    5400    301.41906   -938.04843    279533.88   -75064.443    7637.0202   -82701.463    305.26017 
    5450     304.0195   -1036.9803    279839.25   -75039.564    7702.9073   -82742.472    308.30763 
    5500    303.79077   -896.59982    280016.17   -75039.977    7697.1118   -82737.089    311.33158 
    5550    297.17709   -1194.2762    280070.45   -75086.494    7529.5418   -82616.036    315.16969 
    5600    300.14109   -929.51532    279845.67   -75152.391    7604.6403   -82757.031    317.99525 
    5650    303.05551    -873.5364    279418.82   -75249.185    7678.4826   -82927.667    320.79973 
    5700     297.5505   -1220.6579    279370.22   -75225.216    7539.0029   -82764.219    323.05662 
    5750    298.27873   -950.22079    279150.01   -75207.408     7557.454   -82764.862    325.54443 
    5800    297.73761   -1119.9745    279114.12   -75208.296    7543.7437    -82752.04    328.72514 
    5850    299.49287   -948.79143    279584.08   -75136.013    7588.2164   -82724.229    332.59655 
    5900    297.32301    -1254.117    280137.17   -75158.041    7533.2391    -82691.28    336.92777 
    5950    296.90052   -931.30148    279960.19   -75166.112    7522.5344   -82688.647    340.22519 
    6000    298.64221   -956.72784    279327.56   -75174.412    7566.6633   -82741.075    343.27011 
    6050     300.8033   -821.09412    278987.84   -75117.819    7621.4186   -82739.237    347.20143 
    6100    295.66415   -951.25329    279272.76   -75119.296    7491.2086   -82610.505    351.10024 
    6150    303.82913    -1068.089     279411.2   -75110.446    7698.0837    -82808.53    354.99992 
    6200    298.78523   -921.08904    279625.93   -75125.274    7570.2872   -82695.561    358.21211 
    6250    295.64926   -945.07423    279751.37   -75100.717    7490.8315   -82591.548     361.0421 
    6300    301.95294   -1207.5944    279616.66   -75071.177    7650.5471   -82721.725    364.07952 
    6350    300.89017   -849.13547    279493.87   -75042.506    7623.6197   -82666.125     367.9447 
    6400     298.2834   -904.58586    279673.56   -75114.932    7557.5722   -82672.505    370.98465 
    6450    299.59124    -1151.441    279691.18   -75120.772     7590.709   -82711.481    372.96371 
    6500    304.23469   -1062.5645    279670.38    -75069.12    7708.3594    -82777.48    375.82083 
    6550    301.29737   -1114.9565    279540.12   -75050.152     7633.937   -82684.089    378.14665 
    6600    299.64962   -737.52259    279420.06   -75073.906    7592.1882   -82666.094    381.16062 
    6650    298.57514   -1384.4731    279688.35   -75118.237    7564.9642   -82683.201    384.14486 
    6700     297.6169   -1220.7105    279598.62   -75132.326    7540.6852   -82673.011    387.28225 
    6750    296.09344   -779.42594    279364.43   -75158.007    7502.0857   -82660.092    390.51113 
    6800     296.4712   -930.03448    279094.74   -75126.178    7511.6569   -82637.835    393.48076 
    6850     298.3772    -879.6787    279068.14   -75133.843    7559.9489   -82693.792    396.21051 
    6900    295.23229   -991.78687    279689.24   -75082.986    7480.2668   -82563.252     399.6053 
    6950    299.13514   -1220.4103    280242.53   -75071.296    7579.1529   -82650.449    403.68075 
    7000     301.8342   -1349.1925     280202.6   -75046.602    7647.5386   -82694.141    406.34768 
    7050    297.05675   -1018.8041    279664.01   -75037.658    7526.4928   -82564.151    408.85535 
    7100    302.61897   -791.84738    278947.78   -75056.127    7667.4222   -82723.549     412.0173 
    7150    303.59176   -1015.7605    278968.26   -75121.078    7692.0695   -82813.148    415.81799 
    7200     300.9383   -910.61186    279405.01   -75158.654    7624.8392   -82783.494    419.94023 
    7250    300.08221   -1116.5846    280109.28   -75102.122    7603.1487    -82705.27    424.39122 
    7300    299.79136   -1057.9455    280328.82   -75077.312    7595.7793   -82673.091    428.84269 
    7350    295.32474   -1037.0689    280107.93   -75064.136    7482.6092   -82546.745    431.39115 
    7400    293.97905   -819.97514    279612.71   -75023.315    7448.5136   -82471.828    432.75346 
    7450     302.3212    -1055.864    279380.11   -75000.551    7659.8775   -82660.429    436.23933 
    7500    297.60097   -1031.8552    279310.66   -75076.188    7540.2817    -82616.47    439.35043 
    7550    303.73496   -1161.9363    279523.46    -75112.21     7695.698   -82807.908    441.96613 
    7600    297.12695   -718.47783     279781.9   -75049.385    7528.2716   -82577.657    445.50805 
    7650     303.1959   -901.54939    279866.31   -75063.583    7682.0397   -82745.622    448.32597 
    7700    300.16111    -937.2557       279749   -75050.736    7605.1476   -82655.884    452.13203 
    7750    304.54007   -1147.0934    279650.29   -75022.855     7716.097   -82738.952     454.9326 
    7800     298.4787   -926.88946    279699.92   -75052.038    7562.5205   -82614.559    459.04669 
    7850     296.4567   -946.39544    279757.59   -75021.309    7511.2895   -82532.598    462.08063 
    7900     298.7139   -852.99555    279915.28   -75055.337    7568.4799   -82623.817     465.6839 
    7950    298.61614   -985.47664    280241.32   -75096.354    7566.0029   -82662.357    469.43864 
    8000    299.02256    -1350.769    280302.89    -75076.87    7576.3004    -82653.17    471.04403 
    8050    293.97221   -850.75823    279485.14   -75066.847    7448.3403   -82515.187     473.3866 
    8100    299.07297   -684.89152    278913.99   -75122.497    7577.5775   -82700.074    475.41225 
    8150     298.0732   -690.79218    279213.91   -75067.151    7552.2465   -82619.398    478.00855 
    8200    297.87355   -1261.1337    280143.69   -75084.358    7547.1881   -82631.546    480.91053 
    8250    297.04998   -1576.8325    280799.22   -75067.845    7526.3213   -82594.166    483.97481 
    8300    299.79809   -1226.0645     280161.6   -75062.104    7595.9498   -82658.054    485.82934 
    8350    298.09049   -885.30525    279292.42   -75126.938    7552.6847   -82679.623    487.05995 
    8400    300.30106   -874.19998    279163.74   -75140.147    7608.6935   -82748.841    488.38505 
    8450    302.02256   -1028.7769    279658.76   -75132.584     7652.311   -82784.895    491.36647 
    8500    294.56977   -1016.2578    280304.88   -75100.198    7463.4804   -82563.679    494.77913 
    8550    295.22831   -1046.9789    280479.81   -75128.057    7480.1659   -82608.223    497.70539 
    8600    301.72295   -1086.3974     279878.9   -75135.135    7644.7198   -82779.855    498.93555 
    8650    300.57741   -749.08115    279050.06   -75143.555    7615.6954    -82759.25    501.39659 
    8700    299.99018   -896.60087    278874.04   -75150.699    7600.8169   -82751.516      503.439 
    8750     298.4751   -768.86707    279195.11   -75113.089    7562.4294   -82675.518    506.81486 
    8800    295.50109   -1209.9823    279767.02   -75113.177    7487.0772   -82600.254     509.9627 
    8850    297.85924   -1149.5497    279718.13   -75159.856    7546.8254   -82706.681    514.43933 
    8900     301.0949   -833.21807    279388.91   -75184.249    7628.8069   -82813.056    516.73931 
    8950    295.13891   -1016.7013    279510.56   -75164.557    7477.9008   -82642.458    518.64292 
    9000    297.72756   -1326.2512    279845.72   -75149.822    7543.4892   -82693.311    521.46686 
    9050    299.59325   -926.80761       279628   -75149.131    7590.7597   -82739.891    523.97968 
    9100     299.7521   -770.50436    279422.65   -75210.562    7594.7847   -82805.347    526.94209 
    9150    299.66392   -1319.9227    279687.16   -75169.329    7592.5505    -82761.88    529.52322 
    9200    297.20652   -1209.1392    279844.03   -75175.466    7530.2876   -82705.754    532.33017 
    9250    296.06359    -751.7369    279778.15   -75209.338    7501.3293   -82710.667    535.49011 
    9300    292.65507   -1168.8929     279714.5   -75257.526     7414.968   -82672.494    538.75373 
    9350    295.70081   -1132.0501    279721.75   -75227.053    7492.1375   -82719.191    542.96546 
    9400    298.17301   -1201.9676    279784.04   -75221.352    7554.7754   -82776.127    546.07656 
    9450    298.17184   -1172.0989    279807.06   -75177.182    7554.7457   -82731.927     549.5463 
    9500     296.5958   -1199.1619    279344.66   -75201.864    7514.8138   -82716.678    552.77317 
    9550    297.89573   -650.81806    278940.91   -75192.552      7547.75   -82740.302    553.96584 
    9600    301.46018   -1082.3951    279412.03   -75173.006    7638.0621   -82811.069    557.57111 
    9650    291.89128    -1200.866    280042.58   -75187.489    7395.6159   -82583.105    561.57913 
    9700    298.13758   -1254.0034    280305.55   -75183.872    7553.8777    -82737.75    563.72251 
    9750    295.54149   -1357.9462    279947.81   -75191.248    7488.1009   -82679.349    564.55236 
    9800    297.05413    -516.5455    279089.72   -75221.065    7526.4264   -82747.491    564.58287 
    9850    298.02277   -506.89088     278806.8    -75217.23    7550.9689   -82768.199    567.77799 
    9900    298.26822   -1309.7359    279260.49   -75212.949    7557.1876   -82770.136    572.41206 
    9950    295.78657   -878.53097    279656.29   -75187.854    7494.3105   -82682.165     576.4783 
   10000    299.61358   -1355.6509    279911.01    -75184.09    7591.2751   -82775.365    579.60378 
   10050    297.01482   -1103.4131    279858.09   -75182.199    7525.4305   -82707.629    583.09499 
   10100    299.41971    -1113.823     279643.8   -75156.074    7586.3629   -82742.437    586.63026 
   10150    300.46222   -848.27293    279545.78   -75143.572    7612.7768   -82756.349    589.72492 
   10200    301.16112   -998.68523     279755.5   -75127.411    7630.4848   -82757.896    592.21724 
   10250    301.74918   -1343.2395    279939.25   -75136.801    7645.3844   -82782.186     595.5284 
   10300    293.67639   -1003.3814    279793.71   -75113.837     7440.845   -82554.682    597.68501 
   10350    300.63655   -831.44719    279643.54   -75118.414    7617.1939   -82735.607    600.50494 
   10400    294.40361   -812.93643    279438.73   -75180.973    7459.2704   -82640.244    603.69902 
   10450    298.61862    -886.3618    279436.28   -75159.614    7566.0659   -82725.679    605.75368 
   10500     300.8805   -1347.7992    279768.27   -75150.289    7623.3746   -82773.663    607.04275 
   10550    295.60496   -801.94666    280035.49   -75120.094    7489.7091   -82609.804     609.2826 
   10600    295.51448   -1101.5749    279981.54   -75117.172    7487.4166   -82604.589    612.83417 
   10650    298.80697   -817.68032    279378.07   -75106.576    7570.8378   -82677.414    615.06483 
   10700    301.71756   -872.25823    278979.13   -75149.464    7644.5833   -82794.048    616.08142 
   10750    294.47803   -717.09037     279127.5   -75113.986     7461.156   -82575.142    619.53398 
   10800    297.48685   -1122.1728    279690.54   -75128.697    7537.3901   -82666.087    623.87356 
   10850    298.02013   -1292.5501    279939.29   -75065.322    7550.9018   -82616.224    628.10556 
   10900    298.11546   -706.60443    279610.87   -75074.101    7553.3174   -82627.418    631.39212 
   10950    303.09947   -1270.0124     279648.7   -75085.025    7679.5965   -82764.621    635.19522 
   11000    298.43231   -779.82987    279700.57    -75120.09    7561.3454   -82681.435    638.28687 
   11050    295.18055   -1237.0825    279809.95   -75146.929    7478.9559   -82625.885    642.03384 
   11100      294.965   -802.22675    279652.48   -75126.081    7473.4943   -82599.576    644.55482 
   11150    300.19622   -1105.8897    279654.65   -75137.478    7606.0372   -82743.515    648.68196 
   11200    297.76209   -983.78463    279521.82   -75124.129     7544.364   -82668.493    651.80842 
   11250    298.51982   -926.40003    279586.46   -75157.414    7563.5624   -82720.976    655.26403 
   11300    300.29706   -1312.1858    279777.19    -75138.99    7608.5921   -82747.582     658.5338 
   11350      295.925    -879.3119    279752.08   -75171.853    7497.8177    -82669.67    662.21074 
   11400    290.80555   -1197.5795    279952.08   -75163.409    7368.1069   -82531.516    664.96465 
   11450     294.2931   -810.17369    279762.88   -75217.729    7456.4704     -82674.2    667.88091 
   11500    296.09846   -958.41298    279249.99   -75217.125    7502.2128   -82719.338    670.83426 
   11550    297.69064   -747.18275    279067.24   -75249.169    7542.5536   -82791.723    673.64872 
   11600    295.40749    -1076.938    279330.26    -75224.05    7484.7058   -82708.756    677.07239 
   11650    299.30449   -1160.6225    279461.87   -75216.355    7583.4435   -82799.798    680.46041 
   11700    295.80995   -1267.5084    279486.18   -75176.552    7494.9029   -82671.455    683.15171 
   11750    300.85094   -908.02147    279215.63   -75204.082    7622.6258   -82826.707    685.74672 
   11800    294.58023   -686.93039    279180.13   -75224.649    7463.7456   -82688.394    689.30242 
   11850    301.37448   -1000.3513    279452.16   -75154.216    7635.8908   -82790.107    694.04577 
   11900    290.34271   -1306.6561    280044.96   -75219.415    7356.3801   -82575.795      697.707 
   11950    293.21812   -1293.6432    280203.43   -75208.551    7429.2338   -82637.785    698.14397 
   12000    295.88238   -1275.3731    279575.85   -75228.418    7496.7379   -82725.156    700.25884 
   12050      295.925   -912.48467    278858.93   -75228.308    7497.8177   -82726.126    702.90104 
   12100    297.89041   -605.08706    278732.36   -75198.612    7547.6153   -82746.227    706.08065 
   12150    294.55584   -894.58188    279420.25   -75180.575    7463.1276   -82643.702    711.13229 
   12200    295.32565   -1456.2205    280249.24   -75160.912    7482.6322   -82643.544    715.67858 
   12250    299.53791   -1376.5908    280435.71   -75115.941    7589.3577   -82705.299    719.56837 
   12300    298.22276   -996.83075    279667.39   -75137.163    7556.0359   -82693.199    721.71113 
   12350    300.12939   -994.96392    279097.31   -75176.881    7604.3441   -82781.225    723.99572 
   12400    295.06571   -1140.5144    279126.96    -75220.99     7476.046   -82697.036    726.41435 
   12450    297.03289   -827.79623    279082.62   -75194.677    7525.8884   -82720.565     728.7872 
   12500    304.59018   -878.82315    278945.06   -75175.115    7717.3666   -82892.482    730.75275 
   12550    293.81345   -1034.8481    279297.64   -75218.386    7444.3177   -82662.704    734.92188 
   12600     298.1131   -1053.6196    279897.87   -75162.489    7553.2573   -82715.747     741.1523 
   12650    292.57646   -1202.2498    280107.33   -75167.691    7412.9762   -82580.667    744.75473 
   12700     299.8961   -1251.3867    279769.22   -75148.787    7598.4332    -82747.22     747.9159 
   12750    294.44754    -970.2617    279342.33   -75204.335    7460.3835   -82664.718    752.17307 
   12800    299.92291   -1048.6693    279461.04   -75228.986    7599.1125   -82828.099    758.14408 
   12850    293.50599   -1023.0398    279645.19   -75217.855    7436.5276   -82654.383    761.47142 
   12900    300.40727   -1060.4436    279553.25   -75197.662    7611.3846   -82809.046    764.07174 
   12950      299.603   -768.64657    279207.36    -75215.75    7591.0069   -82806.757    767.29974 
   13000    297.65977   -883.70963     278981.4   -75189.944    7541.7714   -82731.715    769.84317 
   13050     302.8603   -876.67995     279140.8   -75180.474    7673.5366    -82854.01    774.23502 
   13100    299.22843   -1264.1425    279814.58   -75141.444    7581.5164    -82722.96    779.40737 
   13150    295.62395   -1228.7088    280060.61   -75159.033    7490.1902   -82649.223    783.18024 
   13200    299.35128   -713.52454    279727.34   -75187.034     7584.629   -82771.663    785.34052 
   13250     293.5151   -1084.8107    279252.54   -75242.255    7436.7583   -82679.013    787.87348 
   13300    297.98726   -809.02856    278772.88   -75250.666     7550.069   -82800.735     789.4664 
   13350    293.43581   -769.48327     278807.8   -75227.127    7434.7495   -82661.877    792.74302 
   13400    293.16396   -691.18375    279456.04   -75237.828    7427.8616   -82665.689    797.16495 
   13450    294.55728   -1434.6522    280168.94   -75256.734    7463.1641   -82719.899    803.77947 
   13500    300.01167   -1319.9639    280143.56   -75224.776    7601.3614   -82826.137    807.08451 
   13550    295.55875   -1027.2996    279292.02   -75321.589    7488.5381   -82810.127    810.01739 
   13600    293.44632    -986.3773    278566.99   -75339.248    7435.0157   -82774.264    811.23877 
   13650    297.49756   -645.87764    278287.12   -75358.858    7537.6615   -82896.519    812.06059 
   13700    298.09028   -904.34902    278864.93   -75349.375    7552.6794   -82902.055    815.65218 
   13750    295.10869   -1144.3507    279843.42   -75312.557    7477.1349   -82789.692    819.71468 
   13800    289.98504   -1189.4522    280327.04   -75348.514    7347.3177   -82695.831    823.83194 
   13850    294.69889   -843.63626    279694.35    -75351.08     7466.752   -82817.832    824.19198 
   13900    297.64254   -818.52595    279127.22   -75321.432    7541.3349   -82862.767    823.87798 
   13950    296.65258   -871.14263    279007.71   -75347.723    7516.2525   -82863.976    827.71219 
   14000    296.00026   -764.25444    279066.54   -75292.659    7499.7247   -82792.384    829.24423 
   14050    296.26372   -864.76064    279300.35    -75271.67    7506.3999   -82778.069    834.12367 
   14100    297.75216   -957.46688    279431.24   -75270.452    7544.1123   -82814.564    837.84136 
   14150    296.70382   -1162.0304    279312.26   -75270.301    7517.5508   -82787.852    839.76352 
   14200    297.42636   -887.46981    279069.09   -75271.029    7535.8576   -82806.887    844.01515 
   14250    303.18103   -999.68223    278931.51   -75201.509    7681.6629   -82883.172    846.88476 
   14300    295.07184   -1004.0053    279088.67   -75218.947    7476.2013   -82695.148    849.74001 
   14350      303.332   -1027.8004    279214.13   -75227.595    7685.4881   -82913.083    852.01557 
   14400    299.31245   -664.95454    279144.96   -75205.711    7583.6452   -82789.356    854.20795 
   14450    293.60809   -1086.7031    279274.17   -75245.613    7439.1145   -82684.727    856.25812 
   14500    291.88575   -1095.9035    279600.85   -75243.854    7395.4757    -82639.33    860.01016 
   14550    292.06345   -945.06542    279761.73   -75287.657    7399.9782   -82687.636    861.83456 
   14600    297.90095   -1190.1158    279838.83   -75276.496    7547.8822   -82824.378    864.95092 
   14650    297.48206   -991.05838    279462.15   -75292.967    7537.2689   -82830.236     866.0626 
   14700    296.21793   -811.55472    278924.69    -75268.49    7505.2397    -82773.73     866.4492 
   14750    295.49816   -860.61016    278575.43   -75279.791     7487.003   -82766.794    868.02878 
   14800    299.30533   -1099.2797    278643.87   -75329.479    7583.4648   -82912.944    868.57894 
   14850    295.69402   -1032.0589    278939.43    -75338.78    7491.9655   -82830.745    871.22157 
   14900    294.47124   -780.65304    279312.64   -75336.629     7460.984   -82797.613    873.44921 
   14950    294.22341   -1178.8578    279854.93   -75405.732    7454.7049   -82860.437    876.13451 
   15000    293.55752   -1101.0086    280249.04   -75384.625    7437.8334   -82822.459    880.94902 
   15050    289.76896   -1297.9805    279917.03   -75378.036    7341.8429   -82719.878     883.6466 
   15100    296.39236   -767.09713     278778.9   -75380.767    7509.6594   -82890.427    882.99143 
   15150    294.46178   -758.75914    278259.99   -75391.002    7460.7445   -82851.747    884.19051 
   15200    297.53913   -994.79698    278692.62   -75379.859     7538.715   -82918.573    887.74312 
   15250    292.68123   -1190.1356    279482.83   -75379.327    7415.6307   -82794.957    892.70528 
   15300    293.42985   -802.84146    279803.84   -75329.036    7434.5984   -82763.634    897.74838 
   15350    296.65952   -1176.5383    279748.13   -75334.041    7516.4283   -82850.469    899.86736 
   15400    293.16837   -950.71868    279364.45   -75295.558    7427.9735   -82723.531     901.6006 
   15450     294.5892   -997.99269     278922.9   -75309.988    7463.9729   -82773.961    902.87815 
   15500    302.66837   -764.24824    278757.54   -75309.138    7668.6738   -82977.812    905.89917 
   15550    294.37478   -901.98442    279300.64   -75310.571    7458.5402   -82769.111    911.27924 
   15600    294.57956   -906.17969    279716.07   -75298.114    7463.7285   -82761.843    914.62338 
   15650    290.87431   -955.32934    279798.24   -75302.749    7369.8491   -82672.598    917.38161 
   15700    293.61189   -1215.7196    279461.46    -75272.52    7439.2108   -82711.731    919.63024 
   15750    295.62267   -910.00476     279112.9   -75285.544    7490.1578   -82775.702    922.44216 
   15800    296.69445   -1211.1364    279241.49   -75273.405    7517.3132   -82790.719    925.95406 
   15850    297.32372   -1179.0068    279454.88   -75250.004    7533.2571   -82783.261    929.97159 
   15900    295.89772   -1097.7684    279707.58   -75254.273    7497.1266     -82751.4    932.18011 
   15950    296.66697   -911.78398    279707.99   -75222.863    7516.6171    -82739.48    934.72161 
   16000    294.95672   -1103.9401    279426.68   -75196.663    7473.2847   -82669.948    937.52236 
   16050    297.67965   -920.52994    279371.16   -75149.254    7542.2751   -82691.529    939.65558 
   16100    298.23068   -909.14149    279692.68    -75148.67    7556.2364   -82704.907    942.15306 
   16150     297.5389   -1224.5817    280187.46   -75137.935    7538.7091   -82676.644    946.23059 
   16200    297.66135   -1158.8925    279991.76   -75085.973    7541.8115   -82627.784    950.03143 
   16250    301.11344   -904.90921    279322.38   -75084.357    7629.2767   -82713.634    951.74082 
   16300    298.12553   -802.27944    278794.69   -75105.106    7553.5723   -82658.679    952.49452 
   16350     304.6175   -917.72948    278984.31   -75132.657    7718.0588   -82850.716    955.66433 
   16400    304.73507   -1094.1922    279506.36   -75108.921    7721.0377   -82829.959     958.7364 
   16450    303.44526   -961.31331    279731.38   -75150.818    7688.3577   -82839.176     960.9577 
   16500    306.54241   -967.23438    279670.81   -75124.079    7766.8299   -82890.909    962.92898 
   16550    302.24112   -1445.4121    279674.28   -75089.054    7657.8487   -82746.902    963.82915 
   16600    303.62344   -848.83289    279288.92   -75080.203    7692.8723   -82773.076    965.60839 
   16650    302.00046   -993.53182    279311.95   -75021.475     7651.751   -82673.226    968.31813 
   16700    298.19097   -902.09523    279612.76   -75103.875    7555.2303   -82659.106    971.64697 
   16750    300.03678   -1155.7769    279898.24    -75118.66    7601.9976   -82720.657    975.45919 
   16800    296.33007   -1284.7563    280112.95   -75133.719     7508.081   -82641.801    977.56143 
   16850    299.50007   -1020.8537    279864.85   -75172.609     7588.399   -82761.008    978.96177 
   16900    292.68972   -1106.7853    279595.33   -75166.801    7415.8458   -82582.646     981.8559 
   16950    297.16004   -812.98855    279456.98   -75126.373      7529.11   -82655.483    985.09041 
   17000    293.78538   -1025.0757    279492.15   -75159.616    7443.6064   -82603.223    989.86405 
   17050    301.99994   -1089.7341    279409.91   -75132.719    7651.7378   -82784.457    993.85648 
   17100    299.69314   -831.04677    279322.46   -75142.896    7593.2908   -82736.187    996.47691 
   17150    298.75126   -864.68261    279522.47    -75077.42    7569.4264   -82646.846    999.87369 
   17200    301.46825   -1203.6468     279802.8   -75037.116    7638.2664   -82675.382     1003.717 
   17250    299.86592    -1061.252    279775.22   -75041.344    7597.6683   -82639.012    1008.3057 
   17300    302.35167   -863.61086    279661.53   -74995.002    7660.6496   -82655.651    1011.9812 
   17350    299.76289   -856.60664    279783.14   -75036.307    7595.0581   -82631.365    1014.5579 
   17400    301.16076   -957.56933    279662.07   -75063.854    7630.4756    -82694.33    1016.7826 
   17450    297.08861   -728.88622    279092.68    -75034.68    7527.3001    -82561.98    1018.1978 
   17500     299.1353   -749.27085    278883.28   -75089.747    7579.1568   -82668.904    1019.4063 
   17550    300.62254   -931.58302    279513.02    -75128.31    7616.8389   -82745.149    1022.7302 
   17600    296.84884   -960.77739    280435.41   -75090.137    7521.2251   -82611.363    1027.7653 
   17650    297.12528   -1072.2909    280601.58   -75035.002    7528.2291   -82563.231    1030.1219 
   17700    301.38184   -1035.9167    279768.05   -75024.713    7636.0773    -82660.79     1030.834 
   17750    298.90566   -476.57118    278748.65   -75035.935    7573.3385   -82609.274    1031.8141 
   17800    304.59254   -436.53271    278343.56   -75045.778    7717.4263   -82763.204    1033.3501 
   17850    299.28638   -953.79651    278915.24   -75063.005    7582.9848    -82645.99    1036.6751 
   17900    300.07917   -1099.3982    279825.36   -75080.984    7603.0717   -82684.056     1040.572 
   17950    297.20635   -1208.3501    280197.62   -75088.382    7530.2832   -82618.665    1043.7375 
   18000    296.23902   -1118.8263    279953.45   -75149.595     7505.774   -82655.369    1046.0909 
   18050    297.40853   -1214.0034    279513.15   -75188.141    7535.4058   -82723.547    1047.1848 
   18100     296.0646   -821.13434    278797.64    -75231.95    7501.3549   -82733.305    1047.3904 
   18150    296.55604   -870.21757    278698.82   -75263.137    7513.8065   -82776.944    1049.7082 
   18200    300.14334   -962.44671     279133.7   -75204.516    7604.6974   -82809.213    1053.8458 
   18250    295.22896   -1157.1012    279600.11   -75133.825    7480.1824   -82614.007    1058.2503 
   18300    295.82462   -1250.1036    279747.58   -75109.327    7495.2744   -82604.601    1060.6677 
   18350    303.17393   -1128.5721    279514.32   -75107.574    7681.4832   -82789.057    1064.6279 
   18400    301.48148   -1343.7197    279255.69    -75118.21    7638.6017   -82756.812    1066.7481 
   18450    300.82281    -893.2717     278777.8   -75151.224    7621.9131   -82773.137    1066.6247 
   18500    302.38317   -1061.4604    279029.58   -75119.522    7661.4477    -82780.97    1069.0112 
   18550    296.92197   -679.09524    279570.17    -75078.88    7523.0779   -82601.958    1074.4454 
   18600    299.25863   -954.87029    280088.61   -75039.607    7582.2815   -82621.888    1081.3731 
   18650    300.01964   -1075.1101    280157.13   -75057.563    7601.5632   -82659.126    1084.4938 
   18700    299.18113   -920.83976    279663.69   -75078.882    7580.3181     -82659.2    1084.9813 
   18750    296.26364    -853.0417    279399.45   -75004.787    7506.3978   -82511.185    1086.0761 
   18800    301.65453   -1163.7673    279623.16   -75013.931    7642.9863   -82656.917    1088.2122 
   18850    304.16347   -1102.4041    279803.23   -75050.092    7706.5551   -82756.647    1090.9791 
   18900    299.41023   -1114.5597     279781.1    -75060.15    7586.1227   -82646.272    1093.0666 
   18950    301.33756   -1051.2711    279621.97   -75095.413    7634.9552   -82730.369    1096.1598 
   19000    298.46918   -881.38481    279492.71   -75070.238    7562.2795   -82632.517    1098.4243 
   19050    300.96724   -965.46356    279621.18   -75042.237    7625.5724   -82667.809    1100.6701 
   19100    298.95835   -1067.0337    279659.76    -75078.94    7574.6736   -82653.613    1103.6738 
   19150     301.4617   -796.75223     279460.9   -75046.359    7638.1006   -82684.459    1105.9213 
   19200    294.73296   -931.14663    279387.55   -75060.788    7467.6153   -82528.404     1109.493 
   19250    298.53359   -966.78276    279498.16   -75054.599    7563.9115   -82618.511    1112.2924 
   19300    299.70875    -1011.909    279620.29   -75076.429    7593.6863   -82670.116    1116.7171 
   19350    301.26092   -1023.2342    279577.85   -75106.117    7633.0134    -82739.13    1120.5624 
   19400    296.85553   -725.25792    279284.12   -75125.697    7521.3946   -82647.092    1123.7124 
   19450    298.86082   -979.93483    279296.92   -75147.975    7572.2024   -82720.177    1126.0604 
   19500    301.77711   -1247.6153    279447.59    -75210.78    7646.0921   -82856.872    1130.8331 
   19550    296.70098   -943.31178    279547.44   -75136.939    7517.4788   -82654.418    1132.8866 
   19600    290.89679   -894.56362     279483.6   -75119.392    7370.4188    -82489.81    1135.2175 
   19650    301.22452   -1226.4792    279561.59   -75081.275    7632.0912   -82713.366    1138.0597 
   19700    302.07216   -936.10324    279333.43    -75030.02    7653.5678   -82683.587    1138.5402 
   19750    301.40953   -825.49426    279191.39   -75056.478    7636.7786   -82693.257    1139.9499 
   19800    299.97305   -839.59374    279551.99   -75077.159    7600.3828   -82677.542    1143.8964 
   19850    298.01716   -951.55433     279973.6   -75039.027    7550.8268   -82589.854    1148.0965 
   19900    301.60682   -1245.5012    280166.76    -74984.56    7641.7775   -82626.338    1153.8352 
   19950     301.5051   -809.96979     279914.9   -74986.777    7639.2001   -82625.977    1154.2149 
   20000    301.32242   -942.85771       279648    -74965.78    7634.5717   -82600.351    1154.6297 
   20050     304.1425   -1012.0666    279471.15   -75010.167    7706.0237   -82716.191    1156.9737 
   20100    307.38144   -1058.3419    279329.38   -75053.814    7788.0882   -82841.902    1159.7552 
   20150    301.81125   -726.32788    279305.91   -75087.155    7646.9569   -82734.112    1164.0269 
   20200     294.2473   -994.53984    279776.48   -75068.206    7455.3101   -82523.517    1170.1952 
   20250    297.63577   -1143.1303    280062.93   -75086.092    7541.1633   -82627.255    1173.1901 
   20300    294.24316   -1015.6839    279786.65   -75066.677    7455.2053   -82521.882    1174.6646 
   20350    300.13379   -1230.1348    279203.58    -75065.81    7604.4553   -82670.265    1176.6341 
   20400    303.84418   -764.87481    278899.53   -75037.877    7698.4652   -82736.343     1178.875 
   20450    302.33872   -790.97823    279402.26   -74983.805    7660.3215   -82644.126    1184.4859 
   20500    301.50819    -846.7897    280423.96   -74968.088    7639.2784   -82607.366    1190.5967 
   20550    297.46398   -1394.7222    280987.92   -74940.486    7536.8107   -82477.296    1194.5444 
   20600    302.68133   -1216.5383    280386.22   -74942.352    7669.0021   -82611.354     1193.944 
   20650    308.54638   -1033.4226    279264.09   -74917.004    7817.6043   -82734.609    1191.9804 
   20700    302.19954   -660.29601    278514.04   -75011.437    7656.7952   -82668.232    1191.7543 
   20750    301.34004   -988.16325    278843.51   -75006.711    7635.0181   -82641.729    1195.9417 
   20800    301.01756   -669.18774    279688.63   -74986.593    7626.8475   -82613.441    1200.3333 
   20850    298.28027   -1283.9327    280537.41   -74965.572    7557.4929   -82523.065    1206.8217 
   20900    308.71696   -998.09427    280305.38   -74893.904    7821.9263   -82715.831    1207.6132 
   20950    303.31901   -952.87262    279722.13   -74962.797    7685.1589   -82647.956    1206.6925 
   21000     298.9411   -876.56935    279247.79   -75004.626    7574.2364   -82578.863    1210.0207 
   21050    301.98799   -970.94425     279063.2   -74965.815    7651.4352    -82617.25     1212.641 
   21100    301.26389   -794.83469    279229.79   -74947.813    7633.0885   -82580.901    1216.1228 
   21150    299.22731   -1137.3633    279741.13   -74979.977    7581.4881   -82561.465    1219.6484 
   21200    298.84928   -1336.1534    280055.54   -74988.653    7571.9101   -82560.563    1223.5555 
   21250    297.52709   -1205.3302    279763.56   -75034.699    7538.4098   -82573.109    1226.2079 
   21300    305.71636   -1234.5049    279235.41   -75041.442    7745.9003   -82787.342    1226.9936 
   21350    297.75489   -727.49747    278853.52   -75114.859    7544.1816    -82659.04    1230.1149 
   21400    295.76622   -833.00024    279065.28   -75103.492    7493.7949   -82597.287    1231.5048 
   21450    302.51818   -785.31433    279797.32   -75085.694    7664.8685   -82750.562    1234.8049 
   21500    300.79506   -1577.2029     280365.4   -75042.378      7621.21   -82663.588    1239.0341 
   21550     303.7926   -1287.8471    279969.14    -75059.48    7697.1583   -82756.638     1241.498 
   21600    298.39573     -898.869    279105.72     -75116.8    7560.4184   -82677.218    1241.5186 
   21650    296.39928   -664.09431    278576.58   -75130.189    7509.8345   -82640.023    1241.1638 
   21700    300.84694   -943.91319    279044.51   -75099.166    7622.5244   -82721.691    1245.8609 
   21750    298.77899   -1021.7912    280098.85    -75091.85     7570.129   -82661.979    1252.0675 
   21800    298.28088   -1507.8507    280622.54   -75094.892    7557.5084     -82652.4    1257.2879 
   21850    295.48969   -1196.4657    280053.35   -75098.954    7486.7885   -82585.743    1259.1921 
   21900    300.43956   -652.17151    279095.01   -75100.404    7612.2027   -82712.607    1258.5636 
   21950    301.90811   -571.04533    278596.28    -75118.25    7649.4112   -82767.661    1260.7377 
   22000    300.38417   -745.44681    279022.68   -75070.347    7610.7993   -82681.147    1265.0088 
   22050    297.08278   -893.37374    279965.53    -75045.81    7527.1523   -82572.962    1271.5632 
   22100    297.65361   -1231.3947    280307.13   -75018.384    7541.6153   -82559.999      1276.15 
   22150    310.51568    -1034.764    279868.19   -75025.124    7867.5003   -82892.624    1276.0698 
   22200    306.20404   -821.84586    279115.38   -75024.293    7758.2567    -82782.55    1275.9055 
   22250    308.24011   -784.54813    278741.09   -75061.882    7809.8444   -82871.726    1278.2214 
   22300      294.387   -866.35401    279135.18   -75080.995    7458.8496   -82539.845    1283.1855 
   22350    298.71315   -1112.5524    279990.84   -75084.971    7568.4608   -82653.432     1288.855 
   22400    301.26989   -1189.0154    280424.19   -75099.374    7633.2407   -82732.615    1293.8623 
   22450    302.90216   -991.04287    279995.74   -75081.073    7674.5973    -82755.67    1294.6422 
   22500    299.80919   -755.11898       279405    -75003.65     7596.231   -82599.881    1295.0975 
   22550    303.71778   -906.58822    279331.21   -75040.986    7695.2626   -82736.249    1300.6934 
   22600    307.53714   -1264.7578    279743.04   -75076.965    7792.0333   -82868.999    1305.8006 
   22650    304.74656   -959.79733    280037.04    -75054.96    7721.3287   -82776.289    1310.0851 
   22700    299.74233   -1016.1639     279990.1   -75075.002    7594.5372   -82669.539    1312.9601 
   22750    300.09672   -1045.3912     279523.9    -75048.64    7603.5162   -82652.156     1314.464 
   22800    304.86426   -968.73889    279146.31   -75076.623    7724.3109   -82800.933    1315.5422 
   22850    299.06513   -713.93625     278933.8   -75073.348    7577.3788   -82650.727    1318.5976 
   22900    304.53194   -874.67195    279419.55   -75015.886    7715.8909   -82731.777    1323.4088 
   22950    301.68647   -1002.4068    280210.99   -75023.979    7643.7954   -82667.774    1330.3574 
   23000    297.76557   -1150.3366    280357.98   -75079.713    7544.4522   -82624.166    1332.5663 
   23050    296.21046   -927.05149    279787.64   -75069.009    7505.0506   -82574.059     1334.392 
   23100    300.26943   -1132.9181       279274   -75123.832    7607.8922   -82731.724    1335.0935 
   23150    299.22197   -1005.5658    278963.67   -75136.426    7581.3529   -82717.779    1336.8174 
   23200    300.71819    -1171.947    279112.61   -75090.059    7619.2624   -82709.322    1341.7931 
   23250    299.07085   -990.17351    279596.85   -75073.346    7577.5239    -82650.87    1346.3064 
   23300    299.12155   -1277.3214     280091.1   -75075.916    7578.8084   -82654.725    1350.0769 
   23350    300.04172   -1065.3011    280124.74   -75087.161    7602.1227   -82689.284    1353.2483 
   23400    299.04801   -1065.9822    279529.64   -75082.356    7576.9452   -82659.301    1353.1045 
   23450    296.77851   -506.30757    278845.01   -75110.866    7519.4432   -82630.309    1354.4749 
   23500    299.64284   -938.33206    279186.06   -75134.233    7592.0163   -82726.249    1357.6906 
   23550    295.92875   -1042.1665    279797.93   -75124.667    7497.9128   -82622.579    1362.4893 
   23600     298.6657   -1265.7224    280148.08   -75134.266    7567.2587   -82701.525    1364.9822 
   23650    299.19795   -1429.3318    279777.49   -75169.321    7580.7443   -82750.065    1368.2735 
   23700    302.45496   -937.93013    279135.32   -75200.003    7663.2666    -82863.27    1369.8978 
   23750    294.47485   -744.44126    279051.37   -75189.706    7461.0754   -82650.781    1372.1681 
   23800    299.96881   -1125.9656    279214.16   -75161.797    7600.2753   -82762.072    1375.3471 
   23850    300.58117   -980.85481    279757.95   -75120.555    7615.7906   -82736.345    1379.2198 
   23900    299.10211   -1264.4483    279956.19   -75134.939    7578.3159   -82713.255    1382.4863 
   23950    303.26362   -1362.0174    279668.63   -75186.786    7683.7555   -82870.541    1385.4281 
   24000    299.44169    -991.4197    279228.73    -75171.04    7586.9198   -82757.959    1386.2511 
   24050     296.4491    -693.7657    279060.78   -75169.184    7511.0968    -82680.28     1388.823 
   24100    299.72982   -1003.0469    279394.63   -75171.944    7594.2202   -82766.164    1393.6127 
   24150    301.74198   -1258.2562    279774.37   -75132.802    7645.2019   -82778.004    1397.8064 
   24200    298.54264   -1104.8585    279974.88   -75137.764    7564.1406   -82701.905     1401.661 
   24250    302.10261   -1349.2203    279991.85   -75068.248    7654.3391   -82722.587    1404.0906 
   24300    302.46337   -889.88298    279598.11   -75108.071    7663.4798   -82771.551    1407.1174 
   24350    300.32974   -658.12812    279037.73   -75151.162    7609.4201   -82760.582     1409.587 
   24400    300.14951   -908.47452    278887.26   -75172.307    7604.8539   -82777.161    1412.2881 
   24450    300.87408   -960.40761    278991.53   -75181.535    7623.2121   -82804.748    1415.6594 
   24500    298.76215   -1117.1527    279127.96   -75184.526    7569.7023   -82754.228    1418.7313 
   24550    294.23004    -900.2685    279004.79    -75212.84    7454.8728   -82667.713    1422.0345 
   24600    297.45067    -941.0326    279421.94   -75238.208    7536.4736   -82774.682    1427.6357 
   24650    297.52485    -998.7523    279805.77   -75224.042    7538.3529   -82762.395    1434.2468 
   24700    297.35409   -890.58327    279687.38   -75226.746    7534.0266   -82760.773    1438.3793 
   24750    298.68516   -1059.6592    279483.61   -75216.807    7567.7516   -82784.558    1442.0805 
   24800    296.58924   -1109.9571     279194.7   -75245.017    7514.6475   -82759.664    1444.3901 
   24850    298.29486   -739.82158    278677.58   -75245.045    7557.8627   -82802.908    1447.7813 
   24900    298.66733   -1081.5278    278815.93   -75280.498    7567.2999   -82847.798    1451.2215 
   24950    297.10207   -908.04868    279118.42   -75277.385     7527.641   -82805.026    1453.8115 
   25000    293.28687   -707.36562    279622.69   -75231.589    7430.9759   -82662.565    1458.8422 
   25050    302.70459   -1341.2912    280243.45   -75203.639    7669.5916   -82873.231     1464.568 
   25100    297.83061     -1340.62    280019.34    -75227.57    7546.1001    -82773.67    1468.8336 
   25150    295.81417   -918.99054    279303.44   -75207.382    7495.0096   -82702.391    1470.3126 
   25200    299.72968   -746.73541    278748.68   -75185.665    7594.2165   -82779.881    1472.7131 
   25250     298.7979    -902.0358    278984.29    -75168.46    7570.6081   -82739.068    1478.2582 
   25300    298.60097   -987.19529    279496.93   -75119.093    7565.6185   -82684.712     1483.572 
   25350    300.67997    -1049.933    279843.56   -75129.518     7618.294   -82747.812     1488.381 
   25400    298.07155   -1184.0723    279739.79   -75152.019    7552.2048   -82704.224    1490.9717 
   25450    299.47009   -557.81604    279161.11   -75190.226    7587.6393   -82777.865    1490.9833 
   25500    295.19925   -1195.4885    279045.77   -75201.851    7479.4297   -82681.281    1490.2832 
   25550    298.37219   -766.38257    278987.47   -75212.551    7559.8219   -82772.373    1494.5025 
   25600    300.32983    -1040.768    279383.54   -75230.969    7609.4225   -82840.392    1501.8094 
   25650    305.37657   -1108.7056    279622.96   -75202.618    7737.2912   -82939.909    1506.4523 
   25700    300.61377   -1019.3024    279588.32   -75173.567    7616.6167   -82790.183    1510.6131 
   25750    299.34018    -1301.981    279649.47   -75181.081    7584.3479   -82765.429    1517.8357 
   25800    298.40368   -770.95206    279148.69   -75159.358    7560.6198   -82719.978    1519.9699 
   25850    301.00096   -950.50222    278912.53   -75165.588    7626.4269   -82792.015    1523.6011 
   25900     295.8282   -682.42027    279145.84   -75197.362    7495.3653   -82692.727    1529.4262 
   25950    296.39823   -1172.1021     279986.6   -75204.455    7509.8081   -82714.263     1536.401 
   26000    296.94598   -1583.9538    280373.45   -75221.906    7523.6862   -82745.592     1541.472 
   26050    298.46244   -1050.3749    279688.85   -75240.779    7562.1085   -82802.888    1540.5256 
   26100    295.41908   -707.31591     278739.6   -75262.319    7484.9994   -82747.318    1539.0582 
   26150    297.07208   -741.22102    278544.58   -75205.073    7526.8813   -82731.954    1542.7864 
   26200    296.39656   -1007.2107    278986.66   -75189.089    7509.7656   -82698.855    1549.7408 
   26250     296.5491   -1003.7931    279718.75   -75145.867    7513.6305   -82659.497    1556.4894 
   26300    296.56418   -1048.1111    280178.88   -75137.372    7514.0126   -82651.384     1562.053 
   26350    299.74143   -1056.0937    279810.66   -75088.819    7594.5144   -82683.334    1566.8456 
   26400    298.80313    -492.8997    279019.34   -75100.696    7570.7407   -82671.436     1568.173 
   26450    300.55161   -1080.8427    279110.05   -75142.038    7615.0417   -82757.079    1572.9399 
   26500    303.67091   -1280.7796    279687.11   -75110.753    7694.0752   -82804.828    1578.1306 
   26550    301.67782   -1196.1979    279960.44   -75150.311    7643.5762   -82793.888    1582.0867 
   26600    296.56227   -869.91517    279672.42   -75136.347    7513.9643   -82650.312     1583.851 
   26650       295.82   -734.96098     279232.4   -75173.806    7495.1574   -82668.963    1586.0191 
   26700    299.34051   -1140.8789    279094.67   -75233.131    7584.3562   -82817.488    1591.3867 
   26750    296.01648    -584.1045    278962.09   -75269.882    7500.1356   -82770.017    1594.8018 
   26800    296.14348   -982.73912    279263.09   -75260.983    7503.3534   -82764.337    1600.7444 
   26850    296.10843   -1009.8298    279610.37   -75301.179    7502.4653   -82803.644    1604.6597 
   26900    292.11888   -824.31853    279738.24    -75319.88    7401.3825   -82721.263    1607.0788 
   26950    294.04656   -1069.2507    279494.94   -75316.561    7450.2239   -82766.785    1607.1063 
   27000    293.79208   -842.15148    278957.44   -75335.832    7443.7762   -82779.608    1607.3389 
   27050    299.98918   -1174.7787     278695.8   -75338.366    7600.7915   -82939.158    1609.4187 
   27100    293.63076    -679.7177    278834.44   -75376.813    7439.6889   -82816.502    1613.7288 
   27150    293.47785   -1032.1341     279565.8   -75263.101    7435.8148   -82698.916    1622.0197 
   27200    295.93312   -1043.3886    279899.81   -75254.884    7498.0237   -82752.908    1628.1677 
   27250    295.92329   -1098.4619    279704.61   -75256.473    7497.7744   -82754.248    1631.2613 
   27300    296.15886   -797.90176    279185.24   -75247.904    7503.7431   -82751.647    1630.7103 
   27350    299.35649   -763.95278    278761.84   -75260.349    7584.7612    -82845.11    1631.4098 
   27400    296.79965   -519.11428     278608.3   -75225.435    7519.9787   -82745.414    1633.0503 
   27450    295.52879   -999.90641    279245.18   -75179.012    7487.7791   -82666.791    1640.2624 
   27500     296.9745   -761.55829    279723.08   -75125.947     7524.409   -82650.356     1646.162 
   27550    299.27386   -1364.3403    280009.58   -75108.794    7582.6676   -82691.461    1649.9201 
   27600    296.60503   -1056.0943    279750.62    -75092.13    7515.0476   -82607.177    1652.6028 
   27650    300.84555   -993.66357    279114.32   -75135.083    7622.4892   -82757.573    1652.7965 
   27700    300.71105   -721.32542    278672.61   -75153.197    7619.0814   -82772.278    1652.7366 
   27750    304.59951   -848.04401    278911.36   -75116.191    7717.6028   -82833.794    1658.9034 
   27800    299.87287   -937.11432    279533.55   -75163.945    7597.8446   -82761.789    1666.1723 
   27850    300.43651   -1077.8366    279944.78    -75129.92    7612.1255   -82742.045    1670.7648 
   27900    301.23216   -1175.3913    280014.36   -75053.113    7632.2847   -82685.397    1672.6214 
   27950    295.47536   -1206.0454    279773.37   -75061.285    7486.4255   -82547.711    1673.6077 
   28000    304.18105   -1185.6818    279245.67   -75072.768    7707.0004   -82779.769    1673.8919 
   28050    300.20394   -885.97583    278933.46   -75054.552    7606.2329   -82660.785    1675.3837 
   28100    305.64619   -993.72889    279083.51   -75063.726    7744.1225   -82807.849    1678.2828 
   28150    299.42422   -796.31368    279489.53   -75095.008    7586.4771   -82681.485    1683.9254 
   28200    300.83388   -1429.8856    279972.11   -75114.457    7622.1936    -82736.65    1691.0048 
   28250     299.0463   -1133.6286    279908.53   -75057.286     7576.902   -82634.188    1694.1526 
   28300    300.93331   -1121.3691    279632.17   -75076.761    7624.7128   -82701.474     1697.286 
   28350     302.1357   -1165.6143    279429.32   -75116.167    7655.1776   -82771.344    1698.0853 
   28400    299.11208   -895.76795    279293.69   -75108.647    7578.5686   -82687.215    1699.2403 
   28450    295.29811   -845.47558    279144.21   -75106.253    7481.9345   -82588.187    1700.3248 
   28500    304.53888    -1327.658    279072.52   -75060.878    7716.0668   -82776.945    1702.2867 
   28550    307.31424     -844.307    279081.07   -75021.278    7786.3857   -82807.663     1705.778 
   28600    306.69763   -868.54571    279679.44   -74978.575    7770.7626   -82749.337    1709.7048 
   28650    299.40566   -1244.9665    280343.35   -74974.539    7586.0069   -82560.545    1713.7627 
   28700    302.26427   -955.84296     279949.1   -74927.859    7658.4352   -82586.294    1716.2382 
   28750    301.33223   -893.96461    279433.03   -74969.571    7634.8203   -82604.391    1716.3748 
   28800    300.88771   -980.73967    279135.36   -75053.467    7623.5574   -82677.024     1716.272 
   28850    300.44093   -934.97132    279238.93   -75064.469    7612.2373   -82676.706    1718.8449 
   28900    297.17637   -1120.8963    279709.74   -75056.411    7529.5237   -82585.935    1722.6383 
   28950    300.59563   -1289.0634    279978.23   -75056.801    7616.1572   -82672.958    1727.6444 
   29000    297.06847    -900.0457    279846.06   -75095.696    7526.7898   -82622.485     1728.574 
   29050    299.25661   -1199.3197     279684.1   -75106.927    7582.2305   -82689.158    1727.4113 
   29100    302.12217   -849.55955    279441.83   -75091.581    7654.8347   -82746.416    1726.0348 
   29150    298.90712   -890.30782    279535.38   -75100.242    7573.3755   -82673.618    1726.9441 
   29200    300.22542   -1059.9896    279702.09   -75092.225    7606.7771   -82699.002    1729.9665 
   29250    296.54947   -1000.7358    279898.34   -75040.822    7513.6399   -82554.462    1731.0234 
   29300    298.77685   -1186.0962    280027.27   -75082.918    7570.0747   -82652.993    1733.6546 
   29350    299.97529   -1213.3507    279887.39   -75119.085    7600.4396   -82719.525     1736.136 
   29400    303.35103   -955.42068    279239.67   -75157.313    7685.9704   -82843.284    1737.7145 
   29450    302.78735   -748.38895    278576.88   -75178.449    7671.6884   -82850.137    1736.4029 
   29500    297.99089   -680.81953    278716.32   -75190.254    7550.1611   -82740.416    1739.3632 
   29550    299.61127   -938.89169    279500.94   -75151.567    7591.2164   -82742.783    1745.2558 
   29600     296.5147   -1147.5978    280300.93   -75103.917    7512.7591   -82616.676    1752.5367 
   29650     301.4758   -1362.3529    280322.72   -75081.052    7638.4577    -82719.51    1755.3326 
   29700     297.3478   -1081.4947    279622.91   -75114.449    7533.8672   -82648.316    1755.5601 
   29750    299.46682   -1070.8912    279153.63   -75101.962    7587.5566   -82689.519    1753.6142 
   29800    300.49061   -744.92086    279392.92   -75077.818    7613.4961   -82691.314    1755.3606 
   29850    301.67057   -831.77538    279527.01   -75069.574    7643.3928   -82712.967    1758.0296 
   29900    305.07647   -1049.3801     279809.5    -75029.36    7729.6875   -82759.048    1761.1362 
   29950    298.47573   -1120.0115    279961.83   -75020.294    7562.4455   -82582.739    1765.3388 
   30000    297.65032   -1135.5472    279665.82   -75058.981    7541.5319   -82600.513    1766.4675 
   30050    300.93997   -925.00226    279148.57   -75099.475    7624.8816   -82724.357    1766.2666 
   30100    302.36886   -645.30279    278859.74   -75053.305    7661.0851    -82714.39    1767.5925 
   30150    303.04546   -949.49372    279266.63   -75047.396    7678.2281   -82725.624    1773.9203 
   30200    301.32451   -940.00806    279732.45   -75050.354    7634.6246   -82684.979    1777.7978 
   30250    299.93929   -667.09618    279998.27   -75048.519    7599.5275   -82648.047    1781.0153 
   30300    300.16732   -1276.5425    280314.06    -75019.83    7605.3049   -82625.135    1784.0048 
   30350    296.94959   -1296.4328    280050.23   -75038.446    7523.7778   -82562.224    1784.7608 
   30400     300.1235     -1444.04    279533.61    -75125.71    7604.1947   -82729.905    1783.4621 
   30450    297.86697   -1138.6027    279103.25   -75161.811    7547.0214   -82708.832    1784.0919 
   30500    299.22325   -803.63484    278886.53   -75108.905    7581.3853   -82690.291    1786.6471 
   30550    300.20275   -751.21532     279094.1   -75104.403    7606.2026   -82710.606    1792.0638 
   30600    299.67994   -996.12211    279719.21   -75130.904    7592.9562    -82723.86    1796.6178 
   30650    294.76295   -1351.9513    280292.54   -75139.467    7468.3752   -82607.842    1803.1267 
   30700    297.23383   -1233.5929    279839.31   -75148.383    7530.9795   -82679.363     1804.345 
   30750     294.4159   -1017.6417    279074.15    -75190.12    7459.5819   -82649.702    1801.4035 
   30800    300.56634   -871.12571    278586.54   -75247.488    7615.4149   -82862.902    1804.6577 
   30850    294.06979   -546.86511    278776.81   -75261.582    7450.8125   -82712.395    1808.1773 
   30900    296.28454   -953.93388    279673.93   -75226.396    7506.9274   -82733.324     1813.951 
   30950    295.71522   -1268.5776    280497.78    -75223.48    7492.5027   -82715.982    1820.6211 
   31000     294.8189   -1091.2992    280383.83   -75227.607    7469.7927     -82697.4    1822.6283 
   31050    297.61096   -1193.9017    279602.07    -75225.27    7540.5349   -82765.805    1822.6023 
   31100    295.52391   -708.69949    278954.52   -75207.241    7487.6555   -82694.897    1824.2047 
   31150     296.4501   -487.26359    278810.86   -75175.132    7511.1223   -82686.254    1827.7388 
   31200    295.72193   -729.23656    279066.77   -75154.328    7492.6728   -82647.001    1830.8246 
   31250    294.00137    -1017.238       279701   -75144.891     7449.079    -82593.97    1836.7589 
   31300    301.87938   -986.91398    280104.45   -75137.314    7648.6833   -82785.997    1841.9799 
   31350    299.22838   -1274.7801    280025.24   -75155.402    7581.5152   -82736.917    1844.2909 
   31400    295.06108   -1128.0266    279430.03   -75192.718    7475.9287   -82668.647    1844.5888 
   31450    298.15355   -898.95532    279008.09   -75183.275    7554.2823   -82737.557    1845.1086 
   31500    299.57577   -746.14931    279213.83   -75180.502    7590.3169   -82770.819    1846.9485 
   31550    297.82823   -1037.2139     279696.3   -75192.823    7546.0398   -82738.863    1851.7082 
   31600    298.07925   -1090.2473    279959.31   -75202.315    7552.3998   -82754.715    1854.7686 
   31650    299.71509   -893.25761    279671.18   -75149.559     7593.847   -82743.406    1855.8298 
   31700    296.34512   -998.26044    279027.76    -75173.43    7508.4623   -82681.892    1856.2319 
   31750     295.5097   -575.27866    278685.65   -75168.798    7487.2953   -82656.093    1855.7833 
   31800    297.68077   -711.04536    278932.17   -75172.873    7542.3035   -82715.176    1859.5981 
   31850    297.94232   -1136.5934    279717.58   -75202.966    7548.9304   -82751.896    1865.6208 
   31900    295.68394    -1289.153    280299.74   -75217.489    7491.7102     -82709.2    1871.7175 
   31950    293.29449   -1225.9909    280125.01   -75180.578    7431.1689   -82611.747    1874.4806 
   32000    305.48819   -734.04278    279193.76   -75221.829    7740.1194   -82961.948    1872.1732 
   32050    305.54247   -866.97325    278580.97   -75250.615    7741.4945   -82992.109    1872.7004 
   32100    292.15532   -747.98641    278840.38   -75215.422    7402.3059   -82617.728    1879.9186 
   32150    293.24056   -1088.2949    279446.84   -75244.047    7429.8024   -82673.849    1885.5693 
   32200     296.5884   -1187.8137    279921.41   -75201.226    7514.6264   -82715.853    1889.9952 
   32250    299.30848   -1218.1138    279901.57   -75183.637    7583.5446   -82767.181    1893.5166 
   32300    299.77159   -1077.2289    279325.71   -75219.175    7595.2784   -82814.453    1894.8927 
   32350    297.52707   -802.26222     278987.7   -75220.178    7538.4092   -82758.588    1897.2311 
   32400    299.56032   -1228.9758    279322.69   -75213.942    7589.9254   -82803.867    1901.5847 
   32450    296.24047    -1067.303    279462.59   -75248.077    7505.8109   -82753.888    1906.6738 
   32500     295.7856   -834.70991    279395.86   -75228.168    7494.2858   -82722.454    1909.9285 
   32550     289.8398   -1102.6079    279498.67    -75238.35    7343.6378   -82581.988    1913.0282 
   32600    296.71361   -1015.0223    279400.62   -75188.238    7517.7987   -82706.037    1915.2155 
   32650    299.66863   -962.85897    279246.89   -75186.923    7592.6698   -82779.593    1918.2391 
   32700    296.54236   -745.72017    279085.61   -75190.784    7513.4598   -82704.243    1919.0805 
   32750    297.29524   -830.90764    279263.93   -75164.963    7532.5354   -82697.499    1923.1116 
   32800    296.52459   -569.20267    279409.82    -75187.61    7513.0095    -82700.62    1927.7085 
   32850    299.57289   -1122.7042    279549.14   -75172.575    7590.2441   -82762.819    1931.7596 
   32900    297.05648   -1244.2296    279690.64   -75194.401     7526.486   -82720.887    1935.5032 
   32950    298.20045   -1143.7178    279429.15   -75238.194    7555.4706   -82793.664    1937.2152 
   33000    301.33985   -754.04968    279037.63   -75190.396    7635.0134   -82825.409     1937.457 
   33050    296.46148   -1188.0427    278932.83   -75180.753    7511.4105   -82692.164    1936.3642 
   33100     298.0927   -791.45345     278988.1     -75198.3    7552.7405   -82751.041    1937.9444 
   33150    299.15543   -1118.7691    279442.64   -75202.422    7579.6668   -82782.089    1944.9447 
   33200    296.77508   -1071.3988    279704.93   -75220.301    7519.3561   -82739.657    1951.0116 
   33250    297.60851   -1041.8558    279684.36   -75229.377    7540.4727    -82769.85    1953.8041 
   33300    299.50078   -977.13799    279597.24   -75216.437     7588.417   -82804.854     1952.573 
   33350    297.95288   -1319.4574    279282.18   -75258.563    7549.1979   -82807.761    1953.8847 
   33400    300.34667   -940.83657     279026.5   -75226.879    7609.8492   -82836.728    1956.2721 
   33450    302.33878   -1068.7362    279052.02   -75202.579    7660.3229   -82862.902     1958.166 
   33500    294.25966   -678.69129    279284.82   -75227.001    7455.6232   -82682.625    1963.5482 
   33550    297.93933   -1077.7218    279499.69   -75201.716    7548.8545   -82750.571    1968.3243 
   33600    296.75569   -1212.1461    279668.47   -75213.547    7518.8648   -82732.412    1971.6695 
   33650    295.40432   -891.53103    279574.48   -75222.537    7484.6254   -82707.163    1973.5053 
   33700    299.86679    -1124.069    279466.43   -75190.433    7597.6905   -82788.124     1974.914 
   33750    299.30067   -770.46848     279400.5   -75174.612    7583.3469   -82757.959    1976.5856 
   33800    293.51103   -766.44841    279527.38   -75180.344    7436.6553   -82616.999    1980.1194 
   33850    297.43925   -1128.3239    279666.78   -75185.251    7536.1842   -82721.435    1982.2939 
   33900    299.92173   -1023.2567    279777.57   -75204.534    7599.0826   -82803.617     1983.871 
   33950    292.03384   -1104.2519    279585.77     -75205.4     7399.228   -82604.628    1985.3572 
   34000     297.2116   -1048.2698    278799.38    -75183.77    7530.4163   -82714.187    1983.3147 
   34050    300.32773   -572.07215    278205.27    -75219.43    7609.3693     -82828.8    1984.4194 
   34100    302.33117   -977.52247    278541.17   -75236.735    7660.1303   -82896.865    1986.8404 
   34150    295.02991   -891.07453    279343.31   -75232.519    7475.1391   -82707.659    1992.0977 
   34200     300.1851   -1158.3386    280288.79   -75235.009    7605.7555   -82840.764    2001.1239 
   34250    296.22794   -1363.5137    280414.87   -75215.423    7505.4934   -82720.916    2002.8535 
   34300    299.70578   -1025.2651    279775.16    -75173.95    7593.6111   -82767.561    2004.2608 
   34350    295.76795   -785.95996    279164.37   -75200.231    7493.8385    -82694.07    2003.1955 
   34400     297.7845   -1014.5747    279141.58   -75251.039    7544.9316    -82795.97     2007.103 
   34450    300.85477   -884.21125    279330.53   -75203.074    7622.7229   -82825.797    2012.6869 
   34500    300.86882    -1309.614    279778.53   -75243.657    7623.0789   -82866.735    2015.8985 
   34550    299.92856   -1338.2295     279837.4   -75291.986    7599.2556   -82891.242    2017.9813 
   34600    292.86002   -1070.1849    279335.46   -75317.697    7420.1608   -82737.858    2018.5949 
   34650    298.13162   -883.70456    278848.52   -75301.661    7553.7267   -82855.387    2019.1315 
   34700    296.28787    -836.5949    278790.27   -75272.988    7507.0119       -82780    2020.4019 
   34750    300.31763   -1145.6022    279421.53   -75289.148    7609.1134   -82898.261    2025.8577 
   34800    295.71931   -1057.7804    279909.31   -75248.727    7492.6063   -82741.333    2032.5871 
   34850    293.42007   -1173.7407    279769.68   -75280.352    7434.3507   -82714.703    2034.7446 
   34900     289.3627    -844.8279    279234.16   -75286.629    7331.5495   -82618.178    2034.7895 
   34950    291.97155   -743.65845    279102.52   -75235.648    7397.6497   -82633.297    2037.1761 
   35000    295.04667   -770.98396    279321.83   -75241.871    7475.5638   -82717.435    2040.4214 
   35050    300.15823    -1198.232    279642.25   -75223.245    7605.0747    -82828.32    2044.9923 
   35100    296.00989   -1161.8899    279700.72   -75259.161    7499.9687    -82759.13    2048.2262 
   35150    296.26166   -729.56006    279505.16   -75272.271    7506.3477   -82778.619    2048.5749 
   35200     295.2622   -989.98803    279558.04   -75269.595    7481.0245   -82750.619    2050.8546 
   35250    299.69793   -1377.9789    279617.14   -75222.717    7593.4121   -82816.129     2051.356 
   35300     302.1729   -1110.0447    279354.38   -75201.746    7656.1201   -82857.866    2050.7789 
   35350    298.83258   -888.22889    279173.19   -75185.776    7571.4868   -82757.263    2054.1447 
   35400    299.91878   -1116.1776    279229.37   -75225.038    7599.0077   -82824.046    2058.9376 
   35450    296.58022   -975.36984    279528.19   -75203.912    7514.4189   -82718.331    2063.6083 
   35500    296.83749   -1110.6226    279798.06   -75165.987    7520.9375   -82686.925    2066.9508 
   35550    297.94071   -1253.9504    279675.55   -75212.232    7548.8898   -82761.121    2069.1829 
   35600     300.1571    -810.3059    279539.08   -75122.963    7605.0462   -82728.009    2070.6586 
   35650    302.24471   -1210.0373    279669.27   -75121.313    7657.9395   -82779.253    2073.4913 
   35700    296.85349    -1037.489    279754.06   -75165.605     7521.343   -82686.948     2076.094 
   35750    299.42478   -1165.9266    279795.28   -75167.968    7586.4913    -82754.46    2078.9885 
   35800      291.485   -1009.0876    279546.39   -75180.157     7385.322   -82565.479    2079.6119 
   35850    291.22381   -925.85746    279283.53    -75145.33    7378.7043   -82524.035    2082.1919 
   35900    296.55061   -731.38027    279338.86   -75149.447     7513.669   -82663.116    2086.6624 
   35950    294.74226   -1067.9445    279881.26   -75150.413    7467.8509   -82618.264    2090.8249 
   36000    295.98794   -1070.6121    280011.76   -75178.248    7499.4125   -82677.661    2094.4403 
   36050    296.88442   -1219.2023    279720.31   -75212.701    7522.1266   -82734.828    2096.9993 
   36100    298.91161   -1073.7756    279344.12   -75189.162    7573.4893   -82762.651     2097.225 
   36150    296.55296   -722.94346    279029.29   -75184.312    7513.7283   -82698.041    2100.4156 
   36200    299.20465   -776.45279    278990.59   -75198.007    7580.9139   -82778.921    2104.5746 
   36250    300.23214    -864.3055    279199.36   -75185.115    7606.9472   -82792.062    2109.9123 
   36300    293.58972   -712.75691    279621.89   -75223.507    7438.6492   -82662.157    2113.5003 
   36350    300.40581   -889.93653    279707.22    -75144.86    7611.3476   -82756.208    2117.4661 
   36400    301.32457   -1188.6895    279709.66   -75195.534    7634.6261    -82830.16    2120.9312 
   36450    297.02945   -1117.4929    279301.81   -75169.944    7525.8012   -82695.746    2119.3437 
   36500    300.50709   -867.08477    279107.18   -75173.514    7613.9137   -82787.428    2120.3312 
   36550    296.65226   -901.31776    279342.29   -75133.821    7516.2443   -82650.065    2125.4354 
   36600    300.06676   -1031.3854    279556.31   -75111.722     7602.757   -82714.479     2131.313 
   36650    302.89775   -1229.0977    279526.35   -75139.528    7674.4856   -82814.014    2135.3536 
   36700    296.60806   -622.44847     279402.5   -75131.741    7515.1243   -82646.866    2138.5841 
   36750    297.32328   -1049.4518       279414   -75162.697     7533.246   -82695.943    2142.7923 
   36800     300.6789   -1021.7693    279487.36   -75127.284    7618.2669   -82745.551    2148.0196 
   36850    297.15626   -1075.8101    279689.95   -75138.142    7529.0142   -82667.156    2152.4875 
   36900    301.68482   -1077.7565    279741.12   -75152.889    7643.7536   -82796.642    2155.9424 
   36950    293.68409   -985.81858    279468.31   -75190.794    7441.0403   -82631.834    2157.0819 
   37000    297.77771   -951.85914    279223.47   -75220.668    7544.7597   -82765.427    2158.2166 
   37050    297.89431   -1183.7631    279306.91    -75234.82     7547.714   -82782.534    2164.6303 
   37100    299.56253   -914.28002    279275.16   -75195.931    7589.9816   -82785.913    2166.2701 
   37150    299.48977   -874.32437    279360.45   -75209.528     7588.138   -82797.666      2169.76 
   37200    297.89484   -748.97658    279375.03   -75218.916    7547.7273   -82766.644    2172.3889 
   37250    296.30048     -1044.65    279637.57   -75206.528    7507.3313    -82713.86    2176.5355 
   37300    301.16813   -922.10663    279541.67   -75228.121    7630.6624   -82858.784    2176.7048 
   37350    294.90389   -587.02323    279209.78   -75226.387    7471.9461   -82698.333    2180.3998 
   37400    294.91672   -847.34172    279038.72   -75216.339    7472.2712    -82688.61    2182.0486 
   37450    299.28488   -1050.1765    279034.99   -75219.309    7582.9468   -82802.256    2182.4818 
   37500    295.52258   -883.46059    279135.24   -75218.589    7487.6219   -82706.211    2184.4034 
   37550    301.86502   -985.36309    279419.65   -75210.903    7648.3193   -82859.222    2186.3168 
   37600    298.36781   -1274.2574    279828.05   -75216.485     7559.711   -82776.196    2189.1785 
   37650     294.4769   -1083.9349    279870.64   -75199.588    7461.1275   -82660.715    2193.4847 
[...]
   90850    297.84935   -1077.4371     280018.8   -74990.149    7546.5748   -82536.724    4910.8626 
   90900    303.57625   -897.08944    279574.24   -74998.837    7691.6768   -82690.514    4908.2996 
   90950    302.25853   -1044.0243    279253.96   -75036.649    7658.2898   -82694.939     4906.805 
   91000    302.08307   -820.93776    279403.59   -75012.903    7653.8442   -82666.747    4909.2739 
   91050    300.38604   -1290.6674    279880.34   -75038.984    7610.8467    -82649.83    4914.7494 
   91100    304.44129    -1194.285    279776.13    -74996.58    7713.5941   -82710.175    4917.5389 
   91150    303.06817   -1000.1156    279782.08   -75012.109    7678.8035   -82690.912    4922.4876 
   91200    303.02909   -1016.7573    279741.32   -75038.486    7677.8134     -82716.3    4926.2869 
   91250    298.02202   -846.34247    279420.88   -75051.434    7550.9499   -82602.384    4925.4325 
   91300    300.37814   -956.34271    279224.08   -75053.494    7610.6465    -82664.14    4927.5853 
   91350    297.04852   -751.46715    279141.47   -75059.698    7526.2842   -82585.982    4926.8329 
   91400    300.30217    -1203.951    279596.69   -75096.034    7608.7217   -82704.755    4932.7716 
   91450    302.00091   -1248.7304    280005.53   -75114.067    7651.7626    -82765.83    4942.9256 
   91500    297.14919   -1333.7508    280170.24   -75112.074     7528.835   -82640.909    4949.9394 
   91550    302.68224   -845.61743    279672.77   -75106.887    7669.0252   -82775.913    4945.4692 
   91600    303.50923    -1042.151    279264.46   -75138.972    7689.9787   -82828.951    4942.2427 
   91650    298.04732   -971.16819    279221.93   -75199.477    7551.5907   -82751.067    4942.5268 
   91700    299.37051   -933.07645    279450.68   -75212.123    7585.1162   -82797.239    4947.5346 
   91750    296.04045   -1161.4542    279683.54   -75153.436    7500.7429   -82654.179    4950.7397 
   91800    302.99935   -742.05695    279479.42   -75165.697    7677.0597   -82842.757    4949.3233 
   91850    298.37523   -1213.0815    279501.55   -75197.298    7559.8991   -82757.197     4950.543 
   91900     302.5138   -1093.7018    279613.33   -75177.953    7664.7574    -82842.71    4955.9566 
   91950    297.02614   -1208.9005    279775.93   -75226.188    7525.7172   -82751.905    4958.8405 
   92000    297.93434   -1016.0638    279616.83   -75192.131    7548.7281   -82740.859    4958.9853 
   92050    301.29301   -1174.7767    279507.37    -75249.24    7633.8266   -82883.066    4955.5164 
   92100    297.47414   -919.03995     279155.1   -75186.424    7537.0682   -82723.493    4952.6127 
   92150     298.9462   -906.62768    278823.84   -75191.671    7574.3657   -82766.037    4951.7953 
   92200    297.83103   -700.20996    278950.25   -75181.243    7546.1106   -82727.354    4954.3105 
   92250    299.97289   -1155.2522       279720   -75156.279    7600.3788   -82756.657     4967.528 
   92300    301.09019   -1372.3329    280354.02   -75157.836    7628.6877   -82786.524    4981.7562 
   92350    295.62654    -745.9049    280145.37   -75172.031    7490.2558   -82662.287    4986.3228 
   92400    299.71448   -1087.1693    279519.71   -75186.238    7593.8315    -82780.07     4983.383 
   92450     300.2684   -853.27074    278544.25   -75198.606    7607.8661   -82806.472    4978.6296 
   92500     296.6997   -731.54098    278407.35   -75214.644    7517.4463   -82732.091    4982.4333 
   92550    298.02213   -1117.2763    279498.33   -75214.008    7550.9527   -82764.961    4996.1075 
   92600    293.18685   -1139.9457    280425.65   -75232.661    7428.4416   -82661.103    5007.0273 
   92650    304.07335   -1428.2226    280326.04   -75221.813    7704.2716   -82926.085    5008.7703 
   92700    293.51114   -731.84491    279427.91   -75220.367    7436.6581   -82657.025     5003.743 
   92750    301.39029   -875.65177    278563.03   -75296.786    7636.2912   -82933.077    4995.4104 
   92800    296.33914   -776.99879    278177.63   -75293.958    7508.3107   -82802.268    4996.0891 
   92850    298.19623    -879.5157    278698.13   -75267.121    7555.3638   -82822.485    5004.4617 
   92900    296.19535   -1045.0346    279692.39   -75265.344    7504.6677   -82770.012     5018.216 
   92950    296.31737   -1144.2716    280180.14    -75239.92    7507.7594    -82747.68    5026.2457 
   93000    294.71817   -1085.8973     280007.3    -75201.56    7467.2405     -82668.8    5027.3362 
   93050    296.47263   -850.48741    279522.02   -75175.995     7511.693   -82687.688    5026.8805 
   93100     302.9459    -1117.068    279057.18   -75141.455    7675.7057   -82817.161    5021.9082 
   93150    298.02045   -979.09445    278907.55   -75165.693    7550.9101   -82716.603    5018.1087 
   93200    299.27266   -1217.9767    279011.77   -75133.441    7582.6371   -82716.078    5020.2323 
   93250    302.02304   -890.59503    279189.07   -75105.083    7652.3232   -82757.406    5026.0727 
   93300    299.24647   -882.18249    279395.04    -75123.42    7581.9735   -82705.394    5031.3885 
   93350    299.33994   -1134.1171    279796.52   -75156.175    7584.3417   -82740.516    5042.4231 
   93400    298.65548   -1239.4277     279664.4   -75173.244    7566.9997   -82740.244    5042.0843 
   93450    298.34231   -926.37005    279170.04   -75168.277    7559.0648   -82727.342    5037.0657 
   93500    301.07043   -687.94505    279070.82   -75164.681    7628.1869   -82792.867    5036.5118 
   93550    304.71618   -947.45724    279432.24   -75157.652    7720.5591   -82878.211    5043.1273 
   93600    302.60479   -957.76326    279895.67   -75112.551    7667.0628   -82779.614    5052.1094 
   93650    300.01233   -1202.7998    279913.36   -75121.326     7601.378   -82722.704    5050.0121 
   93700    298.64234   -582.13488    279478.66   -75127.863    7566.6668    -82694.53    5045.9104 
   93750    299.84668   -821.58073    279197.26   -75115.578     7597.181   -82712.759    5041.7612 
   93800    297.11958   -684.95615    279082.64   -75102.924    7528.0846   -82631.009    5040.3911 
   93850    299.59659   -779.18764    279508.66   -75108.581    7590.8444   -82699.426     5045.263 
   93900    304.68206   -1160.7869    279903.93   -75096.845    7719.6944   -82816.539    5053.0847 
   93950    302.35652    -811.9847    279992.91   -75093.418    7660.7725   -82754.191    5057.1839 
   94000    304.87012   -1267.7696    279808.48   -75082.838    7724.4592   -82807.297    5059.1024 
   94050    297.21439   -957.72747    279292.43   -75045.968    7530.4869   -82576.455     5060.256 
   94100    298.38681   -1053.9075    278606.91   -75078.085    7560.1924   -82638.277    5053.4804 
   94150    306.51824   -627.70698    278454.09   -75080.323    7766.2174    -82846.54    5054.1729 
   94200    298.14449   -983.18913    279473.57   -75056.922    7554.0528   -82610.974    5068.3942 
   94250    298.23461   -1377.6146    280097.68   -75021.252    7556.3362   -82577.588    5077.1105 
   94300    302.22606   -1151.9528    279946.76   -74993.581    7657.4671   -82651.048    5078.0096 
   94350    298.31131   -666.39774    279543.44   -75012.269    7558.2795   -82570.548    5075.6032 
   94400    300.27841   -1150.1508    279303.66    -75042.25    7608.1197    -82650.37    5070.0096 
   94450    302.20792   -994.02941    279327.61   -75043.339    7657.0075   -82700.347    5075.0818 
   94500     300.2388   -1215.0193    279746.59   -75015.434    7607.1161    -82622.55    5079.0672 
   94550    299.50792   -1076.0817     279979.2   -75054.956    7588.5979   -82643.554    5084.4813 
   94600    304.63849   -744.33326    280025.35   -75044.671    7718.5905   -82763.261    5087.5613 
   94650    303.77828   -1020.0244    279925.91   -75016.172    7696.7954   -82712.967    5088.8051 
   94700     303.2758   -981.25762    279388.96   -74982.328    7684.0642   -82666.392    5084.2644 
   94750    300.20728   -923.57683     279089.5   -75036.442    7606.3174   -82642.759    5083.6338 
   94800    300.31824   -885.45993    279211.45   -75049.896    7609.1288   -82659.025    5091.3535 
   94850    294.62263   -1043.4796    279714.93   -75048.951    7464.8198    -82513.77    5098.8766 
   94900    298.57455   -1221.8411    279905.41   -75041.815    7564.9492   -82606.764    5102.0489 
   94950    299.98488   -972.42306    279745.99   -75088.518    7600.6826   -82689.201    5100.8389 
   95000    301.90377   -1185.5342     279396.3   -75108.591    7649.3012   -82757.893    5098.1255 
   95050    300.71074   -945.90479     278789.8   -75076.203    7619.0735   -82695.276     5095.491 
   95100     300.5794   -803.31109    278802.91   -75099.911    7615.7457   -82715.657     5103.383 
   95150    298.71724   -1319.7041    279709.43   -75094.082    7568.5646   -82662.647    5117.2501 
   95200    295.77215   -1180.1836    280370.73   -75082.189    7493.9451   -82576.135    5127.4334 
   95250    298.52737   -888.71554     280090.3   -75072.972    7563.7537   -82636.726    5127.0621 
   95300    295.99303    -813.9941     279556.1   -75128.843    7499.5415   -82628.384    5120.9951 
   95350    297.33416   -911.14556    279329.14   -75143.784    7533.5216   -82677.306    5119.4498 
   95400    298.61537   -903.02727    279499.02   -75093.426    7565.9834   -82659.409    5118.6406 
   95450    300.82199    -1049.566    279874.36   -75108.279    7621.8924   -82730.172    5127.8324 
   95500    297.77032   -1158.3274    279868.08   -75102.831    7544.5725   -82647.403    5130.5456 
   95550    295.51762   -1133.7634    279611.23   -75106.087     7487.496   -82593.583    5132.1543 
   95600    303.45128    -891.6744    279302.89   -75119.759    7688.5103   -82808.269    5133.9145 
   95650    300.53641   -1098.2332     279371.7   -75156.049    7614.6565   -82770.705     5136.537 
   95700    299.77793   -1332.9608    279524.44   -75132.674    7595.4391   -82728.113    5140.6435 
   95750    300.76083   -1073.9882    279417.32   -75127.273    7620.3426   -82747.615    5141.1252 
   95800    298.45435   -857.42615    279372.61   -75159.814    7561.9037   -82721.717     5144.494 
   95850    294.06939   -969.47098    279580.84    -75138.65    7450.8025   -82589.452     5150.305 
   95900    299.00496   -1192.7475    279932.63   -75135.745    7575.8543   -82711.599    5158.4825 
   95950    293.57111   -1070.0597     279605.4   -75130.929    7438.1775   -82569.107    5155.6421 
   96000    302.10831   -854.06312    278944.41   -75146.292    7654.4836   -82800.776     5151.441 
   96050    303.26617   -864.63181       278861   -75131.229    7683.8202   -82815.049    5149.6145 
   96100    306.56348   -1178.9878    279588.48   -75052.887    7767.3638   -82820.251    5159.0114 
   96150    294.42554   -884.87007     280252.5   -75062.732    7459.8262   -82522.558    5170.8942 
   96200    301.79587   -1446.7011    280541.03   -75013.329    7646.5674   -82659.896    5172.8715 
   96250    301.36297   -1097.7152    279955.79   -75012.958    7635.5991   -82648.557    5169.4895 
   96300    300.68972   -927.96259    279060.89   -75028.293     7618.541   -82646.834    5160.9622 
   96350    301.94583   -664.75062    278636.83   -75048.439    7650.3669   -82698.806    5156.3362 
   96400    297.90624   -615.97147    279030.13   -75082.798    7548.0162   -82630.815    5164.9915 
   96450    305.60536   -1064.3509    279909.02   -75038.485    7743.0879   -82781.573    5179.9341 
   96500    297.48545   -1079.6944    280448.57   -75021.261    7537.3548   -82558.616    5189.0441 
   96550    303.12923   -1149.2512    280365.33   -75008.858    7680.3506   -82689.209    5188.2933 
   96600    300.27656    -1373.376    279681.66   -75017.769    7608.0727   -82625.842    5185.0482 
   96650    305.99998   -749.43063    278993.34   -75084.688    7753.0865   -82837.775    5179.6305 
   96700    298.01152   -869.72577    279013.97   -75093.136    7550.6836   -82643.819    5184.6613 
   96750      300.582   -938.40858    279377.86   -75071.956    7615.8116   -82687.768    5192.6824 
   96800    298.39256   -1317.4025    280048.19   -75069.082    7560.3382   -82629.421     5204.201 
   96850    301.85815   -1211.8033     280128.4    -75103.52    7648.1452   -82751.666    5206.0863 
   96900    302.23211   -1289.7262     279533.3   -75061.484    7657.6203   -82719.104    5202.7339 
   96950    299.81883   -785.98322     278959.7    -75085.51    7596.4754   -82681.986    5198.4293 
   97000     300.9086   -997.51531    279001.61   -75101.056    7624.0867   -82725.142    5201.4278 
   97050    296.04249   -1025.7911    279366.21   -75081.009    7500.7947   -82581.804    5205.8662 
   97100    300.42169   -1215.9008    279815.65    -75115.81      7611.75    -82727.56     5215.452 
   97150    300.50284   -1297.8026    279876.36   -75120.411    7613.8061   -82734.217         5216 
   97200    297.01985   -1162.2139    279446.26   -75111.997    7525.5578   -82637.555    5214.9252 
   97250    299.04936   -650.97532    278816.53   -75129.953    7576.9794   -82706.933    5213.1976 
   97300    299.94085   -671.57243    278614.15   -75165.982     7599.567   -82765.549    5213.7205 
   97350     302.0532    -1209.212    279150.01   -75183.079    7653.0874   -82836.166    5222.7328 
   97400    297.72151   -1212.7464    279836.32   -75187.363    7543.3358   -82730.699    5232.8284 
   97450    293.88109   -1082.3287    279927.31   -75203.145    7446.0315   -82649.177    5236.1846 
   97500    298.34488   -886.10282    279526.24   -75209.367    7559.1302   -82768.497    5232.8126 
   97550    299.81324    -1109.414    279265.43   -75178.339    7596.3336   -82774.673    5232.0252 
   97600    297.86791   -736.74218    279282.35   -75150.441    7547.0452   -82697.486    5230.9761 
   97650    296.18449   -747.97673    279563.35   -75134.239    7504.3924   -82638.632    5237.1934 
   97700    295.03982   -982.63097    279863.16   -75126.307    7475.3902   -82601.697     5236.641 
   97750    299.54915   -1150.3682    279553.37   -75131.483    7589.6425   -82721.125    5236.7009 
   97800    299.12625   -1108.2755     279098.6   -75171.402    7578.9275    -82750.33    5235.1388 
   97850    296.19034   -564.78866    278808.28   -75206.997    7504.5407   -82711.537    5233.1348 
   97900    294.07537    -1038.193    279099.69   -75249.136    7450.9539    -82700.09    5242.2469 
   97950    298.10299   -1060.3689    279812.32   -75196.595    7553.0013   -82749.596    5256.9579 
   98000    296.97848   -1202.2306    280252.39   -75204.918    7524.5097   -82729.428    5271.7187 
   98050    297.27622   -1012.3682    279701.68   -75206.286    7532.0536   -82738.339    5266.7509 
   98100    296.09966   -899.76473    278895.63   -75233.863    7502.2431   -82736.106    5257.1734 
   98150    302.86081   -1043.6813    278554.34   -75257.633    7673.5497   -82931.183    5256.4536 
   98200    296.42932   -957.92706    278704.63   -75275.711    7510.5956   -82786.306    5263.9834 
   98250    299.62169   -949.64155    279157.01   -75261.291    7591.4805   -82852.772    5272.1931 
   98300    297.23339   -1284.7368    279659.75   -75293.172    7530.9684    -82824.14      5282.24 
   98350     296.1239   -1084.7005    279929.38   -75293.749    7502.8572   -82796.607    5287.7594 
   98400    297.20665   -1218.9714    279784.94   -75257.127    7530.2908   -82787.418    5292.6559 
   98450    303.32488   -957.19694    279175.36    -75243.22    7685.3078   -82928.528    5291.3233 
   98500    296.56652   -1136.9834    278853.65   -75256.617     7514.072   -82770.689    5292.0588 
   98550    298.68584   -869.61498    278879.37   -75291.928    7567.7688   -82859.697    5297.2011 
   98600    296.20524   -735.66283    279295.76   -75294.071    7504.9182   -82798.989    5304.4862 
   98650    295.27192   -997.33899    279966.39   -75282.806    7481.2708   -82764.077    5316.3335 
   98700    296.69607   -1187.4626    280100.75       -75261    7517.3544   -82778.355    5326.2994 
   98750    296.13026   -1024.5341    279607.99    -75243.53    7503.0184   -82746.548    5322.6458 
   98800    295.48752   -610.18118    278939.28    -75251.34    7486.7335   -82738.074    5321.9602 
   98850    299.31211   -1224.8738    278941.74   -75235.166    7583.6365   -82818.803    5325.0873 
   98900    292.30458   -1104.1978    279334.12   -75231.572    7406.0877    -82637.66    5336.1848 
   98950     297.3667   -1164.1177    279583.38   -75206.049     7534.346   -82740.395    5342.5756 
   99000    298.75965   -980.03223    279626.14   -75185.938    7569.6389   -82755.577    5347.5207 
   99050    299.56988    -1349.053    279756.61   -75191.645    7590.1678   -82781.813    5352.2528 
   99100    301.99082   -1027.1452    279391.82   -75208.356    7651.5068   -82859.863    5351.3984 
   99150    297.93553   -797.27071    278988.66    -75215.19    7548.7584   -82763.948    5352.5461 
   99200    299.10846   -864.72109    279095.78   -75234.774    7578.4768   -82813.251    5356.5671 
   99250    295.67777   -1155.4336    279672.29   -75250.251    7491.5539   -82741.805    5364.3604 
   99300    291.25978   -1237.8695    279881.12   -75284.638    7379.6156   -82664.253    5367.1722 
   99350    296.10725    -1092.828    279381.29   -75308.651    7502.4354   -82811.087    5364.3644 
   99400    295.06041   -593.20413    278734.61   -75294.314    7475.9119   -82770.226    5360.9164 
   99450    300.40534   -808.85947    278749.84   -75298.113    7611.3356   -82909.449    5363.5762 
   99500    295.64373   -777.78741    279304.23   -75320.133    7490.6913   -82810.824    5374.7165 
   99550    295.71856   -1204.2123    279802.44   -75255.849    7492.5873   -82748.437    5379.6529 
   99600    293.52342   -1308.5296     279758.3   -75253.411    7436.9692    -82690.38    5378.3978 
   99650    303.09743   -669.21494    279142.68   -75272.143    7679.5448   -82951.688    5368.4799 
   99700    290.21139    -744.8338    278922.47   -75261.826    7353.0528   -82614.879    5364.7327 
   99750    298.60456    -964.7338    279078.58   -75267.345    7565.7096   -82833.055    5367.6753 
   99800    298.03895   -1140.5152     279361.8   -75263.541    7551.3788    -82814.92    5376.5706 
   99850    297.20351   -834.22126    279122.53   -75249.012    7530.2112   -82779.223    5373.5015 
   99900    295.83965   -931.54969    278814.01    -75276.23    7495.6552   -82771.885    5371.5813 
   99950    298.02035   -1050.3322    279105.52   -75259.748    7550.9074   -82810.655    5379.4368 
  100000    295.15754   -1150.7013     279639.7   -75203.942    7478.3728   -82682.315    5387.3346 
Loop time of 240.828 on 6 procs for 100000 steps with 8501 atoms

Performance: 358.762 ns/day, 0.067 hours/ns, 415.234 timesteps/s
99.4% CPU use with 6 MPI tasks x no OpenMP threads

MPI task timing breakdown:
Section |  min time  |  avg time  |  max time  |%varavg| %total
---------------------------------------------------------------
Pair    | 72.297     | 125.67     | 188.17     | 418.8 | 52.18
Neigh   | 30.781     | 36.19      | 39.674     |  61.5 | 15.03
Comm    | 6.7192     | 72.699     | 131.49     | 589.7 | 30.19
Output  | 0.13111    | 0.133      | 0.14099    |   1.0 |  0.06
Modify  | 5.0148     | 5.0577     | 5.1155     |   1.6 |  2.10
Other   |            | 1.075      |            |       |  0.45

Nlocal:        1416.83 ave        1474 max        1363 min
Histogram: 1 1 0 0 0 3 0 0 0 1
Nghost:        1967.00 ave        2036 max        1899 min
Histogram: 2 0 0 0 0 1 1 1 0 1
Neighs:        0.00000 ave           0 max           0 min
Histogram: 6 0 0 0 0 0 0 0 0 0
FullNghs:      39023.7 ave       40950 max       37923 min
Histogram: 3 0 1 0 0 0 0 1 0 1

Total # of neighbors = 234142
Ave neighs/atom = 27.542877
Neighbor list builds = 20934
Dangerous builds = 0

# Create data file for import to other simulations
#
write_data data.${NAME}
write_data data.coexist_298K_-1000atm_ML
System init for write_data ...

Total wall time: 0:04:00
