
# Set production fixes - Nose/Hoover
#
fix                 2 all nph iso ${PRES} ${PRES} ${PCOUPL}
fix                 2 all nph iso -1000 ${PRES} ${PCOUPL}
fix                 2 all nph iso -1000 -1000 ${PCOUPL}
fix                 2 all nph iso -1000 -1000 10000.0
fix                 3 all temp/csvr ${TEMP} ${TEMP} ${TCOUPL} 837492
fix                 3 all temp/csvr 298 ${TEMP} ${TCOUPL} 837492
fix                 3 all temp/csvr 298 298 ${TCOUPL} 837492
fix                 3 all temp/csvr 298 298 5000.0 837492

# Define Order parameter
#
compute             2 all orientorder/atom nnn NULL cutoff 3.5
thermo              200
thermo_style        custom step temp press vol etotal ke pe c_1[4]

# Run 1ns simulation
dump		    1 all custom 400 prod.${NAME}.dump id type x y z vx vy vz c_2[*]
dump		    1 all custom 400 prod.ice_298K_-1000atm_ML.dump id type x y z vx vy vz c_2[*]
run                 200000
Neighbor list info ...
  update every 1 steps, delay 0 steps, check yes
  max neighbors/atom: 2000, page size: 100000
  master list distance cutoff = 6.0032907
  ghost atom cutoff = 6.0032907
  binsize = 3.0016454, bins = 20 18 18
  2 neighbor lists, perpetual/occasional/extra = 1 1 0
  (1) pair sw, perpetual
      attributes: full, newton on
      pair build: full/bin/atomonly
      stencil: full/bin/3d
      bin: standard
  (2) compute orientorder/atom, occasional, copy from (1)
      attributes: full, newton on
      pair build: copy
      stencil: none
      bin: none
Per MPI rank memory allocation (min/avg/max) = 5.821 | 5.821 | 5.821 Mbytes
Step Temp Press Volume TotEng KinEng PotEng c_1[4] 
       0     300.1266   -951.99676     150007.6   -47323.933    4121.5162   -51445.449   0.16226277 
     200    294.86557   -1007.9291    150006.35   -47313.336    4049.2686   -51362.604    0.1703982 
     400    298.79811   -982.58726    149993.68   -47307.477    4103.2725   -51410.749   0.16066185 
     600     294.4595   -981.25056    149985.33   -47345.775    4043.6922   -51389.467   0.15693317 
     800    297.87211   -1019.3575    149981.95   -47362.245    4090.5561   -51452.801   0.15963311 
    1000     296.8869   -1002.4068    149955.32   -47375.516    4077.0266   -51452.543   0.16834171 
    1200    297.03707   -997.03677    149952.45   -47400.522    4079.0889   -51479.611    0.1652317 
    1400    298.41819   -1006.9954    149975.56   -47390.534    4098.0552   -51488.589   0.16187808 
    1600    294.67787   -993.88713     149969.9   -47393.867    4046.6909   -51440.558   0.15361348 
    1800     293.8276   -985.28529    149950.51   -47400.824    4035.0145   -51435.839   0.15990988 
    2000    293.10573   -1014.3758     149972.3   -47353.178    4025.1014   -51378.279   0.16649818 
    2200    295.72381   -995.91746    149972.41   -47320.874    4061.0544   -51381.929   0.16300976 
    2400    295.80173   -986.94059    149983.61   -47338.939    4062.1244   -51401.064   0.15888816 
    2600    298.52121   -1003.6917    149979.89   -47385.181    4099.4699   -51484.651    0.1544134 
    2800    295.82101   -984.28887    149913.77   -47403.488    4062.3892   -51465.877   0.15771145 
    3000    299.96185   -974.60729    149955.32    -47415.46    4119.2536   -51534.714    0.1553157 
    3200    289.32358   -1035.9189    150049.23   -47356.893    3973.1627   -51330.056   0.17010203 
    3400    294.91611   -978.96661    149995.09    -47398.57    4049.9626   -51448.533   0.16448636 
    3600    291.84908   -936.71926    149867.42   -47429.061    4007.8444   -51436.906   0.15432442 
    3800    295.66936   -967.63489     149899.5   -47352.308    4060.3066   -51412.614   0.16026061 
    4000    291.35867   -1077.8077    150070.15    -47341.97    4001.1097   -51343.079   0.16977136 
    4200     295.9154   -1117.6557    150063.33   -47359.506    4063.6854   -51423.191   0.17300509 
    4400    300.38722   -905.79571    149844.07   -47349.899    4125.0951   -51474.994   0.15811907 
    4600    303.14049   -916.82406    149867.83   -47329.093    4162.9046   -51491.997   0.15488112 
    4800    298.69241   -1100.0488    150124.64   -47315.418     4101.821   -51417.239   0.16625623 
    5000    299.42013   -1048.3468    150109.28   -47293.478    4111.8144   -51405.293   0.16211884 
    5200    293.78276   -918.53275    149867.23   -47300.207    4034.3988   -51334.606   0.16493743 
    5400    300.34208   -934.47389    149942.75   -47258.857    4124.4753   -51383.333   0.16871282 
    5600    301.07737   -1133.0902    150194.22   -47238.263    4134.5726   -51372.835   0.16636871 
    5800    297.45747   -1107.9276    150105.52   -47228.817    4084.8621   -51313.679   0.16666852 
    6000    303.45577   -874.15102     149846.8   -47218.669    4167.2343   -51385.903   0.16024122 
    6200    302.89118    -927.7781    149966.16   -47210.724     4159.481   -51370.205    0.1614526 
    6400    304.59885   -1130.1872    150223.34   -47174.772    4182.9317   -51357.704    0.1642904 
    6600    301.04881   -1057.1282    150089.95   -47216.807    4134.1805   -51350.987   0.16904561 
    6800    294.93003   -883.35716    149846.43   -47260.946    4050.1537     -51311.1   0.16735306 
    7000     297.9751    -977.7347    149959.04   -47263.132    4091.9705   -51355.103    0.1623172 
    7200    302.19525    -1132.469    150149.94   -47206.463    4149.9241   -51356.387   0.16302293 
    7400    302.16673   -1032.4247    150006.05   -47192.559    4149.5323   -51342.092   0.17269569 
    7600    299.14563   -888.97214    149775.81   -47230.443    4108.0448   -51338.488   0.17163913 
    7800    299.07905    -1007.908    149922.39   -47258.137    4107.1305   -51365.267   0.17362764 
    8000    306.58064   -1148.0128    150195.99   -47219.513    4210.1468    -51429.66   0.16809558 
    8200    293.45842   -1029.5744    150035.44   -47257.883    4029.9447   -51287.828   0.16294276 
    8400    297.62108   -799.90787    149752.67   -47288.669    4087.1088   -51375.778   0.16013133 
    8600    293.93451   -996.56271    149957.65   -47244.437    4036.4827   -51280.919   0.17023288 
    8800    302.67612    -1216.355    150284.81   -47168.285    4156.5276   -51324.813   0.17768032 
    9000    307.68398   -1013.4122    150061.16   -47150.059    4225.2985   -51375.357   0.16362419 
    9200    307.83757   -749.84437    149738.53   -47139.144    4227.4077   -51366.552   0.15915797 
    9400     304.8593   -1018.4835    150067.85   -47187.427    4186.5083   -51373.935   0.16303125 
    9600    304.00601   -1221.4565    150401.84   -47170.507    4174.7904   -51345.297   0.16560531 
    9800    301.76876   -995.26699    150007.48   -47194.107    4144.0672   -51338.174   0.17227171 
   10000    299.43096   -713.76121    149647.58   -47195.482    4111.9632   -51307.445   0.16359652 
   10200    302.64682    -1040.248    150095.64    -47182.09    4156.1252   -51338.215   0.16172456 
   10400    295.07902   -1310.2179    150410.86   -47162.353    4052.1998   -51214.552   0.16556338 
   10600    306.03609   -896.66241     149906.8   -47152.596    4202.6688   -51355.265   0.16307074 
   10800     300.7416   -689.29862    149597.72   -47190.481    4129.9617   -51320.442    0.1627094 
   11000     302.5927   -1101.7706    150128.06   -47227.271     4155.382   -51382.653   0.16459751 
   11200    300.72506   -1301.8177    150385.64   -47238.162    4129.7345   -51367.896   0.16826579 
   11400    297.32926   -874.42198    149773.45   -47274.664    4083.1014   -51357.765   0.16396069 
   11600    303.72515   -674.36745    149569.42   -47248.765    4170.9335   -51419.699   0.16074169 
   11800    292.15691   -1227.2174    150251.02   -47314.373    4012.0716   -51326.445   0.17191564 
   12000    294.06498   -1298.8418    150370.04   -47310.578    4038.2744   -51348.852   0.17004266 
   12200    300.36001   -755.61503    149684.57   -47299.805    4124.7214   -51424.527   0.16102709 
   12400     298.7868    -746.8793     149672.5    -47267.92    4103.1172   -51371.037   0.15827097 
   12600    296.59449   -1254.1899    150377.13   -47269.116    4073.0111   -51342.128   0.16597707 
   12800    298.50415   -1237.6896    150295.83   -47281.321    4099.2356   -51380.557   0.16650551 
   13000    298.10616     -752.322    149623.29   -47270.132    4093.7702   -51363.902   0.16139475 
   13200    299.35224    -884.2242     149810.6   -47240.181    4110.8821   -51351.063   0.16415181 
   13400    296.02701   -1275.3244    150412.09   -47250.357    4065.2182   -51315.575   0.17019774 
   13600    302.69624   -1077.5227    150174.34    -47245.31    4156.8039   -51402.113   0.16113153 
   13800    298.24403   -734.77306    149634.01    -47246.82    4095.6636   -51342.483   0.15976191 
   14000    299.43676   -878.84096    149907.39   -47265.405    4112.0428   -51377.448   0.15754386 
   14200    293.68092   -1260.9623    150352.65   -47284.296    4033.0003   -51317.297   0.17339119 
   14400    297.29784   -1070.2089    150069.75   -47314.929    4082.6699   -51397.598   0.16521176 
   14600    297.09513   -758.27579    149698.24   -47315.549    4079.8861   -51395.435   0.15288085 
   14800    298.99964   -937.50025    149965.13   -47295.386    4106.0401   -51401.426   0.15524068 
   15000    290.55266   -1205.6384    150270.54   -47343.041    3990.0411   -51333.082     0.164708 
   15200    292.31616   -1045.8874    150022.02   -47401.846    4014.2585   -51416.104   0.16641559 
   15400     294.8766   -842.19266    149740.83   -47423.358      4049.42   -51472.778    0.1645323 
   15600    294.41865   -955.20689    149905.84   -47457.906    4043.1311   -51501.037   0.15620968 
   15800    294.68268   -1099.1316     150141.9   -47403.921     4046.757   -51450.678   0.15864506 
   16000    292.67091   -1032.9262    150047.57   -47390.844    4019.1301   -51409.974    0.1579792 
   16200    298.75895   -864.26343    149853.87   -47340.284    4102.7347   -51443.019   0.15861796 
   16400    295.75279   -975.69842    149980.92   -47335.474    4061.4524   -51396.927   0.16100878 
   16600    296.94277   -1164.0485    150194.77   -47350.444    4077.7939   -51428.238   0.16109864 
   16800    297.86937   -1003.3531    150010.04    -47306.11    4090.5185   -51396.629   0.16232864 
   17000    295.28851   -860.47478    149798.85   -47332.709    4055.0765   -51387.785   0.15660627 
   17200    297.70079   -1004.7648    149989.65   -47312.014    4088.2035   -51400.218   0.16390598 
   17400    294.00283   -1171.8089    150165.24   -47355.069    4037.4209    -51392.49   0.16489666 
   17600    292.90208   -973.78697    149933.08   -47397.221    4022.3048   -51419.525   0.15719178 
   17800    292.84075   -904.93755    149772.36   -47418.664    4021.4625   -51440.127   0.15703658 
   18000    298.20746   -1039.4756    149996.33   -47450.301    4095.1613   -51545.462   0.14780251 
   18200    294.45088   -1095.8141    150120.43   -47473.964    4043.5737   -51517.537   0.15188981 
   18400    289.50451   -946.93107    149882.75   -47498.239    3975.6472   -51473.886   0.14931388 
   18600     293.1261   -850.41338    149778.27   -47455.339    4025.3812   -51480.721   0.15496262 
   18800    293.21238   -1063.2453    150064.53   -47385.409     4026.566   -51411.975   0.16110347 
   19000    291.24125   -1161.9821    150201.94   -47411.519    3999.4972   -51411.017   0.15828215 
   19200    297.22102   -890.95855    149884.86   -47389.014    4081.6149   -51470.629   0.15220676 
   19400    296.74929   -833.18397    149764.62   -47381.678    4075.1369   -51456.815   0.15679176 
   19600    293.63988     -1080.92    150102.73   -47406.049    4032.4367   -51438.486   0.16023217 
   19800    294.14207   -1174.8672    150172.29   -47401.475    4039.3329   -51440.808    0.1660931 
   20000    296.75672   -858.32489    149797.45   -47396.602    4075.2389   -51471.841   0.15876859 
   20200    294.30302   -843.95262    149738.21   -47424.666    4041.5433   -51466.209   0.15685268 
   20400    294.23022    -1114.547    150129.39   -47396.812    4040.5436   -51437.355   0.16153499 
   20600    291.69143   -1139.7884    150164.11   -47390.106    4005.6793   -51395.785   0.16119893 
   20800    294.11886   -876.93071    149735.72   -47398.733    4039.0142   -51437.747    0.1649115 
   21000    293.76224   -866.52564    149752.51   -47393.707     4034.117   -51427.824    0.1622785 
   21200    290.40909   -1204.2546    150219.34   -47375.882    3988.0696   -51363.951   0.15944979 
   21400    294.64405   -1161.3715    150139.59   -47371.749    4046.2265   -51417.975   0.16034436 
   21600    301.38402   -727.26222    149615.25   -47335.231    4138.7838   -51474.015   0.15337841 
   21800    299.37527   -826.63071    149781.03   -47283.049    4111.1984   -51394.247   0.15644671 
   22000    299.30252   -1313.9447    150384.92   -47279.387    4110.1994   -51389.587   0.16316825 
   22200    297.23414   -1086.8451    150139.28   -47239.427    4081.7952   -51321.222   0.16170115 
   22400    302.37111   -632.20624    149514.75   -47225.371    4152.3391    -51377.71   0.15872178 
   22600    304.91449   -903.68731    149899.16   -47228.871    4187.2663   -51416.138   0.15692404 
   22800    299.67066   -1380.7765    150533.41   -47254.465    4115.2549    -51369.72   0.16618195 
   23000    296.73326   -1019.4104    150020.75   -47280.486    4074.9167   -51355.403   0.16356286 
   23200     302.5729   -564.20764    149386.48   -47283.417    4155.1102   -51438.527   0.15584819 
   23400    295.22912   -1000.0248    150003.23   -47285.823    4054.2611   -51340.084   0.15961098 
   23600    296.42822   -1433.5492    150574.51   -47292.096    4070.7277   -51362.823   0.16913221 
   23800    301.79939   -918.54149    149895.57   -47240.325    4144.4878   -51384.812   0.16270849 
   24000    299.21801   -611.15622    149423.15   -47284.536    4109.0388   -51393.575    0.1613098 
   24200    299.99403   -1121.4239    150063.61   -47260.623    4119.6956   -51380.319   0.16702259 
   24400    297.04965   -1338.4417    150417.02   -47258.228    4079.2617    -51337.49   0.17437887 
   24600    295.50649   -906.96885       149825   -47267.222      4058.07   -51325.292   0.16770338 
   24800    300.15084   -750.63267    149597.84   -47192.384     4121.849   -51314.233   0.16473868 
   25000    300.51791    -1086.809     150149.6   -47184.082    4126.8898   -51310.972   0.16257799 
   25200    301.83226   -1203.6396    150307.73   -47206.803    4144.9393   -51351.742   0.16345002 
   25400    299.82017   -911.20417    149849.04   -47277.914     4117.308   -51395.222   0.15764216 
   25600    300.59496    -828.1563    149743.84   -47303.761    4127.9479   -51431.709   0.15173797 
   25800    299.28371   -1107.4045    150091.14    -47275.25     4109.941   -51385.191   0.16115724 
   26000    300.86223   -1099.3875    150119.22   -47250.563    4131.6182   -51382.181   0.16590451 
   26200    296.13787   -936.54834    149821.39   -47302.809    4066.7406    -51369.55   0.16330092 
   26400     300.5533    -842.6928    149786.02   -47327.713    4127.3758   -51455.089   0.15511725 
   26600    298.04271   -1104.9131    150092.38   -47333.618    4092.8989   -51426.517   0.16271834 
   26800    297.39907   -1129.5832    150140.15    -47336.96      4084.06    -51421.02   0.15856933 
   27000    297.33621   -916.49307    149867.79   -47341.051    4083.1968   -51424.248   0.15777219 
   27200    300.63104   -881.23828    149814.94   -47335.897    4128.4434   -51464.341   0.15805672 
   27400     301.1449   -1075.6301    150039.77   -47297.512    4135.5001   -51433.012   0.16071996 
   27600    301.36306   -1079.5553    150071.43   -47301.569    4138.4959   -51440.065    0.1587924 
   27800    292.15795   -956.57402    149867.55   -47299.674    4012.0858   -51311.759   0.16012086 
   28000    297.88138   -948.27015    149860.46   -47288.874    4090.6835   -51379.557   0.16495178 
   28200    298.67163   -1092.4154    150084.44    -47304.27    4101.5356   -51405.806   0.16620787 
   28400    299.09713   -1028.2186    150047.86   -47299.016    4107.3789   -51406.395   0.16306122 
   28600    297.70842   -888.54788    149824.06   -47324.296    4088.3082   -51412.605    0.1592553 
   28800     298.8369   -920.54442    149888.31   -47335.815    4103.8053    -51439.62   0.15420147 
   29000    295.65344   -1123.3104    150118.03   -47369.214     4060.088   -51429.302    0.1570794 
   29200    296.09109   -1017.0945       150023   -47407.047    4066.0981   -51473.146   0.15392128 
   29400    293.78922   -882.66311    149804.56   -47410.049    4034.4875   -51444.536   0.15291517 
   29600    296.83949   -1003.6433    149928.18   -47369.777    4076.3756   -51446.152    0.1558917 
   29800    301.15753   -1079.2787    150125.71   -47286.183    4135.6735   -51421.857   0.15430832 
   30000    299.67819   -1034.5651    149971.58   -47278.448    4115.3583   -51393.806   0.15594786 
   30200    296.54468   -870.39745    149808.57   -47290.212     4072.327   -51362.539   0.15652454 
   30400    293.13437   -1059.6267     150004.3   -47341.247    4025.4946   -51366.741   0.16234003 
   30600    301.18917   -1055.6999    150096.42   -47285.668     4136.108   -51421.776   0.16483183 
   30800    302.16059   -950.66234    149914.04   -47253.953    4149.4481   -51403.401   0.15506915 
   31000    298.39123   -925.57585    149907.49   -47239.705     4097.685    -51337.39   0.15695794 
   31200    302.73863   -1089.9943    150139.44   -47239.397    4157.3861   -51396.783   0.16318543 
   31400     294.5301   -1104.7578    150112.64   -47235.621    4044.6616   -51280.282   0.16491555 
   31600    294.72139   -877.66583    149794.99   -47303.574    4047.2885   -51350.862   0.16130152 
   31800    297.83231   -926.20261    149852.47   -47273.627    4090.0095   -51363.636   0.16324433 
   32000    301.52366   -1181.3174    150245.52   -47237.947    4140.7013   -51378.648   0.16575072 
   32200    298.02465    -1099.114    150182.24   -47273.299    4092.6508    -51365.95   0.15986219 
   32400    294.96438   -808.07133     149743.7   -47274.375    4050.6255       -51325    0.1566541 
   32600    301.51672   -882.97029    149876.33   -47260.919     4140.606   -51401.525   0.16263447 
   32800    299.85277   -1289.5585    150405.42   -47249.143    4117.7557   -51366.898   0.16145601 
   33000    302.55602   -1074.4694    150193.15    -47241.19    4154.8784   -51396.068   0.15814129 
   33200     300.3807   -676.60348    149590.66   -47243.509    4125.0055   -51368.514   0.15333407 
   33400    304.07374   -890.23111    149875.58   -47201.699    4175.7206    -51377.42   0.15642133 
   33600    305.60341   -1306.8125    150499.25   -47121.778    4196.7269   -51318.505   0.16244108 
   33800    301.44036   -1095.3126    150191.63   -47162.336    4139.5575   -51301.894   0.16380571 
   34000    302.43983   -643.17043    149580.77   -47192.273    4153.2827   -51345.556   0.15658686 
   34200    296.85011   -913.12459    149940.42   -47221.258    4076.5214   -51297.779   0.15772057 
   34400    295.68181   -1351.6258    150508.42   -47279.073    4060.4776   -51339.551   0.16110904 
   34600    296.19325    -1001.715    150048.99    -47259.39     4067.501   -51326.891   0.16044874 
   34800    297.81136   -653.83494    149526.67   -47308.501    4089.7219   -51398.222    0.1571786 
   35000    300.20253   -1013.1343    150005.86   -47330.016    4122.5588   -51452.575   0.15742033 
   35200    299.63877   -1344.1566    150439.25   -47309.036     4114.817   -51423.853   0.16573635 
   35400    295.92194   -934.19401    149948.15   -47276.476    4063.7753   -51340.251   0.15749037 
   35600    302.43921   -687.27701    149631.74   -47275.464    4153.2743   -51428.739   0.15020166 
   35800    296.95676    -1121.761    150152.28   -47270.769     4077.986   -51348.755   0.16182632 
   36000    298.28361    -1268.929    150400.01   -47266.643     4096.207    -51362.85   0.16322869 
   36200    300.83754   -865.40435    149868.58   -47291.251    4131.2792    -51422.53   0.15524269 
   36400    298.49674   -740.12788    149685.13    -47322.02    4099.1339   -51421.154    0.1507498 
   36600    294.74279   -1153.6887     150192.2   -47289.546    4047.5824   -51337.129   0.15716011 
   36800    293.58663   -1235.8546    150267.31   -47332.806    4031.7054   -51364.511   0.16350926 
   37000    294.83395   -823.70273    149728.72   -47329.823    4048.8343   -51378.657   0.15758179 
   37200    299.56428   -795.15596     149708.9   -47291.219     4113.794   -51405.013   0.15633615 
   37400    300.66661   -1157.9012     150247.8   -47275.174    4128.9318   -51404.106   0.15826826 
   37600    300.74661   -1184.3787    150251.12   -47301.999    4130.0305    -51432.03   0.15385479 
   37800    302.60162    -798.7232    149745.68   -47273.232    4155.5046   -51428.736   0.15285998 
   38000    295.35226   -890.61678    149790.03   -47328.748    4055.9521     -51384.7   0.15702281 
   38200    296.54241   -1199.3937    150231.41   -47316.033    4072.2959   -51388.329   0.16110708 
   38400    302.53104   -1098.8273    150139.76   -47282.596    4154.5353   -51437.131   0.15962154 
   38600    301.22061    -823.2467    149769.83   -47285.434    4136.5398   -51421.974   0.15475633 
   38800    302.30549   -923.05722    149883.53   -47336.645    4151.4379   -51488.083   0.15530367 
   39000    294.42512   -1168.5321    150203.86   -47358.027    4043.2201   -51401.247   0.15708421 
   39200     289.5793    -1060.173    150039.11    -47380.47    3976.6743   -51357.145   0.16300956 
   39400    292.61037   -824.90669     149748.7   -47376.325    4018.2988   -51394.624   0.15688987 
   39600    293.21553   -974.47272    149940.57   -47447.465    4026.6092   -51474.074   0.15326098 
   39800    295.99094   -1143.3416    150192.69   -47431.628    4064.7228    -51496.35   0.15561789 
   40000    290.90685     -1039.38     149941.7   -47446.295     3994.905     -51441.2   0.15492298 
   40200    295.23821   -807.84179    149686.85   -47425.097    4054.3859   -51479.483   0.15064072 
   40400    294.12917   -1019.8815    149983.56   -47415.973    4039.1558   -51455.128   0.15389607 
   40600      291.004   -1185.6097    150207.59   -47441.114    3996.2391   -51437.353    0.1580687 
   40800    291.32005   -987.22565     149878.9   -47465.023    4000.5793   -51465.603   0.15174606 
   41000    293.50043   -771.54953    149686.76   -47422.016    4030.5216   -51452.537   0.14493299 
   41200    293.67404   -1078.6105    150024.03    -47451.57    4032.9058   -51484.476   0.15341275 
   41400    291.53325   -1136.7207    150174.55   -47411.639    4003.5072   -51415.146    0.1576698 
   41600    289.97417   -950.78442    149862.12   -47411.375    3982.0969   -51393.472   0.15354782 
   41800    296.86721   -828.41357    149759.21   -47411.724    4076.7563    -51488.48     0.146617 
   42000    299.18687   -1061.9953    150040.86   -47379.972    4108.6112   -51488.583   0.15541501 
   42200     295.6656   -1128.4912    150102.84   -47404.715     4060.255   -51464.969   0.15300018 
   42400    298.05255   -931.24176    149841.64   -47460.741    4093.0341   -51553.776   0.14823412 
   42600    292.87897   -855.08868     149804.1   -47488.199    4021.9874   -51510.187   0.14920123 
   42800    288.26162   -1068.4403    150032.18   -47485.321    3958.5791     -51443.9   0.15941976 
   43000    289.81993   -1103.9986    150064.75   -47438.202    3979.9789   -51418.181   0.16083521 
   43200    293.85657   -916.12492    149889.11   -47444.345    4035.4124   -51479.758   0.15105716 
   43400    293.47406   -991.63291    149916.99   -47435.914    4030.1595   -51466.073   0.15632262 
   43600    296.67197   -1065.1448     150044.7   -47429.745    4074.0751    -51503.82   0.15632513 
   43800    294.29999   -1034.5431    150003.94   -47401.708    4041.5016    -51443.21    0.1592965 
   44000    290.50998   -1004.0159    149916.27   -47421.647    3989.4551   -51411.102   0.16108527 
   44200     290.6221   -959.87419    149924.67   -47465.627    3990.9947   -51456.621   0.15484529 
   44400    292.52911   -1017.7552    149974.87   -47438.722    4017.1829   -51455.905   0.15523773 
   44600    297.77102   -988.71418     149972.5   -47375.196    4089.1679   -51464.364   0.15362095 
   44800    301.49647   -967.69222    149926.14   -47340.191     4140.328   -51480.519   0.15424643 
   45000    296.73502    -994.7358    149944.63   -47376.565    4074.9409   -51451.506   0.15713533 
   45200    291.82504   -1011.2282    149996.27   -47395.748    4007.5142   -51403.262   0.15744125 
   45400    294.23056   -1043.3074    149972.86   -47447.124    4040.5483   -51487.672   0.15187484 
   45600    294.87652   -967.24938    149918.34   -47435.921    4049.4189    -51485.34   0.14862154 
   45800    297.12828   -971.34266    149930.04   -47409.011    4080.3414   -51489.352   0.15542479 
   46000    293.41605   -1004.2541    149977.81   -47404.621    4029.3628   -51433.984   0.15637289 
   46200    293.95145   -1042.9237    149984.05   -47438.299    4036.7153   -51475.014   0.15248719 
   46400     290.2043   -984.37066    149927.47   -47421.561    3985.2572   -51406.818   0.15425261 
   46600    289.51383   -990.42424    149949.37   -47418.849    3975.7753   -51394.624   0.15594176 
   46800    294.03316   -1021.2059    150003.46    -47381.61    4037.8374   -51419.447   0.15053153 
   47000    294.92901   -1038.0316    149968.25   -47360.725    4050.1397   -51410.865   0.15814913 
   47200    298.80213   -951.46514     149947.7   -47331.022    4103.3277    -51434.35   0.16061181 
   47400     297.7785   -988.71522    149998.94   -47259.348    4089.2706   -51348.619   0.16447888 
   47600    304.52106    -1037.739    150041.99   -47232.565    4181.8635   -51414.428   0.15643917 
   47800    300.49305   -1014.6822    150020.21   -47200.175    4126.5484   -51326.723    0.1587109 
   48000    300.96884   -998.97186    150004.42    -47204.91    4133.0823   -51337.992   0.16557298 
   48200    300.77849   -977.91699    150000.19    -47205.38    4130.4683   -51335.848    0.1607954 
   48400    301.21095   -991.27506    150028.89   -47185.388     4136.407   -51321.795   0.16400397 
   48600    298.30477   -1028.5984    150036.21    -47251.87    4096.4976   -51348.368   0.16300352 
   48800    298.24563   -989.59756    149995.73   -47192.338    4095.6856   -51288.024   0.16520569 
   49000    300.85884   -1023.7878    150017.46   -47170.355    4131.5717   -51301.927   0.16119768 
   49200    298.22332   -1048.0003    150040.88   -47204.902    4095.3792   -51300.282   0.16386238 
   49400    297.32552   -996.23868    149989.34    -47216.09      4083.05    -51299.14   0.16837603 
   49600    301.76165    -968.7906    149965.25   -47235.342    4143.9696   -51379.312   0.16055999 
   49800    304.77205   -1032.5707    150060.04   -47212.863    4185.3102   -51398.173   0.15772134 
   50000    302.17186   -1029.3782    150060.26   -47213.175    4149.6028   -51362.777    0.1551083 
   50200     302.9289   -951.55673    149950.75   -47253.451     4159.999    -51413.45   0.15711187 
   50400    298.46276   -934.41039    149955.23   -47257.914    4098.6673   -51356.582    0.1635806 
   50600    295.37152   -1066.1595    150061.97    -47277.54    4056.2166   -51333.757   0.16325725 
   50800    296.03889   -1064.0323    150033.77   -47289.026    4065.3812   -51354.408   0.16323635 
   51000    301.80757   -894.39915    149894.55   -47224.704    4144.6002   -51369.304   0.15915493 
   51200    300.50403   -965.80462     149980.9   -47255.708    4126.6993   -51382.407   0.15579135 
   51400     301.8411   -1101.9402    150121.16    -47215.45    4145.0607    -51360.51   0.16411583 
   51600    299.26271   -1080.4538    150032.69   -47218.202    4109.6526   -51327.855   0.17266476 
   51800    297.23204   -902.15922    149874.82   -47215.486    4081.7663   -51297.252   0.16201113 
   52000    303.02161    -1004.171    150017.89   -47174.795    4161.2721   -51336.067   0.15934959 
   52200    305.33356   -1130.9389    150214.89   -47142.853    4193.0211   -51335.874   0.16182375 
   52400    305.30783   -994.21152    150057.81   -47125.371    4192.6679   -51318.039   0.16809642 
   52600    291.70442   -906.78927    149856.82   -47166.777    4005.8577   -51172.634   0.17257178 
   52800    305.05606     -1007.19    150007.32   -47186.744    4189.2104   -51375.954    0.1623707 
   53000    302.17494   -1102.9723    150193.67   -47188.528    4149.6451   -51338.173   0.16585121 
   53200    300.08127    -997.6924    149998.68   -47199.799    4120.8936   -51320.692   0.15796693 
   53400    299.63144   -841.78216    149771.48   -47232.407    4114.7163   -51347.123   0.16011814 
   53600    305.29256   -970.38834    150007.26   -47257.219    4192.4581   -51449.677   0.15876204 
   53800    301.46231   -1193.6983    150274.45   -47226.932    4139.8588   -51366.791   0.16344195 
   54000    300.85961   -941.65789    149922.52   -47223.607    4131.5822   -51355.189   0.16255912 
   54200    298.77706   -706.66522    149676.06   -47235.025    4102.9834   -51338.008   0.15239928 
   54400    300.41982    -1118.176    150127.27   -47257.458    4125.5428   -51383.001   0.16415867 
   54600    300.06245   -1288.6497    150327.44   -47247.819    4120.6352   -51368.454   0.17663932 
   54800    300.07622   -866.65231    149814.81   -47196.475    4120.8243   -51317.299   0.16615512 
   55000    304.08836   -769.73062    149689.47   -47202.828    4175.9213    -51378.75   0.15880415 
   55200    297.19311   -1183.8566     150257.3   -47224.856    4081.2317   -51306.087   0.16679562 
   55400    300.36822   -1221.4149     150298.8   -47248.053    4124.8342   -51372.888   0.16701358 
   55600    302.03959   -754.63213    149669.25     -47294.7    4147.7864   -51442.487   0.15271092 
   55800    295.59974   -794.38305    149676.02    -47266.59    4059.3506    -51325.94   0.16222217 
   56000    302.52425   -1273.8582    150360.02   -47241.663    4154.4421   -51396.105   0.16628492 
   56200    303.83273   -1227.8954    150286.27   -47278.485    4172.4109   -51450.896   0.16269502 
   56400    299.25202   -712.35271    149579.28    -47290.15    4109.5058   -51399.656    0.1558908 
   56600    295.57517   -823.41501    149712.12   -47293.477    4059.0132    -51352.49   0.16229692 
   56800     302.3061    -1274.467    150407.88   -47231.175    4151.4463   -51382.622   0.16865604 
   57000    300.97786    -1166.657    150242.94   -47240.862    4133.2062   -51374.069   0.16240853 
   57200    300.01777   -698.55965    149541.97   -47281.619    4120.0216   -51401.641   0.15891361 
   57400    303.47534    -847.3607    149743.56   -47300.196    4167.5029   -51467.699   0.15910912 
   57600    298.40848   -1297.6555    150391.07   -47277.082    4097.9219   -51375.004   0.16615414 
   57800    300.05905   -1140.1646    150144.33   -47292.791    4120.5885   -51413.379   0.16139131 
   58000    301.23839   -663.76682    149544.19   -47315.021    4136.7838   -51451.805    0.1526807 
   58200    297.38183   -876.83729    149812.07   -47353.904    4083.8233   -51437.727   0.15739871 
   58400      295.656   -1280.0441    150328.58   -47337.416    4060.1232   -51397.539    0.1621742 
   58600     297.1172   -1090.9894    150012.98   -47319.866    4080.1893   -51400.055   0.16118777 
   58800    297.53944   -759.17611    149595.79   -47358.813    4085.9877     -51444.8   0.15812116 
   59000     297.4903   -949.95199    149882.73   -47380.182    4085.3129   -51465.495   0.16208341 
   59200    294.54183   -1234.2035       150197   -47375.035    4044.8228   -51419.858   0.16793685 
   59400    295.69872   -1020.1568    149959.52   -47318.803    4060.7099   -51379.513   0.16173147 
   59600    295.52425   -860.96725     149765.3   -47318.069    4058.3139   -51376.383   0.15706238 
   59800    299.59097   -1022.6442    149985.49    -47300.22    4114.1605   -51414.381   0.15638876 
   60000    295.61353   -1129.0063    150123.16   -47284.277    4059.5399   -51343.817   0.16439004 
   60200    302.99761   -981.82345     149941.3   -47259.086    4160.9425   -51420.028   0.15959053 
   60400    297.09907   -913.16834    149858.88   -47227.538    4079.9403   -51307.478   0.16550677 
   60600    301.03408   -1037.0491    150076.21   -47266.533    4133.9782   -51400.511   0.15744294 
   60800    298.38076   -1099.7249       150162   -47202.818    4097.5412   -51300.359   0.16102164 
   61000    301.17809   -980.13843     149997.5   -47247.371    4135.9558   -51383.327   0.15795099 
   61200     300.6928   -881.69711    149919.47    -47253.11    4129.2915   -51382.402   0.15962755 
   61400    300.46626   -1056.5001    150082.02   -47248.817    4126.1806   -51374.998   0.16223421 
   61600    302.47908   -1070.7784    150126.42   -47239.479    4153.8217   -51393.301   0.15642971 
   61800    300.79592   -955.80119    149935.94   -47242.461    4130.7076   -51373.169   0.15895837 
   62000    302.55575   -926.82189     149903.7   -47268.678    4154.8746   -51423.553   0.15581554 
   62200    300.86824   -1047.8739    150058.46   -47277.998    4131.7008   -51409.699   0.15930288 
   62400    304.44383      -1038.3    150030.89   -47237.421    4180.8029   -51418.224   0.16041826 
   62600    298.81825   -918.28739    149891.79    -47260.33     4103.549   -51363.879   0.16030522 
   62800    298.21284    -958.5578    149932.71   -47235.691    4095.2353   -51330.926   0.15910645 
   63000    304.58059   -1058.7673    150080.53   -47200.532     4182.681   -51383.213   0.15622748 
   63200    303.79151   -1018.7578    150043.82   -47205.164    4171.8448   -51377.009   0.16431966 
   63400     304.3777   -959.45613    149892.44   -47162.519    4179.8948   -51342.414   0.16662576 
   63600    301.60074   -978.71951    149938.06   -47141.423    4141.7599   -51283.183   0.16457374 
   63800    305.26324   -1059.1889    150099.55     -47168.2    4192.0555   -51360.256   0.16256584 
   64000    302.00521   -1019.2838    150033.72   -47161.729    4147.3143   -51309.043   0.16160815 
   64200    308.44536    -917.4859    149878.34   -47167.409    4235.7542   -51403.164   0.15648024 
   64400     303.5305    -958.7144    149950.86   -47152.397    4168.2604   -51320.657   0.16068996 
   64600    300.65053   -1087.0419    150101.44   -47207.362     4128.711   -51336.073   0.16954244 
   64800    302.91637   -1021.7835    149980.02   -47220.174    4159.8269       -51380   0.16520727 
   65000     298.9177   -877.66075    149826.53   -47210.915    4104.9147    -51315.83    0.1602918 
   65200    292.50768   -993.03383    149991.37   -47235.377    4016.8886   -51252.265   0.16274338 
   65400    300.28232   -1134.7312    150170.12   -47259.991    4123.6546   -51383.645    0.1661267 
   65600    296.49649   -977.39258    149954.83   -47287.589    4071.6653   -51359.254   0.16396021 
   65800    298.87067   -842.62906    149753.45     -47265.1    4104.2689   -51369.369   0.15822956 
   66000    300.08991    -1008.835    150007.42   -47260.792    4121.0123   -51381.805   0.15889377 
   66200    300.08209   -1130.8628    150188.66   -47284.032    4120.9049   -51404.937   0.15609069 
   66400    301.84148   -906.58118    149839.71   -47284.049    4145.0659   -51429.114   0.15472831 
   66600    301.74496   -852.84267    149671.05    -47300.45    4143.7404    -51444.19   0.15786434 
   66800    295.06461    -1076.092     150070.4   -47274.255    4052.0019   -51326.257    0.1698832 
   67000    297.10767   -1207.8887    150232.56   -47301.792    4080.0583    -51381.85   0.16532305 
   67200    300.28463   -901.87325    149817.18   -47329.534    4123.6863    -51453.22   0.15560813 
   67400    296.06732   -798.74816    149680.02   -47365.385    4065.7717   -51431.157   0.15407493 
   67600    299.58047   -1139.5142     150143.6   -47313.974    4114.0163   -51427.991   0.16288549 
   67800    299.34222   -1255.5142     150287.6   -47257.205    4110.7445    -51367.95   0.16810606 
   68000    299.90316   -834.96972    149795.63   -47260.607    4118.4477   -51379.054   0.15200763 
   68200    293.80815   -817.74104    149708.12   -47336.738    4034.7474   -51371.486   0.15327323 
   68400    303.31248   -1149.1285    150202.82   -47272.418    4165.2665   -51437.684   0.16073286 
   68600    295.81573   -1242.8332    150267.96   -47254.199    4062.3167   -51316.515   0.16831078 
   68800    299.75068   -825.85794    149748.72   -47228.885    4116.3538   -51345.239   0.15881462 
   69000    299.86438   -819.81605    149747.98   -47277.182    4117.9152   -51395.097    0.1600342 
   69200    302.55639   -1206.3807    150263.08   -47275.583    4154.8834   -51430.467   0.16276514 
   69400    298.06715   -1180.2623    150146.34   -47316.778    4093.2346   -51410.013   0.16159739 
   69600    299.61346    -719.8544    149592.63   -47337.004    4114.4694   -51451.473   0.15185705 
   69800    298.20863   -854.59199    149765.41   -47300.546    4095.1775   -51395.723   0.15769808 
   70000     299.0516   -1244.0194    150334.75   -47252.183    4106.7536   -51358.937   0.16815392 
   70200     299.5612   -1107.7288    150171.89   -47236.301    4113.7517   -51350.053   0.15346007 
   70400    300.62976   -741.75388    149653.69   -47258.318    4128.4258   -51386.744   0.15461775 
   70600    301.08602   -893.75387    149856.68   -47228.686    4134.6914   -51363.378    0.1640481 
   70800    298.30984    -1253.403     150327.3   -47245.431    4096.5673   -51341.998   0.16513174 
   71000    299.59605   -1066.3983    150074.88   -47296.318    4114.2302   -51410.548   0.16383977 
   71200    300.94382   -739.91656     149649.4   -47310.183    4132.7387   -51442.922   0.15491082 
   71400     300.8495   -1002.5955    149938.55   -47273.957    4131.4434     -51405.4   0.16323765 
   71600    299.25881   -1264.3333    150307.06   -47244.685    4109.5992   -51354.284   0.16309324 
   71800    296.34702   -1017.0953    149976.68   -47270.213    4069.6127   -51339.825   0.15864211 
   72000    304.20575   -745.27894    149646.92   -47301.615    4177.5335   -51479.149   0.15303462 
   72200    290.81853   -1065.6658    149988.28   -47332.441    3993.6922   -51326.133   0.16220564 
   72400    292.95038   -1226.2129    150278.34   -47308.198    4022.9681   -51331.166    0.1643013 
   72600    297.45584   -942.39552    149937.97   -47279.353    4084.8397   -51364.192   0.15808982 
   72800    294.15796   -791.70947    149675.08   -47359.996    4039.5512   -51399.548   0.15304759 
   73000    296.90622   -1020.0592    149986.43   -47355.132    4077.2919   -51432.424   0.16469783 
   73200    294.75927   -1223.6168    150228.66   -47364.178    4047.8087   -51411.987   0.16571237 
   73400      292.579   -939.95694    149878.14   -47363.605     4017.868   -51381.473   0.15734445 
   73600    300.14858   -807.87139    149701.01   -47350.929     4121.818   -51472.747   0.15376238 
   73800     301.1628   -1050.2981    150077.72   -47340.236    4135.7459   -51475.982   0.15131484 
   74000    296.82556   -1200.9882    150217.76   -47386.567    4076.1843   -51462.751   0.15708518 
   74200    293.41772   -917.49928    149843.13   -47388.032    4029.3858   -51417.418    0.1603476 
   74400    295.14947   -831.39681    149745.74    -47350.15    4053.1673   -51403.317   0.15803418 
   74600    293.76717   -1157.9364     150129.5   -47369.087    4034.1846   -51403.271   0.15621535 
   74800    295.43527   -1164.5061    150183.65   -47378.463    4057.0919   -51435.555   0.15438268 
   75000    296.18791   -822.94658    149767.04   -47345.872    4067.4278     -51413.3   0.15622784 
   75200    293.47556   -871.89589    149793.27    -47331.99    4030.1801    -51362.17   0.15603076 
   75400    300.29507   -1145.3049    150211.81   -47313.076    4123.8296   -51436.905   0.15655433 
   75600    302.06792   -1113.0271    150127.09   -47293.275    4148.1754    -51441.45   0.15901619 
   75800    293.76851   -754.23906    149663.19   -47276.278     4034.203   -51310.481   0.15443639 
   76000    300.30491   -874.74988    149835.45   -47260.957    4123.9648   -51384.922    0.1526769 
   76200    294.56296   -1288.2309    150397.33   -47278.097    4045.1129    -51323.21   0.16152267 
   76400    305.29392   -1116.8086    150146.46   -47252.561    4192.4769   -51445.038   0.16188806 
   76600     298.7238    -607.3491    149508.73   -47246.093     4102.252   -51348.345    0.1555064 
   76800    296.71925   -943.83935    149915.03     -47242.4    4074.7244   -51317.124   0.15486612 
   77000     303.0906   -1455.6816    150667.32   -47232.704    4162.2195   -51394.924   0.16534732 
   77200    295.23984   -1094.5146    150106.17   -47287.775    4054.4082   -51342.184   0.16528524 
   77400    303.17209   -426.85652    149263.62   -47287.646    4163.3386   -51450.985   0.15194823 
   77600    296.68277   -970.98837    150001.57   -47296.498    4074.2234   -51370.722   0.16152166 
   77800    296.80851   -1602.1207    150803.73   -47292.835    4075.9501   -51368.785    0.1708129 
   78000    299.59779   -977.41648    149921.58    -47308.87    4114.2542   -51423.124   0.15309026 
   78200    298.73716    -472.3853    149231.45   -47310.343    4102.4356   -51412.779   0.15030014 
   78400    295.15445   -1113.6069     150099.3   -47321.793    4053.2356   -51375.028   0.15939827 
   78600      296.255   -1497.1127    150618.51   -47329.414     4068.349   -51397.763   0.16984515 
   78800    301.58886   -865.98708    149800.34   -47328.965    4141.5967   -51470.562   0.15235896 
   79000    293.34361   -616.15695    149461.45   -47314.597     4028.368   -51342.965   0.15272075 
   79200    293.75434    -1157.462    150201.79   -47316.856    4034.0084   -51350.865   0.16015257 
   79400    303.78164   -1286.5249    150416.41   -47265.046    4171.7093   -51436.756   0.16071466 
   79600    299.70943   -876.52253    149825.39    -47264.59    4115.7873   -51380.378   0.16123465 
   79800    299.05107   -781.59476    149726.46   -47293.771    4106.7464   -51400.517   0.15198277 
   80000    299.36903    -1203.549    150217.64    -47258.53    4111.1128   -51369.643   0.15934278 
   80200    303.66037   -1135.2203     150233.4   -47221.268    4170.0439   -51391.312   0.15552034 
   80400    300.57147    -860.7156    149810.03   -47195.431    4127.6253   -51323.057   0.15338476 
   80600     300.2605   -876.21754    149869.67   -47216.686    4123.3549   -51340.041   0.15588077 
   80800    305.92004   -1176.8914    150268.28   -47152.405    4201.0751    -51353.48   0.15956578 
   81000     296.8228   -1159.2673    150161.84   -47207.366    4076.1464   -51283.513   0.16781868 
   81200    303.36474   -816.77391    149782.51   -47193.004    4165.9841   -51358.988   0.15536223 
   81400      304.819   -886.15631     149934.6   -47167.744     4185.955   -51353.699   0.15192433 
   81600    307.93508   -1217.7824    150302.31   -47183.984    4228.7468   -51412.731   0.16432906 
   81800    304.12318   -1042.6885    150123.56   -47190.754    4176.3996   -51367.154   0.15960812 
   82000    301.68613   -793.99387     149756.6   -47161.738    4142.9325   -51304.671   0.15622761 
   82200    298.47403    -962.3641    149986.57   -47205.377    4098.8221   -51304.199   0.15700058 
   82400    303.63375   -1199.5503     150305.2   -47201.722    4169.6784   -51371.401   0.15516325 
   82600    300.28655   -1044.6308    149993.89   -47251.751    4123.7126   -51375.464   0.15424774 
   82800    295.35453   -782.87616    149689.21    -47295.43    4055.9833   -51351.413   0.15047508 
   83000    299.04117   -990.35139    150032.95    -47274.47    4106.6103    -51381.08   0.16214191 
   83200    293.61384   -1264.9082    150312.84   -47289.751     4032.079    -51321.83    0.1674902 
   83400    294.02411   -969.25874    149919.38   -47314.838    4037.7131   -51352.551   0.15269101 
   83600    300.68324   -722.78552    149660.77    -47335.27    4129.1603    -51464.43   0.14841386 
   83800    295.42672    -1092.702    150091.31   -47278.118    4056.9746   -51335.093   0.16146154 
   84000    293.53717   -1256.2586    150308.11   -47304.619    4031.0262   -51335.645   0.16426902 
   84200     292.3792   -945.44451    149871.11   -47298.429    4015.1242   -51313.553   0.15785601 
   84400    304.16303   -746.19086    149717.61   -47306.426    4176.9467   -51483.372   0.14191118 
   84600    296.24117   -1118.6113    150168.45   -47296.946    4068.1591   -51365.105    0.1484181 
   84800    295.31115   -1213.1617    150263.63    -47304.76    4055.3876   -51360.148   0.15372904 
   85000    298.85897   -842.12719    149796.97   -47274.767    4104.1083   -51378.875   0.15865523 
   85200    306.47258   -808.61702    149748.84   -47246.182    4208.6629   -51454.845   0.15679015 
   85400     299.0687   -1200.1212    150225.27   -47224.804    4106.9884   -51331.792   0.16206567 
   85600    296.21002   -1192.0578    150220.45   -47221.514    4067.7313   -51289.245   0.16156446 
   85800    301.61875   -796.84392    149762.17     -47242.5    4142.0072   -51384.507   0.15185394 
   86000    301.12199   -835.15803    149817.81   -47195.043    4135.1854   -51330.229   0.15546041 
   86200    301.31668   -1178.6961     150249.9   -47199.045    4137.8591   -51336.904   0.16321776 
   86400    300.89269   -1080.4013    150147.07   -47193.627    4132.0365   -51325.663   0.16014359 
   86600     301.1918      -791.19    149729.14   -47198.274    4136.1441   -51334.418   0.15239608 
   86800    296.92371   -953.30945       149880   -47227.927    4077.5322   -51305.459   0.15682602 
   87000    300.10827   -1183.8668    150272.71   -47243.595    4121.2645   -51364.859   0.16077302 
   87200    301.66461   -1042.0484     150066.5   -47215.386     4142.637   -51358.023   0.16385057 
   87400    296.13478    -835.3134    149725.19     -47181.5    4066.6981   -51248.198    0.1668123 
   87600    303.12121   -961.81187    149958.05   -47248.715    4162.6398   -51411.355   0.16046881 
   87800    298.14634   -1198.6173    150266.44   -47249.143     4094.322   -51343.465    0.1597235 
   88000    305.63087   -995.46014    149997.57   -47203.452     4197.104   -51400.556   0.15346247 
   88200    299.65397   -860.23173    149720.77   -47219.692    4115.0257   -51334.717   0.16402293 
   88400     297.5916   -978.24015    149997.65   -47200.874     4086.704   -51287.578   0.16335831 
   88600     296.3043   -1177.4719    150247.19   -47209.963    4069.0261   -51278.989   0.16381356 
   88800    298.44693   -996.84375    149947.25   -47206.032    4098.4499   -51304.482    0.1637614 
   89000    296.35061   -816.68058    149751.29   -47230.923     4069.662   -51300.585   0.16138389 
   89200    303.76183   -1047.2896    150009.54   -47200.827    4171.4373   -51372.264   0.16202509 
   89400    301.68427   -1150.0219    150168.46   -47168.912     4142.907   -51311.819   0.17299173 
   89600    296.64402   -1008.5114    149974.51   -47193.464    4073.6913   -51267.155   0.17199844 
   89800    297.98015    -885.2983    149835.03   -47231.101    4092.0398   -51323.141   0.16539842 
   90000    304.09301   -1019.3456    149990.83   -47246.612    4175.9853   -51422.597   0.15479857 
   90200     298.8304   -1085.0804    150072.33   -47289.967    4103.7159   -51393.683   0.15668377 
   90400    297.56133   -933.18933     149896.5   -47312.344    4086.2883   -51398.632   0.16232461 
   90600    299.94356   -931.69714    149846.41   -47305.729    4119.0026   -51424.731   0.15967612 
   90800    295.40336   -1065.5109    150009.79    -47327.29    4056.6538   -51383.944   0.16272381 
   91000    297.67403   -1077.9469    149996.16   -47328.049    4087.8359   -51415.885   0.16027529 
   91200    294.41826   -937.63418    149835.91   -47344.998    4043.1258   -51388.124   0.15763615 
   91400    294.49807   -985.09413    149860.88   -47334.812    4044.2218   -51379.034   0.16248436 
   91600    296.22681   -1057.7407    149985.15   -47338.226    4067.9619   -51406.188   0.16231255 
   91800    295.42165   -1036.0355     149961.2   -47313.978     4056.905   -51370.883   0.16260725 
   92000    296.53826   -945.19951     149862.2   -47330.813    4072.2389   -51403.052   0.15584659 
   92200    300.02216   -986.45942    149886.14   -47355.032    4120.0818   -51475.114   0.14920131 
   92400    294.80602   -1056.8005     150004.5   -47330.497    4048.4507   -51378.947   0.15686407 
   92600    299.75359   -1027.3481    149959.67   -47390.178    4116.3938   -51506.572   0.15919267 
   92800    297.94428   -924.23126    149827.82   -47359.685    4091.5472   -51451.232   0.15875151 
   93000    295.16906   -985.48288    149913.91     -47285.4    4053.4362   -51338.836   0.16450879 
   93200    299.68834   -1109.7385    150109.57   -47282.315    4115.4977   -51397.813   0.16157085 
   93400    300.09049    -1053.798    150032.47   -47285.796    4121.0203   -51406.816   0.16193971 
   93600    299.54033   -867.14238    149829.48   -47272.597    4113.4652   -51386.062   0.16020267 
   93800    303.27683   -1010.8026    149969.16   -47262.288    4164.7769   -51427.065   0.15834678 
   94000    302.15086   -1136.4538    150194.48   -47259.734    4149.3144   -51409.048   0.16022461 
   94200    292.50408    -990.2276    149989.84   -47346.212    4016.8392   -51363.051   0.15700725 
   94400     302.8917   -810.74832    149719.08    -47336.31    4159.4881   -51495.798   0.15146727 
   94600    294.62344   -981.82976    149969.45   -47330.429    4045.9435   -51376.372    0.1580039 
   94800    302.07422   -1231.9777    150284.96   -47379.773     4148.262   -51528.035   0.15988313 
   95000    294.38135   -960.32499    149922.03   -47390.896    4042.6189   -51433.515   0.16040703 
   95200    293.91801    -710.5417    149581.13   -47401.951    4036.2561   -51438.207   0.15359975 
   95400    292.98847   -1121.2811    150091.23   -47408.324    4023.4911   -51431.815   0.15501028 
   95600    288.84037    -1300.041    150440.05   -47361.807    3966.5269   -51328.334   0.15736719 
   95800    295.97113   -812.95361    149805.45   -47335.229    4064.4507    -51399.68   0.15231764 
   96000    298.58692   -642.74021    149508.11   -47332.043    4100.3723   -51432.415   0.15307047 
   96200    296.05284   -1159.6863     150251.7   -47365.212    4065.5728   -51430.784   0.15076525 
   96400    295.21978   -1350.7023    150470.99   -47354.314    4054.1328   -51408.447   0.16129746 
   96600    292.94719   -774.85996    149656.26   -47378.609    4022.9242   -51401.534   0.15225856 
   96800    294.69627    -651.7846    149502.41   -47435.525    4046.9436   -51482.468   0.14630678 
   97000    293.88108    -1240.703    150320.87   -47407.551    4035.7489     -51443.3   0.16004248 
   97200    292.83219   -1307.5295    150387.82   -47390.642     4021.345   -51411.987   0.16658795 
   97400    295.10322   -708.15394    149584.42   -47356.686    4052.5321   -51409.218   0.15398222 
   97600    301.17056   -720.24121    149640.41   -47329.491    4135.8524   -51465.343   0.15309279 
   97800    296.27094   -1354.8924    150407.16   -47312.161    4068.5679   -51380.729   0.16459097 
   98000    298.56211   -1175.4447    150279.49   -47283.154    4100.0317   -51383.186   0.15825636 
   98200    299.50458   -661.97044     149595.9   -47304.061    4112.9742   -51417.036   0.15046978 
   98400    300.96804   -866.22622    149802.26    -47230.94    4133.0712   -51364.011   0.15965626 
   98600    299.15244   -1284.7025    150429.15   -47269.666    4108.1383   -51377.804   0.16287313 
   98800    302.09314   -1109.6026    150201.04   -47233.625    4148.5218   -51382.147   0.15044429 
   99000    302.30898   -722.27043    149677.59   -47244.678    4151.4859   -51396.164   0.15485098 
   99200    301.04885   -943.88286    149921.06    -47308.79     4134.181   -51442.971   0.15959246 
   99400    292.96381   -1284.0509    150343.42   -47396.962    4023.1525   -51420.114   0.16001196 
   99600     292.3364   -1051.3723    150031.69   -47425.531    4014.5364   -51440.067   0.15796638 
   99800    297.85014   -789.72503    149644.86     -47403.1    4090.2544   -51493.354   0.14820786 
  100000    295.43336   -981.20141    149971.42   -47399.513    4057.0658   -51456.579   0.15040377 
  100200     299.2493   -1237.3667    150305.92   -47350.408    4109.4685   -51459.877   0.15410706 
  100400    295.95687   -1033.9956    149982.48   -47353.388    4064.2549   -51417.643   0.16177262 
  100600    300.00262   -806.12967    149725.46   -47303.761    4119.8135   -51423.575    0.1563649 
  100800    300.15182   -1050.8036    150058.13   -47331.021    4121.8625   -51452.884   0.15153733 
  101000    298.36595   -1188.4174    150283.02   -47308.634    4097.3379   -51405.972   0.15652786 
  101200    298.85744   -943.87924    149946.47   -47292.521    4104.0873   -51396.608   0.15762647 
  101400    300.95659   -834.83151    149771.28   -47302.029     4132.914   -51434.943   0.15535544 
  101600    294.48446   -1113.7476    150079.42   -47314.707    4044.0349   -51358.742   0.16896324 
  101800    298.77716    -1160.183     150192.5   -47277.621    4102.9848   -51380.606   0.16283883 
  102000    302.33547    -915.1846    149903.16   -47283.104    4151.8496   -51434.954   0.15033544 
  102200    302.63494    -876.1976     149832.7   -47276.485    4155.9621   -51432.447   0.15036591 
  102400    301.76909   -1042.2466    150121.88   -47213.213    4144.0717   -51357.285   0.16022212 
  102600    298.33676   -1144.3657    150198.13   -47223.581     4096.937   -51320.518   0.16525527 
  102800    301.21925   -929.76164    149888.57   -47239.952     4136.521   -51376.473   0.15758394 
  103000    300.87421   -859.48821    149826.99   -47234.957    4131.7828   -51366.739   0.15739219 
  103200    302.55018   -1116.8129    150095.14   -47210.438    4154.7982   -51365.236   0.16299642 
  103400    301.94242    -1127.039    150079.69   -47239.347     4146.452   -51385.799   0.15992714 
  103600    299.46791   -857.10503    149803.47   -47245.116    4112.4706   -51357.587   0.16246664 
  103800    296.27834   -920.69846    149853.36   -47249.835    4068.6695   -51318.505   0.16279909 
  104000    301.11601   -1109.8673    150145.04     -47254.9    4135.1032   -51390.003   0.15814491 
  104200     299.1908   -1091.7987     150072.2   -47268.807    4108.6652   -51377.472   0.15102923 
  104400     296.1186   -909.65526    149782.62   -47289.738    4066.4759   -51356.214   0.15253633 
  104600    297.09472   -903.36064    149863.55   -47284.381    4079.8805   -51364.261   0.16086957 
  104800    299.85838   -1138.0285    150189.03   -47269.802    4117.8328   -51387.635   0.16242817 
  105000    296.66941   -1107.9058     150090.7   -47301.479    4074.0399   -51375.519   0.16290237 
  105200    297.87209   -830.86826    149776.54   -47306.361    4090.5559   -51396.917   0.15524112 
  105400    302.47199   -926.98487    149890.55    -47297.42    4153.7243   -51451.144   0.15197572 
  105600    300.06846   -1109.4619    150204.55   -47291.633    4120.7177   -51412.351   0.15614763 
  105800    296.03338   -1055.1496    150093.04   -47309.211    4065.3056   -51374.517   0.16010646 
  106000     301.6282   -825.24885    149777.09   -47293.514    4142.1369   -51435.651   0.15976759 
  106200    293.36477   -927.40887    149960.34   -47265.305    4028.6587   -51293.964   0.15854699 
  106400    298.38053   -1161.4255    150328.07   -47269.888    4097.5381   -51367.426   0.15230633 
  106600    302.21986   -1030.1102    150097.29    -47274.98     4150.262   -51425.242   0.15445195 
  106800    295.90491   -766.77169    149692.99   -47272.429    4063.5413   -51335.971   0.15828212 
  107000    303.20152   -940.52675    149955.15   -47226.794    4163.7427   -51390.537   0.16391605 
  107200    298.80047   -1236.8639    150360.76   -47208.266    4103.3049   -51311.571    0.1652032 
  107400    300.73298   -1036.2948    150076.55   -47218.477    4129.8433    -51348.32   0.15757024 
  107600    301.89515    -768.1797    149684.89    -47202.16     4145.803   -51347.963   0.15471911 
  107800    300.98365   -969.97437    149983.45   -47221.699    4133.2856   -51354.985   0.15769854 
  108000    302.22672   -1181.2145    150324.15   -47191.562    4150.3563   -51341.918   0.16147649 
  108200    303.18198   -972.39268    149986.36   -47232.714    4163.4743   -51396.188    0.1588285 
  108400    301.66712   -737.13624    149661.46   -47233.748    4142.6714    -51376.42    0.1527779 
  108600     302.4204   -1029.3441    150036.71   -47200.337    4153.0159   -51353.353   0.15501912 
  108800    300.81613   -1270.0591    150351.39   -47217.181    4130.9851   -51348.167   0.16152195 
  109000    298.80661   -959.91898    149916.81   -47263.449    4103.3892   -51366.838   0.16606577 
  109200     303.1199   -720.05359     149606.7   -47269.736    4162.6218   -51432.357   0.15893907 
  109400    298.22656    -1054.988    150072.66   -47247.929    4095.4236   -51343.352   0.15902401 
  109600    303.17989   -1278.1914    150333.29   -47202.772    4163.4457   -51366.218   0.16497851 
  109800     299.6663   -954.92705    149809.63   -47263.619     4115.195   -51378.815   0.15726251 
  110000    301.63093   -707.06842    149600.17   -47203.367    4142.1744   -51345.541   0.15006542 
  110200    304.10885   -1117.1248    150234.69   -47181.752    4176.2027   -51357.955    0.1580041 
  110400    296.52315   -1324.7665    150435.85   -47230.492    4072.0314   -51302.524   0.17070119 
  110600    296.76478   -865.28455    149766.28   -47315.724    4075.3497   -51391.074   0.15675308 
  110800    300.77317    -700.3467    149573.37   -47314.704    4130.3952     -51445.1   0.15024915 
  111000    301.34235   -1198.6659    150241.49   -47308.138    4138.2115    -51446.35   0.15895603 
  111200     297.6947   -1292.1459    150374.58   -47292.582    4088.1198   -51380.702   0.16596117 
  111400    295.30187   -821.74479    149729.64   -47357.507    4055.2601   -51412.767   0.15916619 
  111600    292.31285   -742.73653    149640.89   -47413.383    4014.2131   -51427.596   0.15200471 
  111800    291.43004   -1155.1446    150191.27   -47437.679    4002.0898   -51439.768   0.15564108 
  112000    292.90545   -1182.6039    150202.97   -47428.436     4022.351   -51450.787   0.14927192 
  112200    295.96829   -806.81479    149767.29   -47391.307    4064.4117   -51455.719   0.14529263 
  112400    297.66478    -846.6212    149829.49   -47358.133     4087.709   -51445.842   0.15538579 
  112600    293.48321   -1174.6273    150193.15   -47326.923    4030.2852   -51357.208   0.16374674 
  112800    296.31637   -1060.5217     150096.6   -47345.317    4069.1917   -51414.509   0.15454271 
  113000    296.31245   -831.77297    149788.88   -47328.134     4069.138   -51397.272   0.14838064 
  113200    296.32046   -915.13915     149918.4    -47362.98     4069.248   -51432.228   0.14994789 
  113400    298.76756    -1145.568    150170.11   -47339.137     4102.853    -51441.99   0.16350546 
  113600    300.76152   -1026.1798    150038.06       -47346    4130.2353   -51476.236   0.15749193 
  113800    299.20993   -879.48677    149847.55   -47331.994    4108.9279   -51440.922   0.15351368 
  114000    293.19775    -984.4008    149976.97   -47315.056    4026.3651   -51341.422   0.15484365 
  114200    294.05587   -1100.9053    150139.76   -47325.262    4038.1492   -51363.412   0.15769953 
  114400    300.67712   -979.94128    150024.77   -47267.269    4129.0762   -51396.346   0.15655025 
  114600    301.98247   -909.14479    149929.92   -47240.698    4147.0021     -51387.7     0.154845 
  114800    300.82125   -992.83314    150015.56   -47226.216    4131.0555   -51357.271   0.15725113 
  115000    297.85884   -1090.7959    150108.91   -47253.842    4090.3739   -51344.216   0.15857535 
  115200    299.93536   -983.82072    150001.22   -47271.388    4118.8899   -51390.277   0.15432798 
  115400     296.6779   -937.54953     149903.1   -47285.038    4074.1565   -51359.195   0.15185368 
  115600    300.25986   -990.41092    150009.09   -47266.307    4123.3461   -51389.653   0.15875622 
  115800    297.01871   -1094.7462    150100.31   -47281.211    4078.8368   -51360.048   0.16120896 
  116000    296.78158   -973.11436       149930   -47268.273    4075.5804   -51343.854   0.15674801 
  116200    299.03956   -905.70675    149821.71   -47287.632    4106.5883    -51394.22   0.15110196 
  116400    299.79455   -1047.9859    150007.48   -47328.239    4116.9561   -51445.195   0.15692288 
  116600    297.62498   -1099.7588     150091.1   -47337.762    4087.1624   -51424.924   0.15352518 
  116800     295.1206   -965.33078    149869.76   -47294.509    4052.7708    -51347.28   0.15759314 
  117000    298.79871   -897.68407    149795.24   -47303.362    4103.2808   -51406.643    0.1610757 
  117200    299.76133   -1043.8975    150006.43   -47290.375       4116.5   -51406.875   0.15905357 
  117400    298.15586   -1102.8278    150062.31   -47315.429    4094.4527   -51409.882   0.15500154 
  117600    297.86612   -913.44311    149816.12   -47298.537    4090.4738   -51389.011   0.15623108 
  117800    297.12331    -950.0554    149816.87   -47258.062    4080.2731   -51338.335   0.16582224 
  118000    302.39875   -1102.8422    150107.54   -47245.872    4152.7186    -51398.59   0.16364236 
  118200    297.49196   -1131.8944    150065.31   -47280.258    4085.3357   -51365.593   0.16614186 
  118400    297.52337   -856.11454    149710.66   -47336.933     4085.767   -51422.701   0.15458239 
  118600    299.96937   -845.65355    149765.07    -47365.24     4119.357   -51484.597    0.1439556 
  118800    295.37298   -1193.5775    150165.82    -47409.75    4056.2365   -51465.986   0.15775668 
  119000    290.09066   -1147.5708    150046.32   -47408.961    3983.6967   -51392.658   0.16513498 
  119200    294.02085     -772.541    149548.44   -47417.291    4037.6684   -51454.959   0.15517403 
  119400    292.24086   -873.23716    149734.02   -47442.662    4013.2245   -51455.886   0.14973274 
  119600    293.66988   -1313.8442    150312.47   -47371.218    4032.8486   -51404.067   0.16256654 
  119800    293.41575   -1146.1097    150069.97   -47370.147    4029.3587   -51399.505   0.16109312 
  120000    291.84996   -660.10481    149472.17   -47396.982    4007.8564   -51404.839    0.1524761 
  120200     297.9059   -921.01921     149840.9   -47366.326    4091.0202   -51457.346   0.15742909 
  120400    294.57599   -1396.8464    150428.83   -47403.935    4045.2919   -51449.227   0.16449095 
  120600    295.96355   -1020.7496    149928.55   -47404.886    4064.3466   -51469.232   0.15223092 
  120800    299.18588   -591.92363    149378.75   -47402.872    4108.5977    -51511.47   0.14598328 
  121000    295.48425     -1044.18    149988.78   -47379.836    4057.7646   -51437.601   0.15578943 
  121200    294.14553   -1422.7406    150503.66    -47367.59    4039.3805    -51406.97   0.16349343 
  121400    296.54095   -954.73272    149865.37   -47377.437    4072.2758   -51449.713   0.16042827 
  121600    297.09146   -603.42241     149436.6   -47375.311    4079.8358   -51455.147   0.15542196 
  121800    297.68883   -1123.6977    150144.09   -47366.152    4088.0392   -51454.191   0.15750351 
  122000    296.04487   -1377.7605    150516.22   -47334.449    4065.4634   -51399.913   0.16059902 
  122200     294.8375   -877.65406    149815.37   -47313.303     4048.883   -51362.186   0.15892013 
  122400    297.19072   -628.85606    149570.63   -47270.801    4081.1989       -51352   0.15644388 
  122600    300.05078   -1197.7926    150275.86   -47181.896    4120.4749   -51302.371   0.16215231 
  122800    299.69863   -1297.0416    150427.93   -47178.856    4115.6389   -51294.495   0.16551457 
  123000    298.94082   -824.62191    149755.68   -47238.361    4105.2323   -51343.593   0.15450565 
  123200    301.16167   -719.78115    149632.06   -47263.687    4135.7303   -51399.417   0.15284676 
  123400    297.72728   -1185.4858    150228.48    -47340.57    4088.5672   -51429.137   0.15992892 
  123600    295.49901   -1194.6172    150289.21   -47285.153    4057.9672    -51343.12   0.16255369 
  123800    299.13379   -827.69855    149755.52   -47316.513    4107.8823   -51424.395   0.15847954 
  124000    300.29354    -761.5114    149733.35   -47300.106    4123.8086   -51423.915   0.14836146 
  124200    301.25222   -1168.4508    150233.46   -47276.485    4136.9738   -51413.459   0.15662877 
  124400    296.56675   -1159.6124    150193.02   -47290.494    4072.6301   -51363.124   0.15807241 
  124600    291.77027   -779.29463    149738.34   -47314.239    4006.7621   -51321.001   0.15329752 
  124800    294.36335   -920.33208    149820.69   -47318.774    4042.3718   -51361.145   0.15950857 
  125000    295.65944   -1152.3701    150229.69    -47322.05    4060.1704   -51382.221    0.1568385 
  125200    301.10715   -1104.0803    150131.54   -47313.909    4134.9816    -51448.89   0.15418018 
  125400    296.23349   -888.81569    149758.32   -47388.842    4068.0536   -51456.895   0.15022625 
  125600    297.45978   -885.92403    149857.49   -47381.536    4084.8937   -51466.429   0.15490972 
  125800    294.77057   -1181.8115     150193.1   -47366.687    4047.9639   -51414.651   0.16559778 
  126000    294.85681   -1031.5488    150057.02   -47335.129    4049.1482   -51384.277   0.15589805 
  126200     294.1039    -837.8479    149769.07   -47319.524    4038.8088   -51358.332   0.15458561 
  126400    294.64587   -954.47198    149950.16   -47347.098    4046.2515   -51393.349   0.15416821 
  126600    296.55519   -1190.3824    150197.44   -47368.842    4072.4714   -51441.314   0.15596251 
  126800    298.49543   -976.33692    149980.92   -47342.641    4099.1159   -51441.757   0.15539471 
  127000    295.68056   -862.29592    149766.75   -47363.745    4060.4605   -51424.205    0.1585216 
  127200    291.32975   -984.55073     149967.5   -47394.234    4000.7126   -51394.946   0.15655781 
  127400    293.89649   -1151.8992    150139.55   -47390.091    4035.9605   -51426.051   0.15504315 
  127600    296.41302   -962.48207    149899.73   -47386.613    4070.5191   -51457.132   0.14932023 
  127800    297.12073   -855.00753    149746.48   -47377.395    4080.2377   -51457.632   0.15668801 
  128000    296.90206   -1014.2033    150021.95   -47370.484    4077.2349   -51447.719   0.15475781 
  128200    296.81408   -1155.4049    150197.77   -47332.483    4076.0266    -51408.51   0.15674141 
  128400    291.33263   -955.46378    149890.39   -47364.526    4000.7521   -51365.278   0.15978103 
  128600     298.3288   -772.87905    149702.95   -47400.556    4096.8276   -51497.383   0.14429376 
  128800    292.58081   -1089.3666     150042.9   -47433.323    4017.8928   -51451.216   0.15750497 
  129000    295.46863   -1193.8699    150195.12   -47464.914    4057.5501   -51522.464    0.1578981 
  129200    294.30985   -830.36915    149777.34   -47427.758    4041.6371   -51469.395   0.15535809 
  129400    289.79458    -781.9224    149692.46   -47428.804    3979.6307   -51408.435   0.15362323 
  129600    290.50339   -1181.9909    150285.81    -47421.01    3989.3645   -51410.375   0.15743703 
  129800    287.89828   -1273.4004    150341.88   -47430.858    3953.5896   -51384.447   0.15998673 
  130000    297.73567   -700.44426    149551.75   -47453.894    4088.6824   -51542.576   0.14664051 
  130200    289.34959   -686.28447    149510.25   -47474.118    3973.5199   -51447.638   0.15561135 
  130400    291.55486   -1395.5776    150476.48    -47443.53    4003.8039   -51447.334   0.16761599 
  130600    295.99576   -1354.5675    150420.02    -47398.96    4064.7889   -51463.749   0.16185583 
  130800    295.86775   -567.21546    149337.85   -47436.342    4063.0311   -51499.373   0.14795011 
  131000    295.73554   -713.43727    149543.95   -47456.753    4061.2155   -51517.969    0.1480049 
  131200    296.98274   -1484.7307    150650.42   -47411.319    4078.3428   -51489.661   0.15910573 
  131400    290.08347   -1284.0001     150330.6   -47416.801    3983.5979   -51400.399   0.16182565 
  131600    298.87083   -492.70391    149305.57   -47424.203    4104.2711   -51528.475   0.14512619 
  131800    298.33285   -771.18944    149676.73    -47394.39    4096.8833   -51491.273    0.1493471 
  132000    296.15234   -1440.4714    150565.09   -47321.141    4066.9392    -51388.08   0.15987533 
  132200    299.09353   -1108.9842     150181.7   -47334.358    4107.3293   -51441.688   0.14940472 
  132400    299.89899   -649.50612    149494.52   -47348.373    4118.3904   -51466.764   0.15632821 
  132600    295.41897   -924.41383    149873.09     -47319.6    4056.8681   -51376.468   0.15493178 
  132800    294.53254   -1308.0798    150450.23   -47279.693    4044.6951   -51324.388   0.16301248 
  133000    300.46961   -1051.0934     150121.4   -47279.574    4126.2265   -51405.801   0.15592977 
  133200    297.49592   -752.95004    149658.54   -47231.653    4085.3901   -51317.043   0.15529366 
  133400    297.42514   -961.83734    149974.62   -47213.172    4084.4181   -51297.591   0.16143393 
  133600    301.92692   -1267.0633    150377.12   -47219.148    4146.2392   -51365.387     0.158655 
  133800       300.36   -1010.0268     150065.9   -47243.618    4124.7213    -51368.34   0.16272222 
  134000    301.96961   -766.82152    149726.62   -47196.623    4146.8255   -51343.448   0.15981092 
  134200    299.74215   -1019.5819    150031.78   -47204.878    4116.2366   -51321.114   0.16216981 
  134400    299.55176   -1213.8647    150295.28   -47197.565    4113.6221   -51311.187   0.16961232 
  134600      297.393    -991.5242    149983.37   -47218.765    4083.9768   -51302.741   0.16175067 
  134800    295.94371     -779.883    149756.39   -47265.144    4064.0742   -51329.218   0.15745353 
  135000    297.09461   -1008.0846    150060.93     -47318.8    4079.8791   -51398.679   0.15495152 
  135200    298.94367   -1186.4848    150235.65   -47327.004    4105.2714   -51432.276   0.16036313 
  135400    293.33783   -1010.0177    149926.85   -47354.153    4028.2887   -51382.441   0.15800936 
  135600    299.08288   -774.07271    149804.21   -47318.562    4107.1832   -51425.745   0.14880148 
  135800    295.53468   -1098.6247     150158.9   -47387.261    4058.4572   -51445.718   0.15430389 
  136000    297.37588    -1105.891    150199.48   -47420.182    4083.7417   -51503.924   0.15373079 
  136200    297.62256    -835.8766       149831   -47437.272    4087.1292   -51524.401   0.15207832 
  136400    295.53508   -902.25206    149813.39   -47391.078    4058.4626   -51449.541   0.15623463 
  136600    299.53119   -1089.1218       150178   -47328.051    4113.3395   -51441.391   0.15341331 
  136800    294.14761   -1166.7954    150163.58   -47337.179    4039.4091   -51376.588   0.16045323 
  137000    297.69536   -817.31962    149791.19    -47347.92    4088.1289   -51436.049   0.15697848 
  137200    303.53905   -874.66076     149864.4   -47381.224    4168.3779   -51549.602   0.14570571 
  137400    297.41141   -1192.8656     150219.6   -47331.838    4084.2296   -51416.068   0.15555512 
  137600    291.95007   -1096.4564     150107.1   -47323.899    4009.2312   -51333.131    0.1630357 
  137800    295.53031   -839.87105    149726.43   -47302.192    4058.3972   -51360.589   0.15943316 
  138000    303.31175   -890.29352    149876.37   -47299.967    4165.2565   -51465.223   0.15107655 
  138200    299.07089   -1226.2305     150306.5   -47344.271    4107.0184   -51451.289   0.15879142 
  138400    294.88696   -1052.2847    150106.95   -47331.404    4049.5622   -51380.966   0.15835555 
  138600     297.1256   -787.72636    149669.78   -47351.949    4080.3045   -51432.253   0.15055347 
  138800    294.49415   -939.60355    149919.92   -47296.883     4044.168   -51341.051   0.16167037 
  139000    299.76397   -1248.4535    150426.77     -47277.2    4116.5362   -51393.737    0.1646459 
  139200    296.97553   -1095.7445    150116.71   -47282.834    4078.2438   -51361.078   0.15644931 
  139400    299.60452   -665.60044    149548.11   -47317.619    4114.3466   -51431.966   0.14767436 
  139600    296.63918   -945.52419    149908.19   -47294.123    4073.6247   -51367.748    0.1588491 
  139800    299.87222   -1395.9274     150503.2   -47242.696    4118.0228   -51360.719   0.16936625 
  140000    304.17662   -1015.5279    150076.85   -47214.542    4177.1334   -51391.676   0.15284647 
  140200    299.43708   -566.20052    149470.13   -47264.852    4112.0472   -51376.899   0.15322764 
  140400    296.70831   -989.25921    149973.67    -47286.18    4074.5741   -51360.754   0.16169675 
  140600     306.1472   -1415.3474    150561.02   -47275.159    4204.1946   -51479.353   0.16099517 
  140800    297.15009   -953.21252     149952.6   -47275.549     4080.641    -51356.19   0.15928469 
  141000    298.69345   -555.63419    149418.97   -47321.335    4101.8352    -51423.17   0.15231653 
  141200    304.76139   -1050.2998    150123.58   -47264.421    4185.1638   -51449.585   0.15455688 
  141400    293.30435   -1476.9332    150627.72   -47258.604     4027.829   -51286.433   0.16459401 
  141600    302.13935   -843.79455    149823.58   -47254.871    4149.1564   -51404.027   0.15387163 
  141800    297.73962   -564.23113    149386.57   -47317.216    4088.7367   -51405.953   0.15388492 
  142000    296.47033   -1185.5718    150223.94   -47323.423     4071.306   -51394.729   0.15812537 
  142200    299.13303   -1398.5089    150563.06   -47313.258    4107.8718    -51421.13   0.16144195 
  142400    296.60646    -811.3272    149781.16    -47329.21    4073.1755   -51402.385   0.15382129 
  142600    298.75289   -642.72994    149525.62   -47323.498    4102.6516   -51426.149   0.14795664 
  142800    302.66195   -1157.9535    150223.62   -47320.225    4156.3331   -51476.558   0.15756267 
  143000    293.45464   -1300.0969    150369.29   -47380.134    4029.8929   -51410.026   0.16046915 
  143200     296.8232    -796.8834    149713.46   -47356.715    4076.1519   -51432.867    0.1531448 
  143400    298.98481   -781.28743    149667.25   -47322.394    4105.8364   -51428.231   0.15385224 
  143600    296.31483   -1187.4302    150217.85    -47303.18    4069.1706   -51372.351   0.16137281 
  143800    298.82464    -1152.402    150193.72   -47315.769    4103.6368   -51419.406   0.15821525 
  144000     298.1915   -830.06398    149737.11   -47310.249    4094.9422   -51405.191   0.15217613 
  144200    299.67886   -893.90337    149787.52   -47282.881    4115.3674   -51398.249   0.15837397 
  144400    293.71073   -1185.8807    150185.43   -47279.062    4033.4095   -51312.472   0.16179642 
  144600    298.69451   -1127.3524    150089.01   -47253.239    4101.8498   -51355.089    0.1603149 
  144800    300.28561   -801.67884    149754.79   -47226.578    4123.6997   -51350.277    0.1540338 
  145000    300.27009   -944.98369    149895.77   -47270.469    4123.4867   -51393.956   0.15765094 
  145200    298.99425   -1160.1132    150168.58    -47297.23     4105.966   -51403.196   0.16123076 
  145400    300.51594   -1045.5627    150013.86   -47304.078    4126.8627   -51430.941   0.15967785 
  145600    302.38957   -888.70583    149791.78   -47326.033    4152.5926   -51478.626   0.15918337 
  145800    299.43494    -961.9369    149920.85   -47339.525    4112.0178   -51451.543   0.15150859 
  146000    296.89521   -1091.9522     150104.2   -47322.528    4077.1407   -51399.669    0.1546106 
  146200    300.54469   -978.16603     149972.6   -47357.405    4127.2576   -51484.663   0.15212422 
  146400    296.42759    -904.5431    149812.59   -47311.446    4070.7192   -51382.165   0.15589936 
  146600    294.34822   -1015.8088    149969.65   -47271.431     4042.164   -51313.595    0.1573348 
  146800    302.16235   -1105.7596    150167.31    -47224.18    4149.4722   -51373.653   0.15573261 
  147000    294.80064   -988.46957    150036.58    -47239.86    4048.3769   -51288.237   0.16029927 
  147200    302.55888   -888.18713    149863.93   -47210.321    4154.9176   -51365.238   0.15347825 
  147400    304.05884   -1019.6345    150016.98   -47277.626    4175.5159   -51453.142   0.15671283 
  147600    298.42109   -1139.2292    150133.24   -47287.424    4098.0951   -51385.519    0.1610239 
  147800    296.45452   -974.41654    149918.82   -47333.446     4071.089   -51404.535   0.15581713 
  148000    300.29457   -837.36711    149810.16   -47298.738    4123.8228   -51422.561   0.15148494 
  148200    293.50814   -1051.0402    150020.47   -47338.587    4030.6275   -51369.215   0.16001633 
  148400    294.82739   -1140.0774    150095.31   -47387.477    4048.7442   -51436.221   0.15643339 
  148600    298.54953   -908.92968    149831.45   -47359.848    4099.8588   -51459.707   0.14986174 
  148800    297.70343   -878.66797    149785.04   -47363.967    4088.2397   -51452.207   0.15279093 
  149000    296.44704   -1118.2251    150098.43   -47366.097    4070.9862   -51437.083   0.15858702 
  149200    294.29387   -1151.5964    150130.87    -47370.74    4041.4176   -51412.158   0.16022455 
  149400    292.70447   -863.73011    149764.23   -47397.394    4019.5911   -51416.985    0.1503815 
  149600    294.13189   -856.55383    149761.18   -47398.267    4039.1933   -51437.461   0.15365273 
  149800    295.10551   -1199.0298    150187.94   -47378.099    4052.5635   -51430.663   0.15745572 
  150000    299.91176   -1136.1652    150160.37   -47335.773    4118.5658   -51454.338   0.15191741 
  150200    291.10752   -795.30666    149712.38   -47284.967    3997.6608   -51282.628   0.15707704 
  150400    301.16014   -872.43648    149801.03   -47255.158    4135.7093   -51390.867   0.15407537 
  150600    296.88289   -1260.5548    150292.34   -47300.888    4076.9716    -51377.86   0.15738983 
  150800    299.27865   -1119.6551    150127.44   -47264.229    4109.8716   -51374.101   0.16108272 
  151000    302.89844   -709.18344    149573.26   -47313.375    4159.5806   -51472.955    0.1546166 
  151200    296.44684   -908.51872    149821.05   -47297.154    4070.9835   -51368.137   0.15598894 
  151400    300.68794   -1317.5578    150423.68   -47198.218    4129.2247   -51327.443   0.16247259 
  151600    299.90153   -1062.4773    150101.68   -47187.971    4118.4254   -51306.397   0.15979717 
  151800    299.03427   -642.02252    149497.75   -47209.201    4106.5156   -51315.717   0.15454578 
  152000    299.82696   -969.34763     149949.9   -47206.169    4117.4013    -51323.57   0.15851576 
  152200    298.89149    -1440.292    150555.91   -47215.456    4104.5549   -51320.011    0.1721477 
  152400     296.7869   -1032.7934    149961.84   -47275.265    4075.6534   -51350.918   0.15575059 
  152600     302.9429   -544.09899    149333.62   -47252.214    4160.1912   -51412.406   0.15065486 
  152800    298.30442   -1073.8498    150067.03   -47174.639    4096.4929   -51271.132   0.16996916 
  153000    301.84941   -1506.0787    150653.99   -47234.123    4145.1748   -51379.298   0.17310711 
  153200    302.59841   -870.53569    149843.81   -47186.178    4155.4605   -51341.639   0.15760378 
  153400    305.91525   -541.93351    149389.26    -47248.39    4201.0094   -51449.399   0.15067381 
  153600    296.29338    -1086.702    150177.67   -47265.626     4068.876   -51334.502   0.16163219 
  153800    294.93712   -1373.2309    150533.25   -47288.636    4050.2512   -51338.887   0.16394643 
  154000    297.06689   -837.51551    149809.47   -47315.805    4079.4984   -51395.303   0.15167642 
  154200    300.25437    -653.2055    149559.31   -47265.161    4123.2707   -51388.431   0.15495712 
  154400    300.33877   -1110.9189    150186.18   -47250.298    4124.4298   -51374.727   0.15954454 
  154600    300.91817   -1239.3592    150348.68   -47269.608    4132.3864   -51401.995   0.15886259 
  154800    295.83796   -877.25137    149771.09    -47293.74     4062.622   -51356.362   0.15968674 
  155000    299.99831   -769.68602    149655.81   -47285.335    4119.7544    -51405.09   0.15686556 
[...]
  163200    294.43015   -1129.2463     150146.5   -47348.557    4043.2892   -51391.846    0.1592443 
  163400      294.101   -672.32972    149509.72   -47392.236     4038.769   -51431.005   0.15538957 
  163600    297.19981   -867.84829    149798.69   -47337.274    4081.3237   -51418.598   0.16196089 
  163800     295.5854   -1361.2452    150423.91   -47387.648    4059.1537   -51446.802    0.1642754 
  164000    292.26603   -1075.3478    150018.58   -47409.439    4013.5702   -51423.009   0.16388694 
  164200     297.7685   -641.94479    149423.43   -47414.204    4089.1333   -51503.337   0.15728962 
  164400    298.58384   -958.10084    149881.46   -47349.915      4100.33   -51450.245   0.15326609 
  164600    296.34742   -1346.1576       150455   -47317.447    4069.6182   -51387.065   0.15939334 
  164800    297.61492   -1020.5583    149977.78   -47363.484    4087.0242   -51450.509    0.1623182 
  165000    296.73442   -596.49447    149471.57   -47343.961    4074.9326   -51418.893    0.1586268 
  165200    300.56974   -1009.1241    149965.55   -47334.691    4127.6015   -51462.293   0.16414406 
  165400    296.53469    -1303.074    150363.23   -47355.738    4072.1899   -51427.928   0.16775036 
  165600    303.57662    -954.2804    149898.91   -47301.758    4168.8939   -51470.652   0.16058575 
  165800    295.30364   -758.82197    149599.32   -47330.543    4055.2844   -51385.827   0.15688659 
  166000    297.05349   -1094.8674    150028.13   -47284.463    4079.3143   -51363.777   0.17054909 
  166200    300.50395   -1255.7575    150233.23    -47312.45    4126.6981   -51439.149   0.17638332 
  166400    299.82943   -937.81717    149843.73   -47313.932    4117.4351   -51431.367   0.15992172 
  166600    296.44073   -854.29837    149723.44    -47310.83    4070.8996    -51381.73   0.15476209 
  166800    294.62685   -1095.2346    150025.03   -47369.081    4045.9903   -51415.071   0.16236825 
  167000    292.86554   -1170.2397    150086.49   -47368.052     4021.803   -51389.855   0.17059395 
  167200    296.99267   -895.03021    149839.82   -47317.749    4078.4792   -51396.228   0.16389734 
  167400    298.69915   -935.61538    149831.55    -47366.73    4101.9135   -51468.643   0.16672838 
  167600    293.62348   -1069.1859    150025.99    -47344.48    4032.2114   -51376.692   0.16161717 
  167800    294.63155   -1095.8204    150017.22   -47415.324    4046.0548   -51461.379    0.1564141 
  168000    295.81011   -922.55023    149834.41   -47405.867    4062.2396   -51468.106   0.16055153 
  168200    294.06658   -953.33784    149866.29   -47403.285    4038.2963   -51441.582   0.16615672 
  168400    297.00627   -1072.1753    150036.93   -47357.075    4078.6659   -51435.741   0.16334982 
  168600    296.15751   -1019.4724    149996.45   -47368.144    4067.0102   -51435.154    0.1557694 
  168800    294.11849   -918.00739    149832.24   -47411.805    4039.0093   -51450.814   0.16207494 
  169000    296.66139   -957.85942    149862.57   -47396.537    4073.9298   -51470.467   0.16213626 
  169200     296.3708   -1059.1412    150028.34   -47362.788    4069.9393   -51432.727   0.16346836 
  169400    296.70496   -1028.0403    149993.85   -47390.048    4074.5282   -51464.577   0.17004661 
  169600    294.45232   -927.82748    149836.79   -47402.437    4043.5936   -51446.031   0.16293169 
  169800    289.24168   -999.19457    149866.03   -47407.724     3972.038   -51379.762   0.16084105 
  170000    287.58448   -1066.2041    150023.71   -47445.239    3949.2804    -51394.52   0.15906656 
  170200    289.90246   -1076.6478    149991.74   -47456.544    3981.1122   -51437.656   0.16527338 
  170400    292.61457   -880.94815    149835.01   -47427.223    4018.3564   -51445.579     0.155454 
  170600    289.79601   -930.77264    149870.92   -47406.913    3979.6503   -51386.563   0.16432605 
  170800     294.4876   -1065.4001     150040.8   -47429.562     4044.078    -51473.64   0.16752092 
  171000    292.49959   -1016.3993    149963.84   -47430.408    4016.7775   -51447.185   0.15821544 
  171200    291.16495    -907.0337    149778.89   -47459.914    3998.4495   -51458.364   0.15315818 
  171400    295.34579   -953.17579    149860.82   -47454.297    4055.8632   -51510.161   0.16452863 
  171600    296.80358   -1108.9647    150037.18   -47415.251    4075.8824   -51491.133   0.17220108 
  171800    293.70752   -1041.6056    149923.75   -47394.322    4033.3655   -51427.687   0.16525633 
  172000    294.68208   -864.08349    149757.93   -47401.694    4046.7488   -51448.443   0.15834611 
  172200    295.18789   -981.68336    149892.74   -47406.267    4053.6948   -51459.962   0.15383413 
  172400    295.53542   -1084.5349    150079.66    -47371.78    4058.4674   -51430.247   0.16025165 
  172600    296.93346   -1028.1721    149955.82   -47357.917     4077.666   -51435.583   0.16697637 
  172800    296.36096    -921.3505    149783.67   -47369.051    4069.8041   -51438.855   0.16885172 
  173000    293.77571   -1023.6617    149935.86   -47386.179    4034.3019   -51420.481   0.16133335 
  173200    293.76597   -1154.2174    150115.62     -47421.2    4034.1682   -51455.369   0.16055022 
  173400    294.61561   -986.29574    149864.99   -47410.934    4045.8359    -51456.77   0.16915961 
  173600    295.75853   -831.60922    149652.38   -47363.416    4061.5312   -51424.947   0.16890512 
  173800    291.55336   -1033.1147    150000.68   -47359.086    4003.7833   -51362.869    0.1701996 
  174000    298.72768   -1195.7357    150259.06   -47318.545    4102.3053    -51420.85   0.17209707 
  174200    299.20343    -908.9576    149871.41    -47318.47    4108.8387   -51427.309   0.15959537 
  174400    296.43047   -748.56501    149660.86   -47303.663    4070.7587   -51374.422   0.15263314 
  174600    301.52843   -1077.6171    150120.02   -47310.474    4140.7668   -51451.241   0.16296682 
  174800    298.34186   -1214.1372    150301.34   -47269.229    4097.0071   -51366.236   0.17825053 
  175000     293.7669   -926.83196    149834.04    -47325.26    4034.1809   -51359.441   0.16903134 
  175200    299.09235   -770.77445     149674.2   -47324.984    4107.3132   -51432.298   0.16060165 
  175400    296.27015   -1120.5507    150134.42   -47327.764    4068.5571   -51396.321   0.16937588 
  175600    296.27583   -1218.4075    150227.89   -47337.617    4068.6351   -51406.252   0.16940863 
  175800    299.71758   -853.97305    149746.29   -47327.597    4115.8992   -51443.496   0.16304214 
  176000    298.38038   -782.61834     149715.3   -47315.046     4097.536   -51412.582   0.17087418 
  176200    301.70607   -1150.2225    150228.82   -47255.256    4143.2063   -51398.463   0.16946197 
  176400    301.46811   -1141.7704    150197.61   -47295.543    4139.9385   -51435.482   0.16650931 
  176600    298.65389    -766.4214     149677.4       -47282    4101.2919   -51383.292    0.1597402 
  176800    300.71588   -855.21353    149760.83   -47290.734    4129.6085   -51420.342   0.16882107 
  177000    294.58642   -1239.5597    150301.96   -47298.341    4045.4351   -51343.777   0.17726637 
  177200    297.50481   -1138.3537    150181.16   -47314.304    4085.5122   -51399.816   0.17271827 
  177400    298.60633   -759.69344    149602.97   -47414.544    4100.6388   -51515.183   0.16616956 
  177600    298.01029   -881.17358    149764.82   -47377.799    4092.4536   -51470.253    0.1617796 
  177800    298.84514   -1217.0911    150319.49   -47346.656    4103.9184   -51450.574   0.16374902 
  178000    293.65013    -1146.051    150109.83   -47306.123    4032.5774     -51338.7   0.17677612 
  178200    293.78397   -762.53106    149610.78   -47350.097    4034.4154   -51384.512   0.17086813 
  178400    296.93678   -885.58703    149873.26   -47322.212    4077.7117   -51399.924   0.16613729 
  178600    295.03312   -1271.0843    150350.61   -47330.391    4051.5695    -51381.96   0.16644861 
  178800    299.09308   -1050.6669    150019.59   -47304.951    4107.3232   -51412.274   0.16502994 
  179000    298.87478   -711.59111    149605.02   -47284.491    4104.3254   -51388.817   0.16376556 
  179200    297.01627   -1014.7938    149979.35   -47304.713    4078.8032   -51383.517   0.17333305 
  179400    300.81877   -1236.9798    150324.13   -47271.799    4131.0214    -51402.82   0.18131073 
  179600    299.63732   -967.77463    149963.11   -47284.073     4114.797    -51398.87    0.1666213 
  179800    300.58393   -785.38224    149702.47   -47317.174    4127.7965   -51444.971    0.1527747 
  180000      299.678   -1077.7015    150059.94   -47279.064    4115.3557   -51394.419   0.16847097 
  180200    300.24779   -1176.7236    150285.05   -47235.892    4123.1803   -51359.073   0.17514731 
  180400    299.42438   -936.58035    149959.54   -47195.385    4111.8728   -51307.258   0.17323947 
  180600    297.19338   -840.51112    149817.22   -47289.331    4081.2355   -51370.566   0.17159382 
  180800    303.62677   -1037.3542    150119.07   -47248.929    4169.5825   -51418.512   0.16613525 
  181000    296.67842   -1158.3575    150190.89   -47288.829    4074.1636   -51362.992   0.16996205 
  181200    301.60346   -869.41933    149849.15   -47277.495    4141.7973   -51419.292   0.16520417 
  181400    296.76214   -906.80656    149778.35   -47318.822    4075.3134   -51394.136   0.17643791 
  181600    297.81909   -1078.1744    150047.53     -47334.7     4089.828   -51424.528    0.1716427 
  181800    297.46807   -1083.0778    150037.29   -47304.795    4085.0076   -51389.803   0.16704613 
  182000    297.70445   -882.92637    149805.78   -47316.891    4088.2538   -51405.144   0.16420744 
  182200    296.61843   -993.31623    149878.07   -47332.798    4073.3398   -51406.138   0.16509633 
  182400    297.57643   -1106.4203    150086.73    -47329.72    4086.4956   -51416.216   0.17107445 
  182600    297.92762   -1066.3737     150014.3   -47292.923    4091.3184   -51384.242   0.17676764 
  182800    304.56872   -918.27116    149836.24   -47259.618    4182.5179   -51442.136   0.17040696 
  183000    300.58381   -972.44861     149949.9    -47258.51    4127.7948   -51386.305   0.16285492 
  183200    296.70739   -1122.8806    150133.52   -47236.559    4074.5614    -51311.12   0.16764905 
  183400    302.88805   -1025.0127    150022.22   -47246.934     4159.438   -51406.372   0.17456256 
  183600    302.39506   -885.00897    149812.38   -47279.694    4152.6679   -51432.362   0.16777972 
  183800    297.40368   -962.19808    149883.35   -47312.596    4084.1233   -51396.719   0.16665226 
  184000    299.13186     -1093.21    150093.15   -47322.663    4107.8558   -51430.519   0.16985564 
  184200    297.55174   -1035.9827    150001.57   -47366.412    4086.1566   -51452.568   0.16402322 
  184400    292.29576   -930.53084    149788.92   -47379.708    4013.9784   -51393.687   0.16721539 
  184600    297.03064   -946.14947    149864.17   -47387.463    4079.0006   -51466.464   0.16782489 
  184800    294.73025   -1093.3524    150062.52   -47371.756    4047.4102   -51419.167   0.17816695 
  185000    298.50967   -1031.8167    150011.27   -47362.886    4099.3115   -51462.197   0.16684075 
  185200    293.91943   -945.39857    149837.85   -47424.582    4036.2756   -51460.858   0.16185764 
  185400    296.10393   -953.02104    149887.09   -47401.254    4066.2744   -51467.528    0.1707688 
  185600    301.10623   -1059.6705    150072.05   -47402.461    4134.9689    -51537.43   0.16327351 
  185800    294.41483   -1060.6689     149977.7   -47346.062    4043.0788   -51389.141    0.1731692 
  186000    296.10898   -901.02764    149797.69   -47335.339    4066.3438   -51401.683     0.170806 
  186200    297.91085   -978.22168    149956.02   -47323.662    4091.0882    -51414.75   0.16634117 
  186400    300.10559   -1159.4857    150149.64   -47269.735    4121.2276   -51390.962   0.16834124 
  186600    294.81373   -977.61234    149948.66   -47306.648    4048.5567   -51355.204    0.1697646 
  186800    297.57651   -828.04568    149726.81   -47336.405    4086.4968   -51422.902   0.17041975 
  187000    301.39416   -988.95336    149944.09   -47305.068     4138.923   -51443.991   0.16937595 
  187200     298.6659   -1154.5608    150219.47   -47319.957    4101.4569   -51421.414   0.16257422 
  187400    297.74549   -981.17025    149969.32   -47308.516    4088.8174   -51397.333   0.16583406 
  187600    300.21049   -782.77683    149686.87   -47354.859    4122.6681   -51477.527   0.16182821 
  187800    301.62129   -1024.8161    150004.05   -47340.045    4142.0421   -51482.088   0.16616221 
  188000    297.49658   -1223.5986    150251.78   -47308.403    4085.3991   -51393.802   0.17693311 
  188200    298.74691   -913.63648     149865.9   -47303.823    4102.5694   -51406.393   0.16350025 
  188400    293.94593   -749.91357    149623.54   -47294.603    4036.6394   -51331.243   0.16632127 
  188600    298.17743   -1085.0462    150141.02   -47294.801    4094.7489    -51389.55   0.16568539 
  188800    297.47607   -1317.9005    150379.25   -47303.928    4085.1175   -51389.046   0.17230434 
  189000    297.05442   -869.01945    149821.49   -47305.278    4079.3271   -51384.605   0.17141765 
  189200    293.95485   -738.15889    149622.55   -47312.919    4036.7619   -51349.681   0.16926303 
  189400    301.70057   -1151.1523    150212.32   -47265.946    4143.1308   -51409.077    0.1742368 
  189600    296.13013   -1257.4506    150375.13   -47276.842    4066.6342   -51343.476   0.16819039 
  189800    294.36403   -813.94632    149715.77   -47326.916    4042.3811   -51369.297   0.16491518 
  190000    295.76528   -690.27166    149577.73   -47361.901    4061.6238   -51423.524   0.16889721 
  190200     296.1902   -1234.3382    150274.75   -47325.563    4067.4592   -51393.022   0.17809833 
  190400    296.67551   -1272.7911    150350.58   -47322.059    4074.1237   -51396.183   0.17289453 
  190600    300.04189    -719.2351    149645.96   -47275.219    4120.3528   -51395.571   0.16338592 
  190800    301.06699   -776.51024    149652.85   -47309.699    4134.4301   -51444.129    0.1584056 
  191000    303.25874   -1272.1318    150307.53    -47313.64    4164.5285   -51478.168   0.16563282 
  191200    295.96055   -1128.1832     150173.4    -47306.97    4064.3054   -51371.275   0.17647956 
  191400    292.56669   -751.77621    149559.85   -47341.707     4017.699   -51359.406   0.16854318 
  191600    297.25345   -858.26406    149771.26   -47293.321    4082.0603   -51375.381    0.1661506 
  191800    299.35521   -1299.3299    150351.95    -47319.43     4110.923   -51430.353    0.1661568 
  192000    298.42413   -1108.0899    150072.34   -47323.413    4098.1368    -51421.55   0.17683892 
  192200    296.59888   -693.55996    149545.15   -47298.392    4073.0713   -51371.464   0.17044272 
  192400     304.0111   -927.51584    149870.76   -47304.114    4174.8603   -51478.975    0.1677121 
  192600    297.05739    -1305.397    150311.28   -47326.622    4079.3679    -51405.99   0.17648038 
  192800    295.57834   -1070.2527    149982.36   -47307.027    4059.0568   -51366.084    0.1661889 
  193000    297.05494    -791.6268    149604.15   -47302.731    4079.3343   -51382.065   0.16480792 
  193200    299.04869    -978.8022    149920.12   -47251.165    4106.7136   -51357.879   0.16790717 
  193400    292.64383   -1237.3277       150262   -47247.682    4018.7582    -51266.44   0.18345866 
  193600    305.91975   -977.29509    149964.59   -47265.473     4201.071   -51466.544   0.16670261 
  193800    298.82205   -807.44404     149674.3   -47319.832    4103.6013   -51423.433    0.1642959 
  194000    299.79023   -1004.2498    149928.27   -47343.171    4116.8968   -51460.067   0.16422919 
  194200      299.985   -1167.7137    150156.89   -47324.031    4119.5716   -51443.603    0.1678932 
  194400    294.90452   -966.91246    149952.23   -47306.433    4049.8034   -51356.236   0.16697588 
  194600    292.00643   -880.36036    149808.22   -47333.985    4010.0051    -51343.99   0.16318126 
  194800    297.06161   -1079.7298    150011.04   -47317.638    4079.4259   -51397.064   0.17279212 
  195000    300.37854   -1109.5353    150081.28   -47298.541    4124.9758   -51423.517   0.16491905 
  195200    300.32152   -933.31311    149873.13   -47285.311    4124.1929   -51409.503   0.16380651 
  195400    297.79873   -951.93188    149825.06   -47289.141    4089.5484    -51378.69   0.16855199 
  195600    305.94591   -1031.8013    149986.45   -47292.889    4201.4304    -51494.32   0.16575772 
  195800    298.74664   -1062.6798    150027.48   -47336.804    4102.5657    -51439.37    0.1738959 
  196000    297.25603   -972.08737    149868.58   -47307.932    4082.0957   -51390.027   0.17099028 
  196200    298.37038   -955.01375    149860.58   -47295.036    4097.3986   -51392.435   0.16527962 
  196400    301.98432    -1022.477    150013.99   -47293.265    4147.0275   -51440.292   0.15980582 
  196600    295.82799   -1055.0091    150026.68   -47359.618    4062.4851   -51422.103    0.1687638 
  196800    296.46531   -944.16529    149887.43   -47352.691    4071.2371   -51423.928   0.17081482 
  197000    296.83023    -1000.748     149884.9   -47364.122    4076.2485   -51440.371   0.16806683 
  197200    298.14071   -1004.7945    149952.46   -47420.346    4094.2447   -51514.591   0.16128241 
  197400    295.26098    -997.6443    149926.41   -47376.318    4054.6986   -51431.017   0.16216302 
  197600    300.95901      -930.62    149897.58    -47288.11    4132.9473   -51421.057   0.16258319 
  197800    294.77836   -1024.1492    149989.84    -47273.15    4048.0709   -51321.221   0.17534454 
  198000    300.15164   -1041.8146    150040.47   -47303.497      4121.86   -51425.357   0.16940916 
  198200    299.14655   -998.18608    149941.74   -47330.501    4108.0574   -51438.559   0.15363016 
  198400    302.71339    -922.6909    149879.15   -47257.251    4157.0394    -51414.29   0.15816937 
  198600     306.3324   -1006.0729    150014.08   -47245.277    4206.7379   -51452.015   0.16661606 
  198800    296.58764    -1082.337    150060.85    -47278.04     4072.917   -51350.957   0.17070761 
  199000    298.91645   -961.13511    149911.39    -47286.88    4104.8977   -51391.778   0.16242083 
  199200    302.12443   -945.53454    149884.42   -47281.185    4148.9515   -51430.136   0.16462827 
  199400    299.11026   -1061.8455    150074.58   -47290.996    4107.5591   -51398.555   0.16255629 
  199600    298.50063   -1035.5968    150110.43   -47313.042    4099.1873   -51412.229   0.15601929 
  199800    297.22936   -938.26008    149882.65   -47294.651    4081.7296   -51376.381    0.1670623 
  200000    299.43682   -886.62433     149845.3   -47315.684    4112.0437   -51427.727   0.16273241 
Loop time of 105.15 on 6 procs for 200000 steps with 4608 atoms

Performance: 821.686 ns/day, 0.029 hours/ns, 1902.052 timesteps/s
97.9% CPU use with 6 MPI tasks x no OpenMP threads

MPI task timing breakdown:
Section |  min time  |  avg time  |  max time  |%varavg| %total
---------------------------------------------------------------
Pair    | 74.972     | 75.141     | 75.397     |   2.0 | 71.46
Neigh   | 10.714     | 11.013     | 11.433     |   8.9 | 10.47
Comm    | 8.3792     | 9.05       | 9.5314     |  12.6 |  8.61
Output  | 3.0127     | 3.0138     | 3.018      |   0.1 |  2.87
Modify  | 5.6275     | 5.719      | 5.7975     |   2.6 |  5.44
Other   |            | 1.213      |            |       |  1.15

Nlocal:        768.000 ave         778 max         754 min
Histogram: 1 0 0 2 0 0 0 0 1 2
Nghost:        1397.50 ave        1409 max        1387 min
Histogram: 2 0 0 1 0 1 0 0 0 2
Neighs:        0.00000 ave           0 max           0 min
Histogram: 6 0 0 0 0 0 0 0 0 0
FullNghs:      21849.0 ave       22147 max       21462 min
Histogram: 1 0 1 1 0 0 0 1 0 2

Total # of neighbors = 131094
Ave neighs/atom = 28.449219
Neighbor list builds = 12916
Dangerous builds = 0
write_data		data.${NAME}
write_data		data.ice_298K_-1000atm_ML
System init for write_data ...
Total wall time: 0:02:35
