LAMMPS data file via write_data, version 29 Oct 2020, timestep = 200000

4608 atoms
1 atom types

-0.1714503035478856 53.57145030354872 xlo xhi
-0.10366709189952772 51.01078709189804 ylo yhi
-0.10366709189952772 51.01078709189804 zlo zhi

Masses

1 18.015

Atoms # atomic

4444 1 9.528157368221413 28.82094282957089 5.295331328036755 1 0 2
2464 1 2.0780661131617344 3.5118521797833444 1.995620780288346 1 0 1
4570 1 6.9820494868714995 1.351483687923448 6.174883155115343 2 1 1
3008 1 11.250216141105655 0.7290289830949805 0.609375265216617 0 1 1
3379 1 14.023797259124425 0.9678619040179814 0.679721687264248 0 1 0
216 1 1.5037444696078792 44.78612872206122 24.00412601468713 0 1 0
1318 1 0.33443685327609485 8.487342369105102 22.32939023162776 0 2 0
571 1 5.168126306163997 1.57852460074966 3.8180697962608168 0 0 0
1349 1 3.9835258607102544 7.246076427084829 1.1248589429224038 0 0 1
1814 1 7.055899753686195 6.336388016056575 0.7254956337454647 1 0 1
3778 1 0.00938347045651683 15.644714008637376 6.699283191587125 1 2 0
2233 1 9.464534023503456 5.360417069413349 0.7803292586217929 1 1 1
849 1 3.6685595322775497 7.516727261834801 3.723050313373501 0 -1 0
2113 1 11.5582492695278 6.675378337333636 2.4856789993095125 1 -1 1
1421 1 15.250546425675381 8.871289238691004 1.4771703280034911 0 1 0
1452 1 14.32672355245242 6.932971806247754 3.2566035606848844 -1 1 1
184 1 3.806436437629156 1.459829143280354 0.6161079580273502 0 0 1
2224 1 7.1812303960120065 8.8404334841022 2.2749235928947105 1 1 0
4500 1 0.1072038493377746 44.31892002974398 12.385770345188199 1 -1 2
2273 1 9.953644239231224 12.117970945672896 1.9261356340007803 1 2 0
4572 1 0.8993349864997953 28.365331870707195 14.378430373151701 0 0 1
3224 1 15.311602879589207 13.936715080892613 2.74401547462692 1 0 0
175 1 0.9974601308493452 3.33731141881433 24.860533090606737 0 1 1
2284 1 13.112693636844647 21.34719185116169 0.819489815566868 1 -1 1
3499 1 0.00360198932094552 18.781453597914627 13.086149985439622 1 1 0
4438 1 6.400571016215963 14.169024693691862 1.1910704489545758 1 0 1
1903 1 5.7801570374417865 16.916766025012915 0.2529092943065671 1 1 1
3717 1 10.117417453817009 15.065177647057075 2.4997151495265033 1 0 0
846 1 2.1756694373830254 11.789088972582428 14.934180430250338 0 0 1
3354 1 -0.13044528885526485 16.02285236366853 13.158239190765904 1 0 -1
577 1 2.047488776838014 17.877223738133782 1.094032627841336 0 0 1
78 1 7.544685547452041 17.553104074799116 2.7662954984182573 0 1 0
3478 1 0.6046559730215951 14.263096437378431 24.951918510624438 1 0 -1
3209 1 3.3796143108722245 14.305383050929455 16.659560182806832 1 1 0
3869 1 4.0571263112602916 21.793089871131457 1.4178887845315287 0 1 0
2009 1 13.064145864242027 15.815617473103577 2.1913050720551803 1 -1 0
1519 1 0.3389167914387188 30.411247905395925 10.36652484410355 -1 0 1
3688 1 15.647946584931663 17.90169520616604 3.468317793210505 1 0 0
3534 1 14.713825237197755 24.037257200373773 1.2502357714878012 1 0 0
3863 1 17.640594451456582 3.537478536640135 0.10266386717983036 0 1 1
784 1 2.905173941851875 9.777764147824405 0.8786148447748552 0 -1 1
2244 1 14.148124763891904 23.087582362108908 24.60969708640044 0 0 0
2447 1 13.70480978653276 31.92043689393869 0.09383299588745136 0 -1 1
4361 1 3.9215556472360538 35.40583685885322 0.010228491878889578 0 -1 1
4506 1 11.888373931590477 48.68874523481634 24.065176488896874 0 0 0
2610 1 2.7046721452945213 22.339834762528795 5.476926107143624 1 0 1
915 1 0.3349943364170632 22.230554962027288 4.26845153740013 1 1 1
2379 1 7.155314952063611 26.06234556460591 0.42477570446058177 -1 0 1
2889 1 12.519179755607015 28.527249238192773 4.567785709675713 0 1 1
1007 1 -0.12500807103391867 35.588557877886274 19.1627153942087 0 0 -1
2620 1 1.392180413289992 6.45740536024826 15.461352577543037 1 -1 0
1160 1 -0.0372730025611652 48.742987328570464 24.956833810347906 1 0 0
2830 1 6.237297945538402 27.292602199148842 2.552664794575887 0 0 0
1394 1 9.528528780876286 25.390498819445437 2.210439477485242 -1 1 1
4412 1 4.510081938441937 45.873819688558285 13.38741564595542 1 -1 0
177 1 15.253461075126282 24.986277324272507 4.140832512052554 0 -1 1
2964 1 3.3047215017606018 31.534988341295875 3.3662851774847318 1 0 1
1547 1 7.30949891338852 30.214648029433537 3.724093649877104 1 1 -1
210 1 7.088581581529632 32.70995629148325 2.7114010572624347 0 0 0
537 1 10.932561410944583 33.90326344914817 2.2717075741382424 0 0 1
1357 1 13.739782883292817 33.011492166862794 2.534647295113712 -1 1 1
112 1 -0.12198519190259116 48.00014176610814 18.79177307205949 0 0 -1
4597 1 9.554493013455934 36.19405495310997 3.2152794726180383 1 1 0
1317 1 15.152202265910692 39.31205677802261 0.17523119528587622 0 0 1
1502 1 0.9250554396562316 33.67495388368991 3.907389438315877 1 0 0
4479 1 6.835661107748496 35.77142840274229 3.391745719134513 0 0 0
209 1 5.859184698305417 38.125183662184554 2.093572760136371 2 1 0
3369 1 3.1907516096646398 37.8944580906643 1.2344196568733763 1 -1 1
4086 1 1.636620962437561 28.645932044446294 8.062399287931436 0 1 1
1135 1 5.409427819315211 8.073968873368711 23.509872280981334 0 2 1
4266 1 1.805426440270961 40.71122935699917 2.268497671859755 1 -2 1
4250 1 -0.05677013844743936 19.92497575149731 5.961636601187579 1 1 1
1572 1 11.06791936853655 35.733971164757634 24.796111192244286 0 -1 -1
239 1 17.5749885490186 25.406322932004482 17.17396462096343 0 0 0
1726 1 16.495669183673904 46.651496741227746 0.8490441810610584 0 0 1
332 1 16.160467666663948 28.481227085653767 1.7990185021591079 0 -1 1
810 1 0.640478825834658 21.484867568486987 18.130796928131783 1 0 1
3904 1 15.400935473327653 40.63799717407399 2.8028055720400733 0 1 0
1139 1 12.088211043572198 43.05621399611425 1.3994542885261327 1 0 0
20 1 1.8686808101351593 43.12887313984061 1.0551503035747012 0 0 0
3238 1 2.344761138757735 47.08492181431346 0.8605853442473433 1 0 1
4186 1 4.829005436752254 45.15499420559222 4.195363170361869 1 -1 0
2768 1 -0.03504887369263024 10.665858766739364 10.45438035513338 1 -1 -1
3197 1 1.3114495056761235 49.681065463278856 0.7234670556093704 1 -1 2
2170 1 -0.13827071679295005 4.6621163244929065 9.129066382049192 0 0 1
3957 1 14.533006149813277 48.712314165788854 0.8963399086358255 1 0 0
4392 1 1.2680343925837525 43.341875227092416 15.030930599207483 0 1 0
1630 1 17.628367463968427 7.709481796448839 23.217145344286262 -1 0 -1
1917 1 6.519899073079605 48.21702117247396 6.334952022729411 1 -1 0
1041 1 10.202554397537178 49.4861797240479 1.1464543120635045 0 -1 1
1092 1 14.509021340968477 47.22234936689088 3.266940102024154 1 -1 0
1736 1 16.48806752729148 49.12643441502151 4.306973330044305 0 0 0
4207 1 4.14244876464785 49.05796570808461 4.814775525114926 1 -2 1
973 1 10.583734703201884 1.3573277790630558 3.218457553534087 1 0 0
3126 1 11.610448971131058 48.6934654234628 4.087571616696379 1 -1 0
1601 1 14.903281708841499 3.6895659976846535 0.8992842809945578 0 -1 1
1848 1 2.0448328464263157 2.719525531435291 7.225381526960675 1 0 -1
131 1 8.82893927505844 3.2362258230889984 5.33173348328678 1 1 0
4510 1 13.156903607287287 4.327183177065835 7.886040454876297 1 1 0
832 1 15.990027856084314 24.6318105613683 9.458669736533505 -1 1 1
4541 1 5.071532968169059 4.694913834192544 2.4154971025275143 1 1 1
37 1 6.984797163455141 5.294646917454674 4.391803703565206 0 1 1
3619 1 7.381000919493503 7.825140218235306 4.8278284043790425 1 0 0
2192 1 11.773056660017987 10.184575180839811 4.966914568271664 1 0 -2
433 1 15.777273514240397 4.645794953283639 3.491350719806367 0 1 0
1250 1 9.754273467349734 31.411435346730347 1.601473834349475 -1 0 1
1086 1 0.7521145302655218 13.075536021312033 0.24444753039552797 1 0 0
3620 1 0.48012971208734345 10.73682161142735 2.41278779731652 1 0 -1
2243 1 4.450464865369564 12.073123486703333 2.092745615579239 1 -1 1
1021 1 14.444005930726362 8.5436947942539 5.546766311692495 0 0 1
3775 1 14.684634425903468 11.22637580087746 3.587269959899532 0 0 1
2900 1 15.386963429381925 13.9129548068175 6.270582718575172 0 0 1
1900 1 0.5711230685082558 50.79526774909897 4.549733907205309 0 0 0
867 1 7.2823173682234765 11.485969481037209 3.2708998371807985 0 1 1
2141 1 12.30440932794812 12.566695799132567 3.6963813170492266 1 0 0
2263 1 14.11550894481261 16.74207153465313 5.374929420472137 0 1 0
2201 1 4.503705405377413 18.820425104883594 2.4178419546752785 1 0 1
782 1 7.497746563076308 14.878362620254691 3.5785749629655585 1 -1 1
2979 1 10.112272670944568 18.417143338068698 2.0216928009946993 0 -1 1
3083 1 11.511205819501743 15.801030122565052 5.029375237965254 0 -1 0
2039 1 13.83599227246735 17.551598780597878 8.52685342857237 1 0 -1
3141 1 5.000453070619857 21.19541538181733 4.646200922955726 1 1 1
1003 1 3.082014950731018 17.770067340104895 4.782683001256797 0 1 1
1444 1 6.480832067355 22.899475354380744 3.4813383107710427 1 1 0
3314 1 9.000418910373035 21.892362847658404 4.760625649794853 2 0 -1
1918 1 11.200427562212345 20.058334427689314 3.9323263796014967 -1 1 1
2971 1 11.44759263562099 18.70471545639986 6.242820765428176 0 0 0
2613 1 2.5693732020066045 5.566761642513133 23.62513786325255 1 2 0
4241 1 6.8802956463224545 17.578147408883694 5.67264185933407 1 0 1
3640 1 5.72678706910786 24.41508007598485 5.822377488778887 0 1 0
4496 1 13.836333012745797 19.999153606327123 3.3341844562614273 0 0 1
82 1 4.77062013508544 27.63020319571921 24.51498687518463 1 0 0
2227 1 0.9061487649281554 25.21431032868752 4.911695117210367 0 1 0
3471 1 10.230225430210758 25.664043316268618 4.781853160935767 -1 0 1
2500 1 10.371230789166411 27.800403709458024 8.041591679212079 0 0 0
2147 1 13.269985478395066 25.96956985432659 5.516481730763056 0 -1 0
3977 1 14.591449287634417 21.50763528590985 5.580121255901162 1 1 0
1138 1 3.620253032265367 28.575528677694745 5.102993854526183 1 0 -1
12 1 3.7891172495377523 26.217020525879278 3.9835431104947308 1 0 0
406 1 9.362581235140318 30.693630846251022 9.08431409575303 0 1 1
3706 1 13.216638996079014 28.289674036601234 2.008429154437792 2 0 0
4100 1 10.056372633501505 28.43893955718409 2.4237886616263746 0 0 0
1857 1 16.486015969910664 31.813025151409285 8.38396315088667 -1 0 0
208 1 4.705289995406647 29.252395687199442 7.573472122992469 0 0 1
2630 1 -0.13871375720532433 33.273558384066575 0.7152018249393243 1 0 0
1937 1 4.565661576982434 31.090717252344362 9.782113078696653 1 -1 1
1919 1 5.861877836014685 31.007061313978603 5.759251429668471 0 0 0
2951 1 9.304890116227927 31.54138517200299 6.2087688000220345 1 0 1
2665 1 12.051170183159012 32.132381111328755 6.269573529750388 0 1 0
4274 1 13.80142649301494 30.88833952237569 4.473275485043592 1 1 0
4604 1 2.404757113897326 32.76195892561155 8.653538462337707 1 0 0
254 1 3.8780245682505887 32.85407640881411 5.960463197573024 0 -1 0
2534 1 11.696524515693014 34.353152024688626 5.134801777111958 1 0 1
2439 1 13.960503530569284 36.09646162309909 5.525348827167978 1 -1 0
2065 1 13.565960147491822 36.89353601529791 22.840791626754164 0 0 0
2918 1 9.616585403495879 9.197572290699137 0.9608011857077094 1 0 0
1714 1 2.3818505152005804 37.951147120858025 7.80561363496263 0 0 -1
1131 1 4.531539635108013 35.609537753947166 5.15870187332161 0 2 1
1605 1 7.778628463885735 36.55829284624339 8.144382491599906 0 0 -1
2190 1 13.849295664318435 39.043593017782825 4.573572685495297 1 -1 1
3220 1 10.94862441188956 38.74156579038187 4.549417835835523 1 -1 0
711 1 2.0999176267397153 36.70100100785281 3.7164860641693105 1 0 1
4517 1 0.9450932668395597 7.222369785995586 3.566678678376418 0 1 0
229 1 5.226789305336986 40.09071026520958 7.7573810171129285 -1 -1 1
4339 1 9.809968338944842 40.571714418561086 1.9268635027204981 0 -2 0
1047 1 15.300480994919457 2.0818712928666114 15.082051245184626 0 1 0
2667 1 11.783442403056972 5.822535894324256 23.47895742884389 0 0 -1
703 1 4.361802674141578 42.10237145367323 3.268694405643811 1 -1 1
1706 1 1.3517129940423587 42.77178445516377 6.0601249292711925 1 -1 0
1399 1 6.599446939948276 40.89214247728793 2.6010235980953875 -1 0 0
2785 1 9.750126768617912 38.215927472968886 1.2367027294577535 1 1 2
2946 1 0.4074234647994591 46.53850348335169 4.930508789435381 0 0 1
4365 1 10.448115654299759 45.56322223945266 2.0222172121074133 1 0 1
753 1 8.055655007080158 43.11893494038051 4.260385974802447 -1 0 -1
2189 1 11.057796137648873 43.04070590115671 4.299732275343118 0 -1 0
663 1 7.646105037034904 10.19532479526531 24.30344062571278 0 -1 0
2618 1 4.09657892057767 5.74489645039704 21.46394394314962 1 0 -1
601 1 0.918758111627608 27.941674281472473 5.62068859089646 0 0 0
2817 1 2.88890741615338 50.96691763579861 2.8315122491720577 0 0 0
2716 1 7.512745835066811 46.4866116181894 4.260060880448343 0 0 0
3360 1 4.797654481250171 47.70444679385466 2.365872291588897 2 -1 0
2836 1 13.755837406339452 48.763401045973055 6.053420161437163 0 -1 2
3724 1 13.252390764401698 45.181980008043226 5.306336974675667 1 0 1
3882 1 16.172476279795717 49.99717952552555 7.2051152683588136 0 -1 1
260 1 1.268693913754794 49.02642969927976 9.95647698500052 0 -2 -1
2358 1 1.1660533613679782 0.11023384199830527 7.101528330910063 0 0 0
1292 1 4.140194564121218 0.21629201564906086 6.620516596801179 0 1 0
2931 1 7.793744556622431 3.8430364628339784 9.305712931375945 1 0 0
1387 1 15.790062965246378 4.439245060562991 6.270277241090167 0 2 1
3594 1 17.10477380277943 1.3268223216063115 5.4070290751892935 1 1 -2
2728 1 0.33500990569163935 49.156454582611204 13.44111528440722 0 0 1
964 1 4.959627418500234 3.2694857290051482 8.164510789485357 1 0 0
2632 1 4.820530586030604 5.9168082599824965 6.4662478480172885 0 0 1
3554 1 10.098485047699253 3.845888354849826 7.46401127536776 2 0 0
3136 1 14.751808969352986 1.7480576812242372 7.691232729300971 1 1 1
3456 1 16.13176973598793 10.80760893193243 6.11033018883066 1 1 0
1515 1 0.6146944041004203 0.5125499622553739 11.29868139490671 -1 0 1
173 1 7.9536024678052275 21.743447634658814 24.723037376347115 0 0 -1
1800 1 12.565280245373364 8.172368832768313 7.547233385366558 0 1 0
3245 1 1.6637785214125846 12.927058092009299 5.520439908245327 1 0 -1
483 1 3.2455901256571895 9.095186354285104 8.103963253254802 0 0 -1
4529 1 10.04836030843894 8.063756679289163 4.1300437961699235 1 1 1
3668 1 7.529412282097249 10.908002744247204 6.170656117036042 1 -1 0
167 1 4.067284215647213 11.632696124257704 4.66437538433203 -1 0 1
2490 1 5.965889098328688 12.582888678036587 7.379805720862071 1 -1 1
1468 1 7.730318855061912 13.566592272017804 9.746122166406366 0 1 0
3153 1 10.752164286466156 14.648266250762958 10.616382471118094 0 0 0
2828 1 12.505050608191652 13.462771816993506 6.286177183482916 0 1 0
4187 1 4.906664697475126 24.40345958280547 0.7154758645513684 1 -1 0
1875 1 10.38106189224769 32.45277460439736 23.23424234473663 0 0 0
669 1 3.189036850234558 14.984436941833394 6.888181913685624 0 1 0
3545 1 2.6253474187903096 19.6891025288505 6.681207541568121 0 0 0
2882 1 5.158565307287862 14.200706208177513 5.017880629560548 1 0 1
3505 1 9.446779450384836 14.310763962974915 7.741566491221993 1 1 -1
2497 1 11.777476129546091 16.91443185867847 12.929298590240148 1 0 0
840 1 16.492348286406944 16.682507152471906 8.80031899256337 0 0 0
185 1 1.7994650112856576 46.7506148398533 11.731493320545313 0 -1 -1
4141 1 7.000789432081006 22.922134256995214 8.001141532528106 0 0 1
3367 1 9.211225162325256 16.937536808679905 7.304582283189032 1 1 0
580 1 8.216309899857306 17.841671236191374 9.731889446496451 0 1 0
3914 1 12.199386181110455 19.97496264077022 8.923064034903701 1 0 1
3901 1 16.2263564413286 21.10303948797935 9.785075489960654 0 0 0
2672 1 3.9434796992223786 44.820860113062736 1.1901429254729496 1 1 2
1282 1 3.4955010341160913 23.78526033986414 11.542538049475496 2 0 0
3518 1 9.013723469084846 25.039395637782704 9.137339294146525 0 1 1
523 1 6.971423708799112 20.236295783126398 6.544150074274434 -1 1 0
3927 1 15.790921995371995 19.532497562296633 7.0819508667353706 1 0 1
4041 1 7.781446160981243 26.561519443973797 6.383437160419743 1 2 1
2381 1 5.731611748916865 23.03626105752454 15.250091054293303 2 0 0
253 1 7.29694105580584 27.953992534264835 9.052905916640457 0 0 -1
3253 1 10.03171953010302 23.561854119663348 6.815845754600764 1 -1 0
3050 1 12.675316576836813 22.355589652273082 7.384199341788671 1 0 0
2366 1 10.086100753812097 50.594951316520095 22.401904139144484 0 0 0
1645 1 1.5846024745159484 25.495666415405157 8.412713053497841 1 -1 -1
3681 1 3.7713252614910946 23.98353969969642 8.023743441564788 1 0 0
4369 1 4.514201889951795 26.92777836936443 9.210031654536639 1 -1 0
2599 1 7.207584557410788 30.01615083195029 11.039523308504208 1 1 1
4353 1 12.182435073575142 28.940260587965234 9.729707136980917 1 1 1
2206 1 12.17411975553637 25.306456593872248 8.359686828496923 1 1 1
1345 1 14.751617072043596 26.6740123337412 7.7653628530573195 0 0 0
2878 1 17.292231461710067 43.990643254431006 16.142426107415815 0 -2 0
87 1 10.794206262277184 33.09362295151223 9.776200502493678 0 -1 -1
4547 1 16.69228786481819 34.44909954866479 8.910349462193608 0 0 -1
2892 1 12.665539183678646 8.800420637324274 24.385087787613145 1 0 0
922 1 0.019692978611634354 34.501338035319364 9.155887565794082 0 0 1
1239 1 3.75890716879216 35.29078992978849 9.220765369044294 0 0 0
3615 1 8.7396222560743 34.60542048802425 6.22329602081885 0 -1 0
1161 1 1.939932562600092 45.3285149091064 19.51606150272665 0 -1 0
4174 1 15.10793942590462 29.33552079170711 9.241041452215732 0 0 1
4343 1 4.1254205269669715 43.09398445726771 10.998612407385032 0 -1 1
2841 1 16.956838618159267 21.246561689165205 22.480324061906295 1 0 1
3768 1 1.7572180680015306 39.180966739364436 10.116711581202885 1 0 0
1696 1 4.954231014544594 37.14253502778176 7.046741226325331 0 -1 0
1644 1 13.91042482727056 35.11747552402328 8.770000114630744 1 0 1
3028 1 11.099635890998961 35.4983179953841 8.015580977091972 1 1 0
1581 1 11.462695725811846 39.305654909081355 12.087717771834056 0 -1 0
575 1 3.5612788428160718 41.17653391360881 5.6603616769240235 0 -1 1
2342 1 10.705950614121805 38.25362088155123 7.596698969146268 0 -1 2
3507 1 8.96597530375112 40.61479165234357 5.816244938510363 1 1 0
3327 1 13.008578118072137 40.02707401493424 8.236171240457622 0 0 -1
1735 1 15.009452276727007 37.9224795157063 9.56046955387165 1 0 0
631 1 0.3970219167759459 13.943945121007339 3.0702178012312724 0 1 1
4423 1 6.053938644098073 43.45551721389873 6.0991753339619335 1 -1 1
2825 1 11.312669809814523 42.40091671320643 6.98057237174989 1 0 1
2443 1 0.511342684334986 24.783886640380597 21.566070411974867 2 0 1
1472 1 4.152525477507321 47.59186794444645 8.465840423157024 0 0 1
2294 1 9.616931238346467 46.369669868348296 7.907466751502337 -1 -1 0
2119 1 13.222590984216906 46.501858549147315 7.61858386358887 0 -1 0
2870 1 15.1516521538615 42.93752811826482 6.358043972196831 2 0 1
1942 1 8.339212967899908 50.21511051765461 6.796279033270525 0 0 -1
429 1 2.854822176519678 46.943852330945205 5.674038085645269 1 0 1
3391 1 10.6258400258509 50.72561107131911 5.617333786933219 1 0 1
3340 1 10.356052846922825 46.18353034268303 4.977531778838683 1 -1 0
4096 1 12.387097818337397 0.10159491485631778 7.756668781483052 0 0 1
2950 1 7.778560806730182 46.38455621187866 1.3222390028462512 0 -1 0
1110 1 6.913415524450999 49.386613237264754 20.48076204858778 1 0 1
349 1 2.6991380461722017 2.1656331055449027 11.657207863173067 1 1 0
3203 1 6.245780181773704 0.3740645274415697 14.078428457130764 1 1 1
3979 1 5.58624101133866 1.8406829429220861 11.139152262216472 1 1 0
2689 1 6.192091010237435 3.2346226279649715 0.32874954895268016 1 0 0
638 1 16.12053895631431 0.3298921022014884 10.376725618819753 0 0 -1
4519 1 1.5190514992804864 5.178696344565323 12.812653490673284 0 0 1
1654 1 2.327317530727293 4.0919678140417295 9.646799471843595 0 -1 0
1265 1 4.1566776313612275 6.269245541443979 12.259362350831188 0 0 0
3413 1 8.109775940141791 7.574943501554862 12.12090149223262 -1 0 0
990 1 8.327896753589389 3.0821592542742344 12.086704885746133 0 1 1
2255 1 11.844136271219739 4.481401070623415 12.392808987447852 0 2 0
2309 1 17.648345109560903 18.062701827375964 25.0898082710941 0 0 0
1247 1 0.5347011597589845 10.00245527647542 5.008722258062742 1 -1 0
1580 1 4.088333574143338 6.3509848723235764 9.17098589149599 1 2 0
3060 1 10.118719444190333 7.167948081891755 7.107645005739267 1 0 1
996 1 6.9533272335986 6.6081011844845925 9.615054652261653 0 0 1
1460 1 12.418294373887083 6.504336594520229 9.610146942303297 -1 -1 1
2097 1 11.724502533209698 10.376301721032107 9.389737868139552 -1 0 0
180 1 16.01822219689432 10.366062983979836 11.189969530933798 0 0 0
914 1 3.0154989387337383 15.280406609679394 24.610448005015325 0 0 1
3650 1 4.388394185351731 11.132447963548707 9.615721457768904 0 -1 0
4251 1 4.698209223820042 9.101832733583974 5.593359431341163 0 1 -1
4576 1 10.377219942773458 11.557067723105853 7.110746050154101 0 0 0
2435 1 14.907576882101504 11.652054110894223 8.86835489192673 0 0 1
139 1 17.34102879091195 2.5108147255888924 17.247641758522533 -1 0 0
3544 1 2.8273820038540634 13.505608761455708 9.213199041795534 1 1 -1
3249 1 4.116845158300677 14.254845451565279 11.64155284534521 1 0 0
1907 1 7.2861350006671435 10.850362425442556 10.137200120719838 1 0 0
3005 1 13.779211275307176 16.260400980677773 11.079722035154001 0 1 0
4454 1 6.514868206306558 15.569821766724994 11.042305868995761 1 0 1
2656 1 7.7582206470013695 17.956313259925327 12.783905063799994 0 1 -1
2956 1 9.40711961667339 18.01829329333765 15.197577767460807 0 0 1
4424 1 13.288751046665572 13.510436550885034 10.296224527324577 1 1 0
4471 1 3.6254444671263037 19.20149425236306 10.325817774048247 1 1 0
1248 1 7.540438863521768 21.84648855444556 10.821133333940407 -1 1 1
1700 1 6.296454286561984 19.774824350238863 9.159600321597452 1 0 0
4557 1 10.701181762090531 20.330732610951653 14.089252746609425 1 1 0
4159 1 13.163672100300488 19.32588640456175 13.867243219339144 0 0 0
2092 1 16.431244286874065 16.23883657836219 12.055244813122387 1 0 0
1276 1 2.6215030827467265 21.619372754218933 9.483380347628199 -1 0 0
4565 1 5.336724545672791 21.64699827700573 12.879228637655391 1 0 0
1837 1 10.64478353016412 18.729876184177343 11.078239124326686 0 0 0
1865 1 12.970093611975228 23.099246995347624 10.351631521479614 2 0 -1
3519 1 14.721302362508498 21.228635195919008 12.207642688251783 1 -1 -1
2455 1 8.385068137237313 37.68268298770434 23.48493228812375 1 1 1
1329 1 15.759086878725798 25.05973294193939 15.137971803794022 1 0 1
2488 1 5.953636869551017 24.81268105988893 10.551106868513445 1 1 2
4298 1 9.138836637350234 26.35380979709184 13.839956352985933 0 0 0
979 1 10.924670052295053 24.850433484805812 12.57712274864385 -1 0 1
695 1 14.500906493559004 25.468552089995477 11.894466759263585 0 0 1
3296 1 5.003272633099449 28.93150391263872 13.229409419619705 1 -1 1
1789 1 7.750062628069021 32.50587440731542 12.267896248440042 0 -1 -1
194 1 6.859652792844197 26.843101148913174 12.255711048967694 -1 1 0
3269 1 12.513057762897875 27.294151582948086 11.930766613120776 1 0 0
4379 1 12.417847719624488 28.54739577358008 14.48880351655286 0 0 0
3968 1 8.603418263111687 2.957080176355089 24.31951443857757 1 1 0
906 1 2.9846895147699577 31.206424038128983 12.099335030298068 0 -1 0
736 1 4.858047217891411 32.29571082695986 13.88000738614772 0 -1 -1
1197 1 10.797256477268027 34.80281691236506 14.597293677901328 0 0 0
2738 1 13.148135135625404 31.79456643659705 8.96673155033752 0 -1 2
1204 1 9.703007529352584 34.50402158433289 12.002005160206785 -1 0 0
2038 1 -0.09523849687459318 41.52080684230809 18.018336799216748 0 -1 -1
1595 1 11.481853866601545 40.07316021859722 23.507896535075812 0 -1 0
1929 1 3.563394279135673 36.37417517461704 13.450719095435751 1 0 0
2731 1 7.850114760057213 33.1301018195264 8.665470726838418 0 0 0
1112 1 8.439706459575383 36.817892187082975 10.783374982647906 0 0 0
1659 1 14.13837516307558 33.735653238595816 11.150196726924547 0 0 0
1831 1 16.418028556656342 30.683934233504665 -0.05821634708439117 0 0 1
4191 1 6.2269448385571 39.23518016648556 12.246289234210591 1 0 2
3987 1 7.97895628918204 39.313817876393074 7.93702732162623 1 0 0
4335 1 16.916414371356986 33.52663040923987 11.838772661041265 1 0 1
2034 1 9.534288232576186 47.325415216675665 24.326260710492804 -1 -1 0
3351 1 1.8973704323864644 36.4495779873229 10.891440541511882 0 -2 1
4583 1 6.2686808527426665 44.43602746015952 10.337416185413293 1 0 2
2913 1 4.396725358032567 40.19685476482526 10.412925286014344 0 -1 1
4420 1 8.762508627512831 39.711587197995684 10.944363930678417 2 -1 1
1228 1 8.1656069934153 42.27793917968316 9.662550072862304 0 0 0
1370 1 10.92329956901521 41.42279367991122 13.946209105111668 0 0 0
1053 1 11.707773266412111 41.061470120205115 16.909364908427023 0 0 1
2145 1 15.962118925268783 39.41799073178363 11.58094862501446 -1 0 0
2129 1 15.869428087279907 36.980749154676474 25.24229131082391 1 0 0
289 1 2.9031299311032224 45.12046572076041 10.00746803220125 -1 -1 0
2084 1 10.066784997472526 43.90302535761387 8.9017798076263 0 0 0
2108 1 12.125518485764594 44.65547339825851 10.997354438742953 0 0 1
276 1 12.928477275065436 41.663834612892074 10.577987804663914 -1 0 -1
4014 1 12.04985237120745 47.53489309553618 0.4893680771836657 1 -1 1
1434 1 3.8006829557682016 50.16935742693265 9.177393336510463 0 1 1
521 1 10.607808872323156 44.26903835794586 13.235105706037706 -1 -2 0
4243 1 9.000684677745948 50.0893292949209 9.295610454839887 2 -2 1
1513 1 15.63717996138732 46.84279363117567 9.086428584100334 -1 -1 0
3579 1 12.146739613431226 47.35160202657072 11.143952954957813 1 -1 0
3279 1 16.8391052012714 47.55529965540181 12.371814939644818 1 -1 0
623 1 3.086237481414733 48.749678254153224 13.708321235144142 0 -2 0
576 1 3.5946534480688843 2.550817911773465 15.095474179394614 1 0 1
3713 1 4.648865962957029 50.14556140318963 11.784298618182117 1 -1 1
2872 1 10.198755835113161 1.548933585973187 9.00824822532408 0 1 0
605 1 1.116453041289253 1.3707667691311278 14.53623824642029 0 1 0
694 1 3.0630999030075055 50.37023870978169 15.767650619332333 0 -1 0
2197 1 6.976169788488145 3.37671415549619 15.64082281037285 0 0 1
1966 1 14.203132968589212 2.0978159668473055 12.360006277131637 0 1 1
2213 1 13.418241557313022 49.013771892200864 13.73857487793483 0 0 0
2531 1 5.396572485254595 4.069392800829997 13.262874383541364 0 0 0
337 1 9.013556794544021 5.349274242812337 13.559980069118977 0 0 1
918 1 15.84102087995145 5.944421558397976 12.123515985872618 0 0 0
1863 1 15.45646846315018 3.6211545538610657 10.252494043476519 0 0 0
251 1 12.13277366295521 35.921303869989444 0.9780278873546513 -1 -2 1
3152 1 2.7010042974624633 8.811159379419205 13.540493273812434 1 1 0
3347 1 11.11743701304179 7.448291134350049 12.522464374930905 1 1 0
3069 1 14.407974123950556 8.079907783261618 10.808540412218607 0 0 0
278 1 15.523623642634211 10.671694784041936 14.531216853465288 0 0 -1
2692 1 15.213053271472011 40.09817504488818 6.6620758963589894 0 0 0
2852 1 2.803278208798726 11.240712169844699 12.036322079910619 0 0 1
1140 1 9.863760659315824 9.957425703553922 11.26656103147039 0 1 -1
1751 1 9.579502970122418 11.664169711367693 13.388843117789035 0 1 0
1744 1 12.985598545028758 11.437143192708444 11.888020233971394 0 1 0
864 1 6.919208935535279 15.003997638522572 14.240216404249438 0 1 0
901 1 4.9195284257910705 13.044135325951393 13.938319875892581 0 0 -1
2351 1 9.654017527183663 14.308199007092943 13.302419826595827 0 1 0
1173 1 7.676446726578062 8.320099531367907 7.389332832636578 -1 1 1
3217 1 9.441241037583204 6.681115416880883 25.01941526707447 1 0 0
958 1 2.4474044957077785 16.353632034997172 11.959316715147523 0 0 0
993 1 3.330406027962985 17.616449919928236 14.4321846107746 1 0 1
2382 1 12.247175806011306 14.80117056658989 14.468320136290703 0 1 1
408 1 15.809713342858192 14.673265475924143 16.093674089351754 1 1 -1
3358 1 14.788028158162705 13.39624157655312 13.767484520948743 1 0 0
1396 1 14.327766295942043 18.74252702982071 16.259057315808693 -1 0 1
3549 1 10.550106182648685 46.85179415029357 19.5113616440011 0 0 0
2992 1 5.792845945921574 19.188214564017407 14.330167171069252 0 -1 0
3475 1 7.190528095582319 18.524748676480545 17.062461426637864 1 1 0
1227 1 15.577354204324454 21.081419194350726 16.929603467967787 0 1 0
4073 1 2.6899020722365 19.88197173962858 12.737291838096535 1 0 0
2581 1 2.5535441539726746 22.10546924829218 14.58965058040246 0 -1 1
4068 1 3.5293395031174084 24.98851998797544 15.22948728328876 2 1 0
4093 1 10.454170125694565 21.778038545392803 11.282557762891871 0 1 1
4137 1 16.79874020514904 21.41560752559307 14.06198242225955 0 0 1
3319 1 1.856622256515947 25.806169603269126 12.845279020624263 1 1 1
1146 1 2.7945529126925144 28.05500639188484 11.153062895943407 -1 1 1
3434 1 10.319109700615835 23.174243283686348 14.69659092606663 0 1 0
3312 1 8.249116050426123 24.243442799614634 15.992256891952156 1 0 0
572 1 9.858346915639666 28.9786160280528 15.21777793577605 0 -1 0
4315 1 14.540529823769742 30.343996992063346 17.715151449024006 0 0 0
4169 1 6.040678155071639 12.35103460783044 23.195062171784617 0 1 1
2557 1 13.520344361686771 23.580904162283446 13.694688599449583 1 0 1
3757 1 16.398602018737694 16.877796131821587 21.083340290419745 1 2 0
3448 1 5.817951102343143 26.339667381624142 15.056760599150081 1 -1 0
3386 1 9.945323331927643 31.624890102425848 16.348904217391627 0 1 0
2250 1 13.175370948319276 31.953259951406512 15.83666642566341 1 -1 1
859 1 17.10220937254763 29.906898227307597 16.019639525540683 -1 1 0
1787 1 5.954632573052275 33.71036384809901 10.617682245218907 0 0 0
2204 1 7.664107758982461 41.75548028793642 -0.007456312986486607 0 -1 -1
476 1 4.472126641504772 30.242845753313414 16.182493800603954 0 1 1
3809 1 7.744334818742418 32.68510302072265 14.950767498376697 1 0 0
132 1 13.39825073278868 35.36718914861878 13.208516200025112 -1 0 -1
4262 1 11.622540648391464 31.686303671925295 19.010651798534326 1 0 0
4012 1 17.166107260234167 32.24251576737906 17.967877969141185 0 1 0
2370 1 0.2693739585865305 7.9884522225738674 12.087636182362433 0 1 2
2960 1 3.5665945112752615 34.49844499855806 15.390371216504656 0 -1 1