LAMMPS data file via write_data, version 29 Oct 2020, timestep = 100000

8503 atoms
1 atom types

-0.1973914010887583 104.67107768778754 xlo xhi
-0.13960106954118245 51.124865339220676 ylo yhi
-0.13960106954118245 51.124865339220676 zlo zhi

Masses

1 18.015

Atoms # atomic

17 1 5.975061324193812 2.4789984733985406 2.2761746701189662 0 0 0
16 1 4.590916624651597 0.5002611033723441 0.7114449451785383 0 0 0
18 1 11.012481879348005 0.5999926329978262 0.7674866127266269 0 0 0
19 1 12.768072931162786 2.144750657549232 2.211289822799843 0 0 0
618 1 18.775232241161344 2.232253896968789 2.6953946024483115 0 0 0
21 1 17.10903916228718 0.7443231203266477 0.8023826382802286 0 0 0
766 1 23.94036872371277 0.5207022015616452 0.7028198253755814 0 0 0
856 1 25.48841127770996 2.1653438064595703 2.05486617331422 0 0 0
768 1 30.079966942926973 0.5142351784371663 1.0767824142204976 0 0 0
769 1 31.657983293062426 2.497343758503811 2.5294292158975207 0 0 0
23 1 1.3255505632141251 3.414425867176808 1.149969962357013 0 0 0
30 1 2.8571385642946496 5.420815539150857 2.16866470931917 0 0 0
25 1 7.509322368900826 4.112890335252884 0.8676538155889444 0 0 0
33 1 9.141808676993312 5.552569390463181 2.573407896993902 0 0 0
27 1 13.990641605225607 4.0778720258601 0.9029334499190973 0 0 0
28 1 15.749359468137639 5.38625907508334 2.6988394210219946 0 0 0
770 1 20.3273792079227 3.75398935125691 0.9191374080304946 0 0 0
774 1 21.93886695561889 5.2506025295882175 2.46021049893375 0 0 0
771 1 26.986135920209293 3.798065906698209 0.7033791365277424 0 0 0
859 1 28.306926590329688 5.498925418599727 2.468459714792652 0 0 0
773 1 33.319167922249086 3.948965366104548 0.8630551649366562 0 0 0
1619 1 12.195888297665949 50.22150830296627 24.97053318803714 0 -1 0
31 1 4.449677935263609 7.264322285839443 1.3309806103918964 0 0 0
132 1 6.084555319560483 9.086192911978832 2.59152346255733 0 0 0
32 1 10.972013738935285 6.863991935143311 1.0209411539194657 0 0 0
34 1 12.665011616334503 8.698893758825465 2.1741199670243803 0 0 0
35 1 17.56718153638462 6.763189976212077 0.7016376919309252 0 0 0
833 1 18.930487779050974 8.266633893485022 2.1184242759018774 0 0 0
775 1 23.69509811761003 6.961867673562828 1.0586681266861406 0 0 0
862 1 25.333062794984574 8.596813741825432 2.5025948782467706 0 0 0
776 1 30.109590251908095 7.247372691001958 1.0779093262258126 0 0 0
777 1 31.990716248902118 8.890025637235569 2.6082276757760874 0 0 0
37 1 1.2027286871744791 10.049093325651226 0.9310053687684445 0 0 0
45 1 2.538149997904922 11.891860822709754 2.3193012933340404 0 0 0
39 1 7.977678565724746 10.38402884992601 1.2143219394552665 0 0 0
47 1 9.384379844554358 12.046336314957708 2.7292732652146983 0 0 0
41 1 14.324602731897938 10.263068338147916 0.7420478331885104 0 0 0
42 1 15.712948987839175 11.501810143661112 2.673589620979742 0 0 0
780 1 20.62781643438454 10.094896192494256 0.8551825291987549 0 0 0
866 1 21.914669666722205 12.130754558104398 2.618335357830793 0 0 0
781 1 26.742512048659922 10.224435309739155 0.9943151915565636 0 0 0
782 1 28.453565061105156 11.92899402994323 2.2665170478069365 0 0 0
783 1 33.51757809883241 10.406081596908205 0.8232327169649246 0 0 0
44 1 4.572229758299069 13.297921123435112 1.1492624267836495 0 0 0
138 1 6.003395428539659 15.112683101184373 2.7041712354549503 0 0 0
52 1 12.433966773645368 15.209467676885527 2.5055907688015457 0 0 0
46 1 11.08152142430559 13.431871869577073 0.900093460613459 0 0 0
48 1 17.707166227503023 13.20421780626881 1.0143605734856882 0 0 0
772 1 19.02848151285886 15.305097076718543 2.3292993150148518 0 0 0
784 1 23.23811251289295 13.84566153247679 0.8616140428192041 0 0 0
785 1 25.33100359986877 15.186604238672814 2.5017508528257286 0 0 0
786 1 30.243196390129164 13.493202305786266 0.8187708939325954 0 0 0
873 1 31.753937492634826 15.3531345152934 2.3497920616282135 0 0 0
49 1 1.2228490536398777 16.466817583406463 1.250624547408525 0 0 0
142 1 2.9888246200393502 18.2108336820186 2.483912093279325 0 0 0
50 1 7.516970029250192 16.645008655991564 0.9513634225020866 0 0 0
51 1 9.502414142565819 18.323253183076098 2.437471732886146 0 0 0
151 1 15.532124305000282 17.870384533106915 2.5088310915645757 0 0 0
53 1 14.018098819579787 16.681571282404565 0.6750146328168893 0 0 0
788 1 20.7530056927479 16.591112218482166 0.7453965365460964 0 0 0
876 1 22.026472049603097 18.363507436326746 2.3881163327495165 0 0 0
790 1 27.057360664147808 16.75413677614884 1.085619991906094 0 0 0
793 1 33.369624004793714 17.043756072477358 0.6856687891736789 0 0 0
54 1 4.618409055398488 19.95397326251035 0.6471837037940392 0 0 0
149 1 12.373805848873067 20.94034805163312 2.2837355915316175 0 0 0
56 1 10.719107068078234 19.621463198420493 0.48290622279986206 0 0 0
58 1 17.33455629388185 19.467277937722745 0.8802230591224873 0 0 0
796 1 23.634547092221567 19.9948924736992 1.0489054888243654 0 0 0
881 1 25.187495514590022 21.366544002718822 2.5608698053909467 0 0 0
797 1 28.750995583309585 18.415132109160275 2.341462131519366 0 0 0
798 1 30.12950312115418 20.17872231252688 0.7750594445743728 0 0 0
59 1 1.482759621385533 22.85820008193276 0.6610621111286642 0 0 0
65 1 3.1166087523971493 24.283243331486393 2.655131078435538 0 0 0
147 1 6.189146697057624 21.567903188026577 2.517863577343531 0 0 0
61 1 7.718878926817197 22.858668825763065 0.7316732767182278 0 0 0
63 1 13.96412261850311 23.025514421328438 0.9149913584355103 0 0 0
802 1 19.010348352054848 21.51783888939767 2.3262993305650452 0 0 0
799 1 20.64107894430746 22.955426366328002 0.6224937231279609 0 0 0
800 1 26.743783378431488 23.1498278563162 1.170873242410669 0 0 0
887 1 32.10150235407933 21.41786787965164 2.630033654088681 0 0 0
803 1 33.26451644970354 23.108417756381407 0.7569716949396343 0 0 0
3174 1 34.73542681984668 5.624000566960726 15.55908077244552 0 0 0
66 1 4.218525116136885 26.385225054795118 1.0985335608067326 0 0 0
153 1 9.403078680435907 24.673954694842 2.31267435834672 0 0 0
67 1 10.868100069685225 26.219785227718404 0.4212088576632006 0 0 0
69 1 15.728107547425521 24.456275844133028 2.5180436172077894 0 0 0
70 1 17.420283297894763 26.124851273880466 1.0101573527546712 0 0 0
890 1 22.28887050934032 24.557791319258826 2.3009523150824003 0 0 0
805 1 23.87074764281193 26.253395723902266 0.7123225749637212 0 0 0
801 1 28.675827623228077 24.532079241385873 2.399542309973331 0 0 0
806 1 30.052105579634315 26.193906988978746 0.8370462347628965 0 0 0
367 1 -0.07306212338335956 27.85807405003119 2.686669477467353 0 0 0
71 1 0.7988856411676059 29.512173065869682 0.9409489455888198 0 0 0
164 1 6.223828560306638 27.732175001412106 2.36810034464529 0 0 0
74 1 7.170331440367699 29.559878415341828 0.6399032672626813 0 0 0
160 1 12.392089177079168 27.736343848830895 2.662662438406573 0 0 0
75 1 14.265094136134794 29.328248219949526 1.0676402165281136 0 0 0
1349 1 19.146040456073955 27.76704267939367 2.55861904679677 0 0 0
808 1 20.66428439020474 29.615402334028015 1.1581537844366292 0 0 0
891 1 25.486658537025516 27.779064827742353 2.6399491530117425 0 0 0
811 1 27.062709945557305 29.36867525419873 1.0795518368672943 0 0 0
807 1 31.504390653604222 28.216303156352833 2.2962012289013085 0 0 0
814 1 33.07516811864406 29.643400910066408 0.866302906584403 0 0 0
163 1 2.555235384245425 30.854349218538346 2.5071944640074832 0 0 0
141 1 6.188735760632309 50.672030098502546 24.761470737525574 0 -1 0
79 1 4.192957213169024 32.60457127849172 0.866869093779256 0 0 0
166 1 8.886742175254733 30.883706872973892 2.352639342910115 0 0 0
80 1 10.904557591112864 32.12720312911402 1.098472090877946 0 0 0
83 1 17.688977751535635 32.697927011838814 0.9296039160816874 0 0 0
168 1 15.77429134459714 31.09674103237744 2.6503721895366947 0 0 0
818 1 23.747234680711415 32.592908474013186 1.0713425800368321 0 0 0
817 1 22.34973475292866 31.034899673455826 2.810433827397421 0 0 0
820 1 30.06139311717612 33.106843368075744 1.0131369385607065 0 0 0
812 1 28.56816858398397 31.283761719181683 2.5927529518046257 0 0 0
84 1 -0.09145140974543127 34.15007329802302 2.4601397911405636 0 0 0
85 1 1.3342570230311175 35.852407788990305 1.08261432180604 0 0 0
172 1 6.082850635437987 34.14415589317639 2.553306522983206 0 0 0
87 1 7.559711310726473 35.528049749809284 0.7999106288636159 0 0 0
81 1 12.36776608746355 34.00329855406258 2.5402270761892405 0 0 0
89 1 14.020169454381815 35.53322944176587 1.1121678534476656 0 0 0
819 1 19.09839798597493 34.12676425626353 2.539594451202688 0 0 0
822 1 20.611750041828735 35.89675131478508 0.8665079335361192 0 0 0
905 1 25.174290565541323 34.305391619491516 2.631669864818752 0 0 0
823 1 26.651855920965374 35.85556701358453 0.815310695620137 0 0 0
827 1 33.14700602331315 36.0567945410707 0.9724864448594845 0 0 0
825 1 31.68727010419104 34.520431759703015 2.639428829169327 0 0 0
176 1 2.7464039419436403 37.40470773800375 2.6457405362761595 0 0 0
92 1 4.446469295168205 38.945588228822416 1.1265589467048442 0 0 0
88 1 9.17161653831313 37.36881009683141 2.1718938963308094 0 0 0
94 1 10.985067128411284 39.01457622937714 0.532453572258594 0 0 0
97 1 17.277956099956025 38.762398328555605 0.7943223724249572 0 0 0
98 1 15.914115958593893 36.96593662568212 2.8005810956052697 0 0 0
909 1 22.432736831568278 36.91982480746431 2.725013791582076 0 0 0
829 1 23.55610149520573 39.019221263279604 1.2059593974300218 0 0 0
906 1 28.45859998956301 37.082544451195844 2.3962516194793455 0 0 0
830 1 29.86134829719352 39.16922852229949 1.1134238398862544 0 0 0
100 1 1.6396692277702005 41.820167188653144 0.9474893956209618 0 0 0
24 1 -0.12308803340043112 40.530014637774386 2.4015763244469976 0 0 0
93 1 6.016216453108864 40.583784987361625 2.795349180054904 0 0 0
95 1 12.5190731630963 40.39881523280624 2.1706938822670128 0 0 0
103 1 13.941401988921369 42.42131861287281 1.1624421960960376 0 0 0
234 1 18.784106557135196 40.439160943006186 2.6100453966272963 0 0 0
831 1 20.201744601988903 42.14760566861084 1.2826997433229865 0 0 0
910 1 25.405232482663052 40.68239181144669 2.336699692756482 0 0 0
832 1 27.01368071792762 42.41506598871406 0.8594324762813867 0 0 0
914 1 31.81911596715294 40.642102509895736 2.336532917966676 0 0 0
834 1 33.46331961310542 42.49149336625766 0.6360969462507106 0 0 0
105 1 3.2093818029102836 43.46850155329557 2.537484023259113 0 -1 0
2 1 4.317472029925543 45.088420463522795 0.6487148457056999 0 -1 0
102 1 7.583809680298673 42.50848737655164 1.3909677856755223 0 0 0
101 1 9.198851640164351 44.23807654005512 2.8255665938592425 0 -1 0
7 1 17.07470313926268 45.43810518659336 0.9007124043608123 0 -1 0
191 1 15.812588607316187 43.62392317594637 2.6518884546280175 0 -1 0
757 1 21.720104702370016 43.70058734224321 2.83734332896348 0 -1 0
755 1 23.283230736744525 45.346100730692044 1.0522242096340408 0 -1 0
758 1 30.114954761275904 45.3551739585655 0.659371633559534 0 -1 0
915 1 28.534743113672235 43.808387531490936 2.6227708200427764 0 -1 0
917 1 34.65177156474998 44.12899598088616 2.3421002226735053 0 -1 0
68 1 -0.16220936170362166 47.0916267161554 2.0122319575648198 0 -1 0
11 1 5.878868155070823 46.90373919014705 2.1418279537472964 0 -1 0
4 1 10.798458160472494 45.53514659981805 1.021646393800626 0 -1 0
5 1 12.416477112591304 47.27752210184849 2.34006664556106 0 -1 0
690 1 18.380250907577032 47.30958043678393 2.682802366610595 0 -1 0
756 1 25.12069199072731 47.004174053684324 2.2090321407419538 0 -1 0
762 1 26.987324800164824 48.37904465098943 0.7408636555410154 0 -1 0
840 1 31.732825434393483 47.29149332739411 2.370157490688984 0 -1 0
8 1 1.3545788129887026 49.071750802934616 0.9071360657093737 0 -1 0
115 1 2.871088031228983 50.478615775742284 2.4678256488784367 0 -1 0
10 1 7.476641702760595 48.64465591010145 1.0786523892133288 0 -1 0
12 1 9.444950053285526 50.35495712448193 2.3891870503457837 0 -1 0
13 1 14.059372824805214 48.56888956000124 0.5001375975136413 0 -1 0
14 1 15.541868682670666 50.50210255569732 2.0097944643379058 0 -1 0
761 1 20.325225561454783 48.74029648983769 0.9354276714937821 0 -1 0
850 1 21.982962538194094 50.551221986573196 2.2092106751354788 0 -1 0
763 1 28.593648019205236 49.94157354366932 2.4084893970258685 0 -1 0
765 1 33.23318636374685 48.87317380171865 0.6268452915620917 0 -1 0
116 1 0.8835971569798735 0.36329217088423094 4.065409377146595 0 0 0
120 1 2.9419940410991874 2.025017058702198 5.241969477583883 0 0 0
117 1 7.661776437324113 0.6435710116122472 3.893796368746642 0 0 0
208 1 9.513925872912523 2.35400379192466 5.393042639407185 0 0 0
118 1 14.309948649181388 0.9120683150708109 3.960473485899266 0 0 0
122 1 16.122697437115978 2.060608790298093 5.684921835146074 0 0 0
849 1 21.955329096629555 2.5104859080114523 5.870349255643257 0 0 0
848 1 20.49802910275614 0.609308006676677 4.1846058105614015 0 0 0
858 1 27.75986894993135 2.4887305851486037 5.53130515655769 0 0 0
851 1 26.697396815405295 0.52619043251308 3.783240855455345 0 0 0
853 1 33.07929981425399 0.7931004426681618 4.107781600419052 0 0 0
57 1 -0.11599356817465219 5.82275182729899 5.3268893908165635 0 0 0
119 1 4.242398621612556 3.9857537689870455 3.7102414893625535 0 0 0
212 1 6.004082274234543 5.336615767504266 5.482376676200211 0 0 0
121 1 11.076942789773753 3.9893750111139132 4.110606698180526 0 0 0
123 1 17.446342698885907 3.951570502473489 4.411057227868545 0 0 0
964 1 18.961959355998733 5.592279553127401 6.065247995068349 0 0 0
855 1 23.693580291731706 3.7600713886816353 4.0900723108725545 0 0 0
857 1 25.44747241620663 5.685752473057579 5.5495151642167215 0 0 0
860 1 29.80952324431621 3.9750895315974635 4.045068382637357 0 0 0
937 1 31.575902353101494 5.589448394519623 5.6234149684766255 0 0 0
126 1 1.4649156706411575 7.116229760104137 3.961069926203047 0 0 0
127 1 2.830330577315186 8.77592665497516 5.6000119483339095 0 0 0
128 1 7.732951511726219 7.133310804027258 4.161318872549823 0 0 0
134 1 9.480328976855636 8.750148486808689 5.7546189317111365 0 0 0
129 1 14.109883994892604 7.101416354997826 4.296449814750664 0 0 0
130 1 15.885546278188745 8.923790177211828 5.884270738246256 0 0 0
861 1 20.321976242632257 6.820489700904354 4.124634841258799 0 0 0
867 1 22.136862739645625 8.515063127512557 5.555981691248405 0 0 0
863 1 26.796716208717573 7.2673406017441335 4.095615501726574 0 0 0
941 1 28.53866117791012 8.798167258586625 5.786671139914227 0 0 0
864 1 33.41508210535882 7.275151627331849 4.1471851065470515 0 0 0
38 1 -0.16945765397867177 27.984627858985217 8.93959756764505 0 0 0
131 1 4.241818765790342 10.661460523247285 4.276823210456437 0 0 0
236 1 5.9158832103254975 12.228218853505405 5.817023868333959 0 0 0
133 1 11.098834167843819 10.212813551825212 3.9652213324812458 0 0 0
230 1 12.43844591967848 12.056019214617464 5.713069686555368 0 0 0
135 1 17.490474126223436 9.949944366101786 4.041206529681243 0 0 0
898 1 19.211649918824005 11.475585442100948 5.705345151495542 0 0 0
868 1 23.7405735154149 10.371407694569115 3.9860587038291175 0 0 0
869 1 25.183303440084668 11.669566159328337 6.013987142758388 0 0 0
870 1 30.041988390453238 10.442935410998667 3.883078762581537 0 0 0
947 1 31.907804881438935 12.147691519479412 5.5882350472422955 0 0 0
136 1 1.4158692389561134 13.417533555452524 4.416348684758796 0 0 0
139 1 7.654523673562456 13.680253735221044 4.46812190141612 0 0 0
245 1 9.4746596911862 15.230716540307062 5.723370053378744 0 0 0
140 1 14.094345379283034 13.513934506190985 3.833790297546383 0 0 0
239 1 15.689836843598057 14.67639954668737 5.790612781520698 0 0 0
871 1 20.480686166532422 13.628849681502638 4.11774241584357 0 0 0
950 1 21.935122602797207 14.822958338083188 5.729610764275256 0 0 0
872 1 26.731159935043944 13.480124057432441 4.385691973537272 0 0 0
874 1 28.474912898293088 15.227798707799803 5.528821736983621 0 0 0
875 1 33.16547315949836 13.69744688023582 3.991638172660757 0 0 0
137 1 2.639316668265278 15.440553666154042 5.9172956447914205 0 0 0
143 1 4.455352582035235 16.82416663934745 4.359324360075611 0 0 0
144 1 10.88163558389496 16.700744610545804 4.147660625160788 0 0 0
247 1 12.765347429514108 18.15917606932223 5.769068876556246 0 0 0
145 1 17.21178968833534 16.52923827852203 4.044877073246891 0 0 0
347 1 18.679974778059048 18.180125656088546 5.422742181457972 0 0 0
877 1 23.30606028532604 16.53734140505833 4.150391818828195 0 0 0
883 1 25.10540686269448 18.272094453818863 5.629650601533925 0 0 0
878 1 30.39372851554098 16.88598111388943 4.158365395184724 0 0 0
885 1 31.754060222622655 18.266624045492726 5.9125640043562795 0 0 0
146 1 1.412296365540996 20.05444637462152 3.870734633897995 0 0 0
124 1 -0.14940291292385427 18.47616256027045 5.610831073054561 0 0 0
254 1 2.9772829580115787 21.291218619077096 5.652851539199296 0 0 0
243 1 6.423248591193752 18.391205046512262 5.848678213233569 0 0 0
148 1 8.093767668854431 20.049045479287578 4.127802616282768 0 0 0
150 1 14.279809673831789 19.70320043156788 4.10653229789999 0 0 0
880 1 20.648169868008758 19.933978631121484 3.9628055765116486 0 0 0
882 1 26.994238655084235 19.774834617337447 4.168110525534901 0 0 0
961 1 28.681665799897626 21.24394789609793 5.642839109921151 0 0 0
884 1 33.18861156166568 19.475349494089404 4.175026372066394 0 0 0
1376 1 31.788068855588516 50.53973378685798 24.89786980776488 0 -1 0
152 1 4.660743261062025 22.990391982120798 4.301709602919046 0 0 0
256 1 9.624246512230135 21.47250754172698 5.7971621045483674 0 0 0
154 1 11.023167057120599 22.990380708636533 3.8718983521352834 0 0 0
261 1 15.603602129816258 21.42562602322717 5.615015046137731 0 0 0
155 1 17.269333447681717 22.888575973355767 4.189766630365137 0 0 0
824 1 18.984448112556475 24.375527816341666 5.585313500708049 0 0 0
954 1 22.443255755799225 21.533136571188397 5.588263099698072 0 0 0
886 1 24.12614331408536 23.23158137974762 3.827704790083429 0 0 0
888 1 30.198780773744847 22.876132735446784 3.9358688704138203 0 0 0
156 1 1.3747624525843296 25.8133567141666 4.123287622767787 0 0 0
157 1 6.302064323339861 24.66628502303928 5.939056286964275 0 0 0
158 1 7.652473906156125 26.117253962119538 3.889527519003134 0 0 0
162 1 12.436631045581517 24.78465639423751 5.770100049246868 0 0 0
161 1 14.040980114787304 26.0998128369767 4.077956205192726 0 0 0
889 1 20.784587052441978 26.120443353101592 4.158902726421191 0 0 0
960 1 25.216368930170052 24.817797757986863 5.887477355116061 0 0 0
892 1 27.154367171185974 26.308562344180213 3.952539336988731 0 0 0
968 1 31.36418707265886 24.87210988473887 5.407947985513158 0 0 0
893 1 33.122612513559424 26.503403712841138 4.144153887225302 0 0 0
265 1 2.6788634178075816 27.7296408220436 5.823752879435999 0 0 0
165 1 4.201313494946425 29.443783841354684 4.367381845378364 0 0 0
159 1 9.25839827324016 27.910667638609198 5.52124817638187 0 0 0
167 1 10.71982013402655 29.453711421166844 3.936064927224436 0 0 0
271 1 15.860319172844026 27.59150042510479 5.6156023177333845 0 0 0
169 1 17.364100747573993 29.279392480811484 3.8419270477671117 0 0 0
970 1 22.256770354914714 27.591670747337126 5.890146536119734 0 0 0
895 1 24.10894338076575 29.31930725971117 4.275940651230665 0 0 0
966 1 28.711738326053432 27.887288242494108 5.675291260749254 0 0 0
896 1 30.096220477512535 29.557362422299047 4.392828823009108 0 0 0
171 1 1.1404268782580103 32.47533282316972 4.162192069440184 0 0 0
267 1 6.138287394915306 31.08194231836919 5.78752113552356 0 0 0
173 1 7.6530549181666405 32.72530234507455 4.10897187851038 0 0 0
269 1 12.346720235366016 30.579867897463927 5.93160694907078 0 0 0
175 1 13.84236507879045 32.21321243820118 4.315813122132116 0 0 0
813 1 19.005027205341626 30.973338201009557 5.620027437634196 0 0 0
899 1 20.760191703907275 32.47789415791763 4.254181976519214 0 0 0
900 1 27.010640876827956 32.890964017597014 4.359990718218446 0 0 0
972 1 25.542214540960124 30.989578367716103 5.856684953937053 0 0 0
901 1 33.41221875280433 32.65293704515865 3.9658818403381018 0 0 0
897 1 31.580320338199684 31.372020010715982 5.770964062784672 0 0 0
272 1 3.1269632261316147 33.822789107753366 5.519293681951807 0 0 0
177 1 4.479541298323853 35.72618622568329 4.1513912088865705 0 0 0
174 1 9.41549661478585 34.243871557289665 5.430447291286077 0 0 0
179 1 11.047984278603224 35.92623989632489 3.9031653428136988 0 0 0
180 1 15.544043731792717 34.04998243473176 5.619579496291383 0 0 0
182 1 17.553100098272854 35.607708684449264 4.2908381318757245 0 0 0
903 1 21.93809221279429 33.88799516228259 6.100644567759984 0 0 0
904 1 23.71061247778507 35.6677952599706 4.778501192760594 0 0 0
981 1 28.354255118547144 34.6271992201566 5.971758883251605 0 0 0
907 1 29.863064454566643 35.911676091932875 4.112076819450457 0 0 0
184 1 0.7572474719521588 38.8113875856579 4.234555775524475 0 0 0
178 1 6.028265517882615 37.08964835472365 5.908788504824932 0 0 0
186 1 7.731361738994547 38.97701171728761 4.429185294697108 0 0 0
187 1 13.949030137928633 38.708850859658455 3.902785335319387 0 0 0
181 1 12.583554199652598 37.390282841175875 5.7306551927036695 0 0 0
693 1 18.745101796279418 37.46453234988981 5.72297532192753 0 0 0
908 1 20.68242533740657 38.81245930021217 4.0815853987911845 0 0 0
911 1 26.923021887645586 39.04257639650177 3.849797393870259 0 0 0
989 1 25.33561626398457 37.47279351903707 5.769707111454002 0 0 0
912 1 33.29464634910642 39.11616312642694 3.9953105506548754 0 0 0
984 1 31.730900576432518 37.50135602023663 5.58378400961365 0 0 0
185 1 2.7789761870988903 40.34854606997206 5.722940011875214 0 0 0
189 1 4.578554414495208 42.04466645655023 4.489898637295774 0 0 0
190 1 11.031007636603002 42.110004081526526 3.993892542473491 0 0 0
291 1 9.652891534082606 40.67136226696489 5.9203595935907956 0 0 0
188 1 15.664090017313146 40.3898134682496 5.8136656274911775 0 0 0
192 1 17.391268813277957 42.0955897318661 4.296289160290108 0 0 0
987 1 21.92373143340597 40.60362355765071 5.817215005438412 0 0 0
913 1 23.637984308913257 42.117190073788805 4.13657932671192 0 0 0
916 1 30.302676126325487 42.17538054271736 4.158430572572905 0 0 0
994 1 28.438827367846706 40.6492688267565 5.810275834338413 0 0 0
991 1 34.49949547805666 40.830211511970944 5.8571096309656445 0 0 0
104 1 1.2881382829480446 45.28706188114131 3.8626019930426985 0 -1 0
685 1 4.797855371715518 49.10376397794184 23.08872256844554 0 -1 0
106 1 6.299951721146115 43.855257536687105 5.979784644028115 0 -1 0
293 1 12.348517612110612 43.81709154013785 5.808898155606078 0 -1 0
109 1 13.849352597772713 45.458390083584504 4.041087572454617 0 -1 0
835 1 19.17206307116074 43.567930125456996 5.803323352431719 0 -1 0
838 1 25.020381963885917 43.78485908866439 5.547357341543183 0 -1 0
839 1 26.90050315489265 45.37459340625858 3.9672166392473542 0 -1 0
841 1 32.963624347593345 45.41791266404573 3.8840170892375783 0 -1 0
920 1 31.67739726583336 43.76755347509396 5.988732508092573 0 -1 0
199 1 2.7976641989874276 46.98114096305228 5.579224858924074 0 -1 0
107 1 7.443266001073491 45.7858047902815 4.019666335480014 0 -1 0
108 1 9.428133430256937 47.28603221672128 5.275491830086711 0 -1 0
197 1 15.574098286057529 46.901852529957566 5.788011233152886 0 -1 0
837 1 20.180439146805757 45.98678667696282 4.233562967732511 0 -1 0
843 1 21.965897672871822 47.53133183405593 5.719290865565103 0 -1 0
846 1 28.01882431676557 47.11921219046761 5.639140811996256 0 -1 0
921 1 34.56340008478798 46.848991423241515 5.596465648524187 0 -1 0
110 1 4.152947647696695 48.671267820012616 4.0110514906852925 0 -1 0
111 1 5.870092646271528 50.294222451519005 5.244915173988489 0 -1 0
112 1 11.25371496493889 49.032057098176296 4.027641066437034 0 -1 0
113 1 13.067543433124241 50.68642346962761 5.749341968931052 0 -1 0
114 1 16.98216834244694 49.00890805831952 4.278016368785622 0 -1 0
739 1 18.72372635456699 50.46037534143498 5.824179037442471 0 -1 0
844 1 23.705332208706196 49.107459769860654 3.7487554271447783 0 -1 0
845 1 25.052710274070808 50.839472347686254 5.584694917852938 0 -1 0
847 1 30.045134890295667 48.566642341302796 4.258503797951989 0 -1 0
852 1 31.425190339395616 50.538623496382 5.783874645541889 0 -1 0
2820 1 34.728036776870816 24.88928826351222 2.5258010880134454 0 0 0
311 1 6.05071015471493 2.3356148891810267 8.48504786528819 0 0 0
207 1 4.531606415734296 0.8525477558490392 6.709537370994807 0 0 0
217 1 12.420962847729484 2.130291863432338 9.079984812988783 0 0 0
209 1 11.095782187135688 0.6062925671767623 7.598973551517742 0 0 0
210 1 17.360986620894852 0.7232228337067459 7.613181331877455 0 0 0
854 1 19.014117897700324 2.192587830545219 9.199526199080347 0 0 0
1017 1 24.90754466285971 2.1498524991576278 8.749122696564738 0 0 0
926 1 23.0759500402211 0.591568235493685 7.358809712921872 0 0 0
928 1 29.98984967398801 0.9232944298285577 7.439164048497934 0 0 0
929 1 31.79133380060214 2.154765705471656 9.059357200244383 0 0 0
211 1 1.3723191519733429 3.781082825097496 6.927286904088632 0 0 0
219 1 3.042753205190734 5.564701377805364 8.184677104345855 0 0 0
213 1 7.741044857354699 3.9507120388052117 7.011136144618123 0 0 0
214 1 9.441536415135104 5.354652269633927 8.84089808048515 0 0 0
216 1 14.522914227098331 3.583601569074037 7.450040083371995 0 0 0
215 1 12.689694542550903 5.127490160349527 6.285133983784703 0 0 0
325 1 16.145237348095154 5.129571277188884 8.943979122367663 0 0 0
930 1 20.37267133948791 3.9554165205766845 7.651564312930169 0 0 0
931 1 22.141069714638093 5.7956379706448065 9.035184567030177 0 0 0
932 1 26.76319043125488 3.7036094662285857 7.378022728050271 0 0 0
933 1 28.420136946786528 5.246713517147373 8.945933244031362 0 0 0
934 1 33.2876306077468 3.9704862384175463 7.204262303148796 0 0 0
206 1 -0.02385298642121539 8.881057734603557 8.809297889812107 0 0 0
220 1 4.668253608440563 7.216257738212893 7.107284065722843 0 0 0
221 1 6.43479796999281 8.681840950656836 9.175511350428426 0 0 0
222 1 11.05243875781195 7.043701745764816 7.229399534262683 0 0 0
223 1 12.48803120731238 8.781010334251825 9.045432250909238 0 0 0
225 1 17.158589843356275 7.328161184273441 7.466470454667304 0 0 0
1351 1 18.910698118326934 8.772159939403481 9.274494367500447 0 0 0
935 1 23.70524688079262 7.109781531728391 7.186802742128619 0 0 0
936 1 25.57609083627741 8.586877883344654 8.684879060574064 0 0 0
938 1 30.101976379063434 6.916670922289294 7.321416696604779 0 0 0
1025 1 31.770293471186996 8.548594719543313 8.797330700675722 0 0 0
227 1 1.5465782956532208 10.43344161616904 7.514051015319358 0 0 0
332 1 3.040320661718751 11.960956768583408 9.094359895362226 0 0 0
228 1 7.711249076193628 10.426113044583902 7.194076251921443 0 0 0
229 1 9.014095662793391 12.132841542527746 8.86920757764774 0 0 0
231 1 14.16347983161753 10.32840083425886 7.5011910554846315 0 0 0
232 1 15.793833243169487 12.228081576599093 9.089483138958744 0 0 0
939 1 20.832149632662777 9.87090224663919 7.824616693946508 0 0 0
944 1 22.33523855183485 11.708695006025271 9.261612719808035 0 0 0
940 1 27.25316779926065 10.373515101182212 7.347942287234133 0 0 0
1029 1 28.546061516354833 12.0977269857249 8.941633083340866 0 0 0
942 1 33.41869868671368 10.451650462231212 7.4927169463789065 0 0 0
1319 1 30.17914039550954 48.921664777449166 23.278797869648017 0 -1 0
235 1 4.226651076522658 13.73473197421282 7.405309909398473 0 0 0
237 1 10.858797380161697 13.82561535906858 7.5500044744426065 0 0 0
238 1 17.74743891564893 13.036784086046792 7.214720263799165 0 0 0
826 1 19.325759395010028 14.889356465683877 8.671786421115453 0 0 0
943 1 23.564069879493896 13.370962452970932 7.200728505516406 0 0 0
945 1 25.025918431620966 15.221223391659073 8.60402291368965 0 0 0
946 1 30.17761244022097 13.695221353710766 7.196244421613387 0 0 0
948 1 31.878092115032175 15.128057821135787 8.63413604361432 0 0 0
241 1 0.9885796878859958 16.93148358528017 7.552035717096412 0 0 0
338 1 6.093703813310505 15.363400576163597 9.050616661237841 0 0 0
337 1 3.097230009401333 17.89704733750313 9.328611848718362 0 0 0
244 1 8.079782627373136 17.00133802217041 7.5697210175477805 0 0 0
334 1 12.706907002039074 15.577887663141507 8.905381130809188 0 0 0
246 1 14.361458576495378 16.68368089056657 7.23427938048383 0 0 0
252 1 16.06278606755736 18.286386569008208 8.530829721201814 0 0 0
949 1 20.480520231819114 16.72117346969823 7.120813075068148 0 0 0
951 1 26.73646169193221 16.716814881734983 7.28530865119722 0 0 0
952 1 28.258079117729473 17.863991496459793 8.932032135534573 0 0 0
953 1 33.67765413657836 16.53550100324833 7.305482990894492 0 0 0
250 1 4.640912023165636 19.847641112136873 7.79674666119111 0 0 0
251 1 11.149875605885093 19.613582635388994 7.307416474919202 0 0 0
344 1 9.766873626027133 18.38824344669433 9.299088313636547 0 0 0
253 1 17.6027288040803 19.977737722045788 7.154384439809813 0 0 0
1034 1 22.093360702023112 18.3940875749417 8.637958430928434 0 0 0
955 1 23.99024831852402 19.986490169660943 7.289861929490607 0 0 0
957 1 29.95347489346908 19.87253905536252 7.497313565477724 0 0 0
255 1 1.5782656428320758 22.945326816396634 7.206417999664107 0 0 0
258 1 6.391918123791854 21.57302542752804 9.062781289140288 0 0 0
257 1 7.833904789314918 23.213340879330687 7.519843579855727 0 0 0
345 1 12.686197925773083 21.59998009094143 8.852609240316381 0 0 0
259 1 13.991550523851284 23.22979625488258 7.077794288354124 0 0 0
809 1 19.307740516807414 21.68742983025664 8.672299610279422 0 0 0
959 1 20.765786684595586 22.989362688498797 7.04221318206005 0 0 0
956 1 25.696213816665775 21.404689851898006 8.686137565700076 0 0 0
962 1 27.0073955177507 23.08120683773884 7.165757819263884 0 0 0
1048 1 31.626047569494283 21.622877205359046 8.3706385469999 0 0 0
963 1 33.14083838561247 23.034726371712672 6.637275315990497 0 0 0
348 1 2.911306318946861 24.63466485515113 9.03364048365181 0 0 0
262 1 4.4737788915204755 26.355526258243835 7.386187233160194 0 0 0
351 1 9.242039633972542 24.895162692127798 8.941546335098932 0 0 0
263 1 10.911949650421045 26.447239120726135 7.181392729325457 0 0 0
260 1 15.979843410481376 24.62634221958518 8.72067886768586 0 0 0
264 1 17.68621286604763 26.182101480490314 7.092907641551227 0 0 0
1044 1 21.93504935082378 24.407040616302286 9.125816993325776 0 0 0
965 1 23.754454399914003 26.231092289555374 7.8485457800975915 0 0 0