LAMMPS data file via write_data, version 29 Oct 2020, timestep = 200000

4608 atoms
1 atom types

-0.043956151694384715 57.31446615169519 xlo xhi
-0.039072134840829165 50.94619213483966 ylo yhi
-0.039072134840829165 50.94619213483966 zlo zhi

Masses

1 18.015

Atoms # atomic

740 1 17.421121938793334 49.281955982283506 23.97197607845248 0 0 0
29 1 4.537019581548669 1.0432585212304715 1.2815468410720994 0 0 0
103 1 0.359277922969482 19.19369158452161 19.61437754049576 0 0 0
285 1 10.999040779511178 1.4886774288293483 1.65338710127875 0 0 0
538 1 12.612325016923204 3.2259543188173403 2.9679493365753404 0 0 0
95 1 0.1649544129054774 12.410830706871632 0.04913061889208889 0 0 0
541 1 17.25691994783444 1.3919199822447212 1.5328069939350346 0 0 0
30 1 1.5827965066219094 5.014932672862013 1.5392118580971572 0 0 0
224 1 2.8835311107798183 41.22233883985246 0.025803039483717413 0 0 0
286 1 7.686944760002457 4.589087562960245 1.710226283364714 0 0 0
282 1 6.093846684071113 2.853265186300779 2.7702907391098166 0 0 0
313 1 9.649493364337836 6.294384022418382 3.016926003177847 0 0 0
542 1 14.250413219014355 4.5135429235210305 1.1334043658360733 0 0 0
569 1 15.728570935518523 6.441098870521543 2.638643611617747 0 0 0
10 1 -0.0027288534302272183 3.318403834633049 15.566100712615546 0 0 0
61 1 4.809664011268998 7.700029081020351 1.344093377104619 0 0 0
314 1 6.189758368720587 9.67297618702364 2.904244324503114 0 0 0
317 1 11.212438213232389 7.7994687720741105 1.399971053182158 0 0 0
570 1 12.962891981110657 9.339706461107959 2.839549345936914 0 0 0
159 1 0.05787888645429842 25.39070781443079 0.22513137607993422 0 0 0
573 1 17.291155495352747 7.943376913496241 1.434764964527197 0 0 0
484 1 11.00155790363408 49.23361605548577 23.697812078748527 0 0 0
62 1 1.5538532005254542 10.605666294052396 1.7813351640433241 0 0 0
250 1 0.10945367073972162 47.612645876994705 3.0292790232671902 0 0 0
318 1 7.719529794611209 11.302086886199005 1.4998451425874233 0 0 0
167 1 0.08043346376302483 31.461900182918036 19.585213024432424 0 0 0
574 1 14.181883123603722 11.26717104884734 1.5350215401765122 0 0 0
601 1 15.935454552773747 12.571729441183152 3.325672256140532 0 0 0
74 1 0.34151373157054954 15.981759085792934 16.138919328175863 0 0 0
89 1 3.0809594047615714 12.606184784681512 2.7970489638455374 0 0 0
93 1 4.668838620439158 14.444296984850979 1.9618161311516435 0 0 0
349 1 11.172088492384258 14.045138097564474 1.6526839250997858 0 0 0
345 1 9.347239053015212 12.73755309236488 3.2006077750821773 0 0 0
602 1 12.860132248609638 15.874670554813836 2.8024882581474997 0 0 0
605 1 17.747957234081554 13.944631109540538 1.334314822252065 0 0 0
7 1 0.1889202930932373 50.88407488235428 19.31484924645027 0 -1 0
94 1 1.4313907309946654 17.22091911121593 1.5630113138037276 0 0 0
178 1 0.0632197388844533 35.10396993351648 9.54816843534967 0 0 0
350 1 8.186515467949492 17.554874533154656 1.8454988316953893 0 0 0
1567 1 18.941809518299188 50.87427939240295 0.25888836174845603 0 -1 0
606 1 14.51486699926353 17.434267981083362 1.3746067136647018 0 0 0
633 1 15.89915061834453 18.66938492853405 3.3004963431188847 0 0 0
47 1 0.3305225502172177 5.928430949994738 12.742296344509668 0 0 0
125 1 4.791031827206151 20.460240053263817 1.7806296988897805 0 0 0
121 1 2.7629042760518265 19.058294224978788 2.947244748790003 0 0 0
381 1 11.281275731786952 20.593798827132265 1.5321898613668257 0 0 0
377 1 9.589100398684494 19.212317684582157 3.3560170435459997 0 0 0
637 1 17.88753229614351 20.366810934661938 1.6461226010357697 0 0 0
126 1 1.451452220402578 23.619863555922358 1.8816952094397195 0 0 0
382 1 7.7271550760570245 23.797533198339433 1.583309794948994 0 0 0
409 1 9.706789299797308 25.470866776122623 3.0650693930611967 0 0 0
634 1 12.629763499000164 22.366192959269007 3.1329890962059537 0 0 0
638 1 14.209259991509605 23.83398883366851 1.3077696686473497 0 0 0
157 1 4.837075992515792 27.096814974282164 1.2800201796510289 0 0 0
2 1 0.40473950818434923 3.159635883399595 22.10148075628463 0 0 0
413 1 10.919921887600742 26.76527791504267 1.1162234142909295 0 0 0
87 1 0.11652737584563011 13.006944910058621 5.946031916235069 0 0 0
669 1 17.516012709288532 26.611543837700346 1.5123776054748328 0 0 0
158 1 1.710602226977942 29.992543323759076 1.2938579754102073 0 0 0
98 1 0.16985209349618519 22.202382797708484 22.719950050405377 0 0 0
414 1 7.928473139366678 29.99301069592969 1.3642625156551749 0 0 0
119 1 0.01585597533616126 19.1812734274445 6.565027232300272 0 0 0
670 1 14.155441737849054 30.159368060937837 1.547044164337046 0 0 0
1120 1 9.615772364086066 15.838513642100846 25.125480857496935 0 0 0
185 1 3.3396703203513822 31.413416552173608 3.2820918147336435 0 0 0
189 1 4.438362210356412 33.50924736867986 1.7300492778423864 0 0 0
445 1 11.068478899657672 33.3442916585401 1.054706590563349 0 0 0
26 1 0.07044682090475242 3.040602907974357 2.6410739721499175 0 0 0
697 1 15.914264820320467 31.585942729847886 3.1454055045662357 0 0 0
701 1 17.601488855359143 33.249635504410485 1.6419316799453068 0 0 0
190 1 1.0287294273936556 36.62704517374594 1.5729257933130611 0 0 0
228 1 4.646465339813684 49.02093020246739 24.034599350384756 0 0 0
66 1 0.21509297160724083 15.44301975828214 22.269386607422614 0 0 0
446 1 7.381530835505915 36.67461092583342 1.2727610474382347 0 0 0
702 1 14.455532540041904 36.443658536402076 1.6992463349590343 0 0 0
447 1 6.386239737256907 31.86210565589471 0.24901327941548146 0 0 0
1472 1 15.92645731935013 34.97609143139078 25.257337371590843 0 0 0
170 1 0.49583564607981256 35.32254182627577 16.0735587484155 0 0 0
221 1 4.412869125255306 39.71039428143028 1.499062717063154 0 0 0
477 1 11.104829737561564 39.234423026687566 1.7299879877894044 0 0 0
730 1 12.563756532034056 41.105028542762696 3.1675240493826236 0 0 0
143 1 0.09593939310712096 25.92422120879689 12.97459483657902 0 0 0
733 1 17.869397044055106 39.80347683332559 1.5616139621062932 0 0 0
218 1 0.1409977179839359 41.2513737883336 3.0876711190957535 0 0 0
222 1 1.5625341831357948 42.94872683693887 1.714176622383765 0 0 0
512 1 9.435541389694635 47.81840700402342 0.049984383648618236 0 0 0
478 1 7.769771286208346 42.62531794781343 1.4323001888074314 0 0 0
505 1 9.376959689324385 44.460691784945375 2.8002687014751224 0 0 0
734 1 14.211324567133179 42.63048248273784 1.7436436732451408 0 0 0
739 1 14.156762629894704 45.69017059101118 23.923792489538627 0 0 0
242 1 0.07898511976967582 47.93092016718264 9.91434227813221 0 0 0
253 1 4.665639369600873 46.03285588284141 1.7579926546849107 0 0 0
506 1 6.230793067776665 47.66625888153517 3.4218996042814904 0 0 0
509 1 11.185103684485082 46.10164200782604 1.1656257762230449 0 0 0
762 1 12.71462084657556 47.48183039320919 2.7990721989427607 0 0 0
175 1 0.11974664999550905 32.26618553519866 13.029535497945274 0 0 0
765 1 17.459578141216454 45.850202040518475 1.426728284958731 0 0 0
761 1 16.099728925899115 44.058997218991024 3.4271162099817167 0 0 0
483 1 7.535884853537405 45.945858860402176 23.898608971388867 0 0 0
254 1 1.8670526779119996 48.89902312953647 1.5794471044074812 0 0 0
281 1 9.404115094682298 0.19540290970416005 3.452028594626025 0 0 0
510 1 7.793799138124204 49.585329126121856 2.0216277694554012 0 0 0
766 1 14.132787594323533 49.498415439325825 1.7937709010108025 0 0 0
27 1 1.5165503976380599 1.2413186660267004 4.486029377466479 0 0 0
25 1 3.432171894485136 50.54253406924712 3.164789023288712 0 -1 0
279 1 6.51369805780951 50.92815831110656 6.597016640058897 0 -1 0
283 1 7.653666723689394 1.7386021328158805 4.6426341116579 0 0 0
280 1 9.632725950814551 3.2344395310351177 5.894784757196409 0 0 0
539 1 14.04100756195228 1.4121455207205553 4.663992664912976 0 0 0
28 1 4.372976637446225 4.615621599987278 4.6340444759820425 0 0 0
311 1 6.085096854532529 6.233827073794999 5.8642975757871945 0 0 0
284 1 11.452965392481916 4.975355121480751 4.650585506623814 0 0 0
567 1 13.261486159968284 6.624880416886513 6.367248295952276 0 0 0
540 1 17.164655930210586 4.952273821313299 4.900228150294466 0 0 0
57 1 3.094868052182734 6.417680818564576 3.095334486155471 0 0 0
59 1 1.1131930568266186 7.563460952748694 4.6882432981232265 0 0 0
315 1 7.871537745565406 7.842919629814683 4.517132470883801 0 0 0
571 1 14.500255797936958 8.110631245238077 4.583614474668246 0 0 0
60 1 4.462165856182293 11.175322352269697 4.334114717462124 0 0 0
56 1 3.1655665739222143 9.22032323172416 5.861360499202892 0 0 0
316 1 11.276710495447283 11.178932997765793 4.733308360866941 0 0 0
568 1 16.307700044579022 9.255810813307278 6.303016671056545 0 0 0
572 1 17.627472000240193 11.1412391142592 5.032879699653213 0 0 0
151 1 0.08321579491761014 25.623328703505294 6.229142716450703 0 0 0
39 1 0.22168539589049208 6.270791690638173 18.84891487865424 0 0 0
91 1 1.6928104919482836 14.296637813655492 4.58420916964363 0 0 0
88 1 3.0542298644345482 15.9514780340809 6.218355251105199 0 0 0
347 1 7.942504544489082 14.3136688743146 4.783872139151176 0 0 0
603 1 14.300776581204785 14.281867756155577 4.918607655539153 0 0 0
600 1 16.071242847287948 16.09890887189793 6.501782231061588 0 0 0
92 1 4.461587697158437 17.8314943743154 4.899038483434964 0 0 0
346 1 6.298931958180185 16.26083637699212 3.2186703301202964 0 0 0
348 1 11.298537814050805 17.38416025241841 4.588348427903091 0 0 0
344 1 9.684768760622637 15.925775299068038 6.372509817063597 0 0 0
604 1 17.67147428834981 17.122060285496474 4.664111274042216 0 0 0
123 1 1.643907581982242 20.57950247038039 5.038155672461106 0 0 0
120 1 2.8637749082714357 22.59660273505243 6.534710498744637 0 0 0
378 1 6.218009560625788 22.269691598639024 3.3309884683951654 0 0 0
379 1 7.864306205144405 20.84145386737423 5.08977738816683 0 0 0
635 1 14.285283435341368 20.67562132862724 4.4573019919575465 0 0 0
1087 1 6.402807542089351 6.610529164245522 25.323742978450497 0 0 0
153 1 3.2122601152642885 25.358776241709688 3.111373857730267 0 0 0
124 1 4.674496661822128 23.9761669221154 4.981298214740845 0 0 0
380 1 11.081974805679245 23.853106056015136 4.770253859096597 0 0 0
636 1 17.393605348514875 23.682101592989778 4.6677710767098795 0 0 0
155 1 1.6403451636587043 27.1969940777708 4.494138220247922 0 0 0
410 1 6.403217276015055 28.706022150571528 3.145225991542492 0 0 0
411 1 8.302264866292843 27.191608986762386 4.750453959554249 0 0 0
666 1 12.569778619640957 28.080303392255136 2.911783120831312 0 0 0
667 1 14.470205016518708 26.84677596528098 4.729245883266923 0 0 0
665 1 15.718855072252884 25.019323329331165 3.1362199370009525 0 0 0
156 1 4.879286318056495 30.124348398481455 4.923852052295424 0 0 0
441 1 9.607744517250447 31.802984599602272 2.9406372058170356 0 0 0
412 1 11.223092123590819 30.124337157986464 4.495298533164089 0 0 0
668 1 17.450980720908127 30.022830327978475 4.812236651948076 0 0 0
187 1 1.6029210840074817 32.93905245309974 4.74595217800234 0 0 0
439 1 6.5158044780186435 31.795337371114336 6.556407464017304 0 0 0
443 1 7.862262435853037 33.2420604242195 4.512876112827055 0 0 0
440 1 9.463487479911013 35.03022613862936 6.139821960996201 0 0 0
698 1 12.588008446407656 34.85641246241121 3.289601136124009 0 0 0
699 1 14.232074330514312 33.22467033602778 4.700753411116571 0 0 0
695 1 12.632419974632443 31.913362359057714 6.387945633105949 0 0 0
217 1 2.7799396664203933 37.96529379444463 3.1345880986118226 0 0 0
442 1 6.437797651746384 34.852255814049435 2.9959010022771753 0 0 0
188 1 4.421200954531802 36.558856072641476 4.989332121893188 0 0 0
473 1 9.092918937538292 37.994565541283514 2.980485243171693 0 0 0
444 1 10.920632866946562 36.568754601954176 4.5592773413384595 0 0 0
729 1 15.960313472532768 38.206976311218995 3.2773468514943276 0 0 0
700 1 17.545470708765063 36.39494576097036 4.465414932079924 0 0 0
227 1 1.2508158589998617 45.967735590716316 23.684080600049786 0 0 0
219 1 1.3692712322362497 39.58153400907823 4.78474278085643 0 0 0
474 1 6.2972322623754025 41.24547369924362 3.18056522255266 0 0 0
475 1 7.862841747682024 39.8307720597166 4.731678325074128 0 0 0
472 1 9.620126113721604 41.34489757121329 6.049286781246555 0 0 0
731 1 14.03404049013935 39.32018065173725 4.937914301200957 0 0 0
249 1 2.970548818692369 44.496484380941986 3.272728751571131 0 0 0
220 1 4.698614596078052 42.822874628447195 4.773973526232206 0 0 0
503 1 6.242806874073168 44.18234693760227 6.52622825272696 0 0 0
476 1 11.247836723882587 43.02234289367203 4.526474029067099 0 0 0
728 1 15.73073961992031 41.151575815109325 6.237865539685837 0 0 0
759 1 12.778913196026616 44.48210169484721 6.348616201751297 0 0 0
732 1 17.733917001662743 42.70474378114574 4.913012393805047 0 0 0
480 1 9.672272835267977 40.9949930061044 0.2250687747864843 0 0 0
251 1 0.9872131015298513 45.89904794320962 4.856894733238305 0 0 0
248 1 3.003025749582044 47.43170833010214 6.3409235974067615 0 0 0
507 1 7.9409194238167595 46.064187418580275 5.050954719374704 0 0 0
763 1 14.14039342152217 45.79681126446583 4.526095133566692 0 0 0
760 1 15.850434620980879 47.47285496999187 6.431383727933482 0 0 0
252 1 4.7973379759289765 49.12286545829115 5.111490400051585 0 0 0
508 1 11.230909759641612 49.18801188957432 4.616935739001983 0 0 0
537 1 15.99849866820131 50.69750089064576 3.2788586796272705 0 -1 0
764 1 17.572559274139977 49.17363971978643 4.918447471192228 0 0 0
21 1 4.7728458087992545 1.443896437145653 8.037958046899794 0 0 0
273 1 9.846432665163196 0.13483496790356095 9.489193011272523 0 0 0
277 1 11.003339717837546 1.7556426978946218 7.664756042570143 0 0 0
533 1 17.620258333019528 1.285235928900737 7.853591063101587 0 0 0
536 1 15.760706227292271 2.8513840469327056 6.40580440455681 0 0 0
22 1 1.4633277539232254 4.687547405049039 7.781412261709153 0 0 0
24 1 3.021659075828781 2.930440462901898 6.197628989745287 0 0 0
49 1 3.3508681115819035 6.526177478187157 8.994321025987515 0 0 0
274 1 6.462603132668683 3.0554266637634715 9.573387382467219 0 0 0
278 1 7.728472798161469 4.553822383504972 7.800044078117634 0 0 0
305 1 9.526403323855831 6.004920040079399 9.467149798074823 0 0 0
534 1 14.43799056647465 4.222150036977376 8.18313555157883 0 0 0
561 1 15.928602130553253 6.142624458006148 9.725653490246954 0 0 0
82 1 0.20839833197553054 16.056301474748903 9.418250045881694 0 0 0
53 1 4.750527358364758 8.051284857565335 7.324633934085334 0 0 0
312 1 9.718267344037008 9.54834727021361 6.0119915844237175 0 0 0
309 1 11.295494764176786 7.805750271122676 8.211467409270556 0 0 0
565 1 17.542365694774222 7.922338371416294 8.225633614227995 0 0 0
54 1 1.600484933084918 10.971250325053568 7.541746279390899 0 0 0
343 1 6.218694396443976 12.522231401926797 6.1010642082233435 0 0 0
310 1 7.95057420703098 11.140383162663062 7.625350156767605 0 0 0
337 1 9.64608971531777 12.540215124889604 9.449757766755749 0 0 0
599 1 12.884742946615644 12.31371774686649 6.901472453810887 0 0 0
566 1 14.712598187075544 10.774346946937325 8.062969756464895 0 0 0
562 1 12.616797625715858 9.325289976919317 9.688144873666596 0 0 0
207 1 -0.019498567544296064 38.22126409005216 12.74768385964547 0 0 0
81 1 3.266030892334997 12.74964957857873 8.795457051873257 0 0 0
85 1 4.8867746883426095 14.396373085713574 7.721216725805383 0 0 0
338 1 6.648149713924818 15.85766764728402 9.783391877358822 0 0 0
341 1 11.252278168208274 14.224322033824548 7.842974854955396 0 0 0
594 1 12.683669727060458 15.956546837283327 9.653693420738842 0 0 0
737 1 16.020700876898342 44.327827208636975 22.572109768423115 0 0 0
597 1 17.340561179147297 14.507949075230231 8.079352048521134 0 0 0
708 1 17.65816100973943 42.812068077464886 24.373492216098768 0 0 0
86 1 1.7742341523727134 17.60414270569563 8.126793376947345 0 0 0
342 1 7.920865615530436 17.596835579283006 7.8077549370797374 0 0 0
369 1 9.219899757976869 19.298569776937608 9.477984423484068 0 0 0
631 1 12.634229537968535 19.221972249735696 6.331082155046218 0 0 0
598 1 14.354215583551209 17.499409298513555 8.113971048464895 0 0 0
625 1 15.979798186784368 19.39353111563883 9.697615405238258 0 0 0
959 1 0.14222100500910048 31.983709747360656 25.252660021253735 0 0 0
1786 1 18.96132123795633 47.52205804210631 3.2371380645323344 0 0 0
117 1 4.446464392217118 20.89577268986651 8.018370473797392 0 0 0
375 1 6.130753424323301 19.393667990840846 6.434732141751849 0 0 0
373 1 11.059203432052884 20.98639012796291 8.162641627555608 0 0 0
629 1 17.92768713666491 20.199867165991776 7.828338539587154 0 0 0
632 1 15.876106105826093 21.83468471531894 6.408398340164657 0 0 0
1738 1 18.817872350445526 41.17462831148544 15.969654184650942 0 0 0
118 1 1.2178683834615016 24.083169832713892 8.16466692630172 0 0 0
128 1 3.2063913483639004 22.286579918238804 0.3513686608649397 0 0 0
407 1 6.636634131400885 25.538619795975894 6.46629385838387 0 0 0
374 1 8.288320748424606 24.15281985863018 8.182300475287757 0 0 0
376 1 9.679116064653588 22.38737964337666 6.3413523805050716 0 0 0
630 1 14.551614994748562 23.836092268606475 7.847840421566645 0 0 0
663 1 12.96017445493843 25.30726979167916 6.386917477875874 0 0 0
1666 1 18.61120983098309 28.776745791801073 22.468928762511936 0 0 0
481 1 9.507593389995842 44.6519628371748 22.485509374258847 0 0 0
149 1 4.859513111157807 26.990793977490046 8.408661787001028 0 0 0
405 1 11.349429892502181 26.757420412444684 7.9207634991783475 0 0 0
657 1 16.24796399017216 25.434108042682432 9.140596742469336 0 0 0
661 1 17.783400481874825 27.120509893262682 7.768179272808387 0 0 0
152 1 3.200752226930483 28.43014722757567 6.271040220550837 0 0 0
150 1 1.8058287747114277 30.079415104330803 7.820060569884317 0 0 0
408 1 9.82826515848773 28.610905655000302 6.414928498289761 0 0 0
406 1 8.043162408375908 30.346644893304873 8.132568991039458 0 0 0
402 1 6.605395344523011 28.711129401161674 9.670991691488888 0 0 0
662 1 14.182789382513864 30.363052116450664 7.6918132426565045 0 0 0
689 1 16.16526404336921 31.755511449961137 9.329890344442866 0 0 0
664 1 15.790123735669374 28.56416132315892 6.233314446217081 0 0 0
181 1 4.69286905147007 33.479635477989895 7.9993037551336865 0 0 0
437 1 11.112200165916764 33.57107996646036 7.795108529538321 0 0 0
693 1 17.866640249289603 33.3067181830702 7.706882370527453 0 0 0
184 1 2.9032059344618424 34.849729050299636 6.441441462139972 0 0 0
182 1 1.7868125163203363 36.55253067685326 8.071786933648442 0 0 0
471 1 6.352506800489352 38.19222090182957 6.405315741071867 0 0 0
438 1 7.932513167307161 36.61106992312588 7.914067383296602 0 0 0
727 1 12.54277226518878 37.69161567208515 6.548979924687416 0 0 0
694 1 14.21370816939826 36.297118052666775 7.850769937384806 0 0 0
696 1 16.046089562553032 34.71199288556776 6.233899999314158 0 0 0
216 1 3.349994494391664 40.925047310748326 6.137873185889064 0 0 0
213 1 4.8490247138334945 39.56006154406687 8.106009014280897 0 0 0
466 1 6.4495967617555925 41.074275960757916 9.52736313746132 0 0 0
469 1 11.054496570860797 39.76500124331813 8.018992358942908 0 0 0
725 1 17.335723897844083 39.63472982611814 7.765188142991585 0 0 0
214 1 1.61020183051801 42.730194930862226 7.989456987070856 0 0 0
241 1 3.0406365213109137 44.370170259470505 9.707085367761925 0 0 0
470 1 8.062537687527799 42.6208722301366 8.080696050966997 0 0 0
726 1 14.183715640164978 42.79585584176184 7.96097409516277 0 0 0
753 1 15.671912559030009 44.45556117988994 9.459478163500581 0 0 0
452 1 10.781195343523308 42.79880567068242 23.932542593522665 0 0 0
245 1 4.583374056846551 45.80479516216788 7.934144065280176 0 0 0
498 1 6.329873993892371 47.69637995340832 9.364609590806491 0 0 0
501 1 11.06083512027731 45.93731932349557 7.863464493997209 0 0 0
754 1 12.744824662869688 47.39016351327149 9.448382325793181 0 0 0
757 1 17.373938352781444 46.08707861875191 8.206039727245726 0 0 0
196 1 4.332671146828729 43.02895027572229 23.823371566272357 0 0 0
246 1 1.4641802469691028 49.40392971519341 7.968891827017126 0 0 0
17 1 2.981048282484963 50.89363820803533 9.290298772475632 0 -1 0
504 1 9.856826358079632 47.75357988884094 6.537765481689165 0 0 0
502 1 8.293766402874969 49.186402650641895 8.073186993939135 0 0 0
535 1 12.544564382374748 50.89010399749439 6.4266302068241625 0 -1 0
758 1 14.189186934111573 49.037836880280345 7.839951631631936 0 0 0
529 1 15.822067353288727 50.6945038223999 9.307332801054343 0 -1 0
225 1 2.833958981794386 44.75948993796236 21.847447336942317 0 0 0
19 1 1.4606855560641467 1.5453318055245908 10.949751199487038 0 0 0
16 1 3.440449643887599 3.0319639372361804 12.39666551569343 0 0 0
275 1 8.18801116972419 1.6772588023588695 10.896613259719427 0 0 0
272 1 9.429601186409673 3.24564814768469 12.50765610379424 0 0 0
530 1 12.800959380071443 2.939028176302655 9.668086657417993 0 0 0
531 1 14.725637758526352 1.592736585983831 10.938696192602606 0 0 0
20 1 4.8341719422044 4.712960112860814 10.834859285093726 0 0 0
276 1 11.193627703339878 4.7635665207473945 11.120132085226164 0 0 0
528 1 15.876050210824102 2.9232985425962386 12.91418197584651 0 0 0
559 1 12.493413056582522 6.436473620096865 13.00244666043566 0 0 0
532 1 17.23548050491316 4.281969066111934 11.07536165226824 0 0 0
1607 1 18.735659559697137 12.67107910472861 19.194008827663136 0 0 0
51 1 1.6306193628547236 7.639507981308677 10.924778955400862 0 0 0
48 1 3.2918059235508497 9.30811431184575 12.379974648057742 0 0 0
306 1 6.26518583247118 9.5300121778452 9.094948855336504 0 0 0
307 1 7.823970809565429 7.876359711242479 10.90373838137146 0 0 0
304 1 9.314763133103467 9.767848855750579 12.570342901807614 0 0 0
563 1 14.375101867023982 7.847368140367515 11.26409684949405 0 0 0
52 1 4.613250266706221 11.188281188020122 10.733246679935263 0 0 0
335 1 6.323628024260462 12.520641278218278 12.25663456888334 0 0 0
308 1 11.231047395837637 11.157653896886968 11.161270999117308 0 0 0
591 1 12.869556183181917 12.57048193595181 12.528910657617159 0 0 0
564 1 17.527217633178154 10.838706172631696 11.436362716015589 0 0 0
83 1 2.087953361871697 14.32241184355309 10.637685359679088 0 0 0
192 1 2.7582308987558593 34.931122105202036 0.1709648258825205 0 0 0
80 1 3.1704037943487697 15.964792318065413 12.519978317480845 0 0 0
339 1 8.229627951614619 14.057207063031502 11.05569529989432 0 0 0
595 1 14.395052326610791 14.190630565117024 11.134668762780967 0 0 0
593 1 16.330173998326746 12.315792773855728 9.552537168583008 0 0 0
84 1 4.876830931769378 17.498112989435437 11.054766195902905 0 0 0
340 1 11.112294687300892 17.82710899552709 11.00449065876767 0 0 0
592 1 15.764462219617606 15.588790368585837 12.771101454676844 0 0 0
596 1 17.269766029851773 17.414137137891682 11.327911024791225 0 0 0
1280 1 9.19541539052846 47.561035282342644 25.179989633062398 0 0 0
115 1 1.7801552356222392 20.724976556130123 11.181662630953282 0 0 0
113 1 3.26360546707348 19.127187979406976 9.70247789107289 0 0 0
371 1 7.827286308635125 20.765818085783142 11.213267607363115 0 0 0
626 1 12.901905038285943 22.73353485955678 9.514052124081909 0 0 0
627 1 14.469941627575517 20.980577263717525 11.280372242913668 0 0 0
116 1 4.9074589273707865 23.761486643078243 11.400588172154928 0 0 0
145 1 3.3203482842433787 25.0459081119152 9.93604436656884 0 0 0
370 1 6.308053681225248 22.519675413660014 9.658862660228895 0 0 0
372 1 11.229873016763232 23.75424608260269 11.261563800755512 0 0 0
655 1 12.739266605160951 25.598445887955116 12.570009445144953 0 0 0
628 1 17.68841519794405 23.66889581166819 10.590541929212748 0 0 0
147 1 1.6217356763557333 27.420323145517756 11.252407769141545 0 0 0
403 1 7.7816333486504705 26.763149664763095 11.158373387528881 0 0 0
401 1 9.970474910861103 25.535666862514 9.906607224490276 0 0 0
658 1 12.88125656178455 28.738005188709867 9.461434656901567 0 0 0
659 1 14.371159285117038 26.82300723353886 10.657889389134734 0 0 0
1687 1 18.85749417364559 25.32815807488905 6.041604218432849 0 0 0
177 1 3.134968651465327 31.763809731482965 9.64193615904352 0 0 0
144 1 3.227089478518237 28.56602848845859 13.009371987400248 0 0 0
148 1 4.963265182827807 29.861007233612984 11.341942976157865 0 0 0
433 1 9.447176709977592 32.023545288798196 9.55011150023888 0 0 0
404 1 11.09091387764031 30.214846675302056 11.247262532136165 0 0 0
660 1 17.676497224028665 29.881114829019076 10.794791859329798 0 0 0
179 1 1.8053811012072956 33.70786379462737 11.308808716685792 0 0 0
435 1 8.142242883421156 33.75266104221583 11.255992198686464 0 0 0
691 1 14.605738081787308 33.39870810971744 11.16292320952117 0 0 0
688 1 15.874430069144815 34.8977615769286 13.046097628625507 0 0 0
209 1 3.2907109557440397 38.23305362645159 9.665086928266213 0 0 0
176 1 3.7390622929834167 34.863306464625055 12.797496204765789 0 0 0
180 1 4.887552070785378 36.731099913310366 11.37121067410349 0 0 0
434 1 6.275161985887979 35.246384127142505 9.683170013350928 0 0 0
465 1 9.435509333420399 38.02757388571888 9.747565083668514 0 0 0
436 1 11.354722989717105 36.44053166987291 11.269821194953238 0 0 0
690 1 12.718079919161623 34.68688854949566 9.667022985122243 0 0 0
692 1 17.75969804429992 36.648871128250775 11.233830588761869 0 0 0
211 1 1.411117858239112 39.96083719354644 11.406952328328709 0 0 0
186 1 0.15933319284739866 34.97778645160635 3.313537924783565 0 0 0
467 1 8.139937361146833 39.586380490167635 11.313929797978812 0 0 0
722 1 12.61482221186061 41.334697527816914 9.78855691508426 0 0 0
723 1 14.535518334003696 39.86170110635293 10.850545687654412 0 0 0
721 1 15.934183914780693 37.731802262533904 9.383527260880523 0 0 0
212 1 4.795185564001926 43.111277012710154 11.091145947552027 0 0 0
497 1 9.397754110737997 44.73793056656878 9.324523795835862 0 0 0
495 1 6.291638345441746 44.581162930329306 12.767145782459535 0 0 0
468 1 10.998337548771511 43.2366388594868 11.191361928938614 0 0 0
751 1 12.528024265287497 44.50810185579937 12.864706598009509 0 0 0
724 1 17.37346121576435 43.010929710009805 11.111824512736424 0 0 0
243 1 1.8368683892952433 46.16365929315099 11.3863361740084 0 0 0
240 1 3.408919383451179 47.69232762574005 13.058360373745822 0 0 0
499 1 7.840624044706628 46.16326315687037 11.000254033554375 0 0 0
496 1 9.54899791965272 47.59493413248749 12.379223330168056 0 0 0
755 1 14.38557295106439 46.01018351909046 11.07036536610798 0 0 0
752 1 15.896485020059288 47.55812686895541 13.0619292185826 0 0 0
244 1 4.616905343349971 49.34189392560474 11.145771043815504 0 0 0
271 1 6.33821108075494 0.10427108430336518 12.353087317234111 0 0 0
500 1 11.41026507384376 49.26533982133298 11.012457818822517 0 0 0
527 1 12.752772970472435 0.15008590807265515 12.59738426010908 0 0 0
707 1 14.197446981910606 39.69955187829909 23.906643543843266 0 0 0
756 1 17.35702951172153 49.384279344399495 11.245663835896698 0 0 0
111 1 0.08339165237901264 18.982143133526716 12.970894404219093 0 0 0
13 1 4.574047866715583 1.327328283155578 14.03077528161198 0 0 0
266 1 6.571305079250114 2.5467633141345076 15.596341119579769 0 0 0
269 1 10.947217834615707 1.48518443125852 14.401103076537451 0 0 0
525 1 17.871022709971573 1.5633369421145293 14.31953559989922 0 0 0
199 1 -0.007269995945790697 38.043832193544766 19.008210399207744 0 0 0
14 1 2.04854268716861 4.760554461924943 14.63410175400001 0 0 0
41 1 3.971738170761692 6.372292831588046 15.826140411331304 0 0 0
270 1 8.027905287152993 4.687329200564808 14.346890659877461 0 0 0
303 1 6.567132898586877 5.988843343976575 12.46262395391517 0 0 0
297 1 9.8301091462796 6.170069582209981 15.339066237793322 0 0 0
526 1 13.943612902905123 4.3666780520038095 14.449369785266283 0 0 0
288 1 9.333812144510397 3.150801285957765 0.12591184056124918 0 0 0
45 1 4.866181715027536 7.646627633641613 13.776517322007233 0 0 0
301 1 10.956592784478056 8.3947586189304 14.444435133602454 0 0 0
560 1 15.767778520959935 9.154996343635718 13.197282365225128 0 0 0
557 1 17.32888637873407 7.777360669354671 14.533701354610612 0 0 0
46 1 1.8895233081477487 11.111733909613326 14.097519823167286 0 0 0
1578 1 18.578199798919236 9.723388930403884 15.911661251460592 0 0 0
302 1 7.9915004844668776 11.24247023805113 14.384684348235929 0 0 0
298 1 6.693366003850193 9.183923000766184 15.689984878664978 0 0 0
558 1 14.357971835916343 11.055922407379686 14.373496279842529 0 0 0
77 1 4.905909666992146 14.10896803196829 13.914477963684902 0 0 0
333 1 11.474265612899513 14.209624282290019 14.090316071386681 0 0 0
585 1 15.7727797723353 12.748104780215755 15.810926979398946 0 0 0
589 1 17.37006193879612 14.353660067157797 14.461747966984824 0 0 0
78 1 1.7072306672712778 17.446766655378593 14.286468553959825 0 0 0
105 1 3.272506620447567 18.892323140257027 16.005805094384396 0 0 0
330 1 6.423898455690339 15.88176920732487 15.638436552096982 0 0 0
334 1 8.248398463943746 17.532498431607326 14.023309966017642 0 0 0
367 1 6.320972902376631 19.039265649503317 12.637048201694668 0 0 0
336 1 9.746577248728073 15.74418339794792 12.6135698683991 0 0 0
590 1 14.284240963831893 17.58063699758188 13.993878559020866 0 0 0
109 1 4.791852601073594 20.519422080299044 14.20146825840517 0 0 0
112 1 3.3071592891194994 22.29259889476424 12.797660322243374 0 0 0
365 1 11.145769919797264 20.799231744751413 14.235186488441082 0 0 0
368 1 9.291201617429367 22.38637931325739 12.936357679828735 0 0 0
623 1 12.609310538482221 19.407342501406145 12.549224205669896 0 0 0
621 1 17.705940529060385 20.751167823491627 14.428841695144467 0 0 0
624 1 16.174861791304345 22.24199733156148 12.836279736292482 0 0 0
110 1 1.470927459364459 23.900245467653907 14.277437529583809 0 0 0
399 1 6.491283955596301 25.327446276587413 12.857484496518275 0 0 0
366 1 8.071377907753492 24.26231269532281 14.665543362587824 0 0 0
622 1 14.548046822476437 24.028222195391415 14.145840723546229 0 0 0
141 1 4.770537234386635 26.719575145919702 14.50961682076871 0 0 0
400 1 9.57720222456653 28.219369881653666 12.623637308049743 0 0 0
397 1 10.948642784142523 26.72799744202582 14.387753697623118 0 0 0
656 1 15.958480548436455 28.359826870472077 12.645224459243924 0 0 0
653 1 17.861901466668872 26.715575464547193 13.870351971835753 0 0 0
142 1 1.6274940829907645 30.337987869768032 14.460177995207847 0 0 0
431 1 6.704233993105013 31.507981585506247 12.618588959471781 0 0 0
398 1 8.093340343849677 29.68554488141354 14.34734634556611 0 0 0