
# Import phase coexistance setup
#
read_data           data.coexist_${TEMP}K_${PRES}atm_ML
read_data           data.coexist_290K_${PRES}atm_ML
read_data           data.coexist_290K_-500atm_ML
Reading data file ...
  orthogonal box = (-0.1973914 -0.13960107 -0.13960107) to (104.67108 51.124865 51.124865)
  3 by 1 by 2 MPI processor grid
  reading atoms ...
  8503 atoms
  reading velocities ...
  8503 velocities
  read_data CPU = 0.031 seconds

# Define potential
#
pair_style 	    sw
pair_coeff	    * * /data/emrosky-sim/Freezing_Simulations/Melting/MLmW_fancy/ML_mW.sw mW
Reading sw potential file /data/emrosky-sim/Freezing_Simulations/Melting/MLmW_fancy/ML_mW.sw with DATE: 2019-02-27

# Reset velocity/set timestep
#
velocity	    all create ${TEMP} 120598 rot yes dist gaussian
velocity	    all create 290 120598 rot yes dist gaussian
timestep	    10.0

# Define output
#
compute	            1 all msd
compute             2 all orientorder/atom nnn NULL degrees 2 4 12
thermo              1000
thermo_style        custom step temp press vol etotal ke pe c_1[4]

# Neighbor lists
#
neigh_modify        delay 0 every 1 check yes

# Set fixes
#
fix                 1 all momentum 10 linear 1 1 1 rescale
fix                 2 all nph iso ${PRES} ${PRES} ${PCOUPL}
fix                 2 all nph iso -500 ${PRES} ${PCOUPL}
fix                 2 all nph iso -500 -500 ${PCOUPL}
fix                 2 all nph iso -500 -500 10000.0
fix                 3 all temp/csvr ${TEMP} ${TEMP} ${TCOUPL} 837492
fix                 3 all temp/csvr 290 ${TEMP} ${TCOUPL} 837492
fix                 3 all temp/csvr 290 290 ${TCOUPL} 837492
fix                 3 all temp/csvr 290 290 5000.0 837492

# Run very short equilibration
#
dump		    1 all atom 50 eq.${NAME}.dump
dump		    1 all atom 50 eq.melt_290K_-500atm_ML.dump
run	            500
Neighbor list info ...
  update every 1 steps, delay 0 steps, check yes
  max neighbors/atom: 2000, page size: 100000
  master list distance cutoff = 6.0032907
  ghost atom cutoff = 6.0032907
  binsize = 3.0016454, bins = 35 18 18
  2 neighbor lists, perpetual/occasional/extra = 1 1 0
  (1) pair sw, perpetual
      attributes: full, newton on
      pair build: full/bin/atomonly
      stencil: full/bin/3d
      bin: standard
  (2) compute orientorder/atom, occasional, copy from (1)
      attributes: full, newton on
      pair build: copy
      stencil: none
      bin: none
Per MPI rank memory allocation (min/avg/max) = 4.600 | 4.600 | 4.601 Mbytes
Step Temp Press Volume TotEng KinEng PotEng c_1[4] 
       0          290    26.404627    275599.11   -76436.687    7349.4256   -83786.113            0 
     500     335.2824    -397.7782    270543.56   -78091.799    8497.0105   -86588.809    14.944535 
Loop time of 1.15618 on 6 procs for 500 steps with 8503 atoms

Performance: 373.643 ns/day, 0.064 hours/ns, 432.457 timesteps/s
99.5% CPU use with 6 MPI tasks x no OpenMP threads

MPI task timing breakdown:
Section |  min time  |  avg time  |  max time  |%varavg| %total
---------------------------------------------------------------
Pair    | 0.37383    | 0.63409    | 0.93226    |  27.8 | 54.84
Neigh   | 0.11754    | 0.1434     | 0.16005    |   4.8 | 12.40
Comm    | 0.027095   | 0.34188    | 0.62695    |  40.7 | 29.57
Output  | 0.0077812  | 0.0083728  | 0.0089297  |   0.4 |  0.72
Modify  | 0.02299    | 0.023618   | 0.024423   |   0.3 |  2.04
Other   |            | 0.004829   |            |       |  0.42

Nlocal:        1417.17 ave        1440 max        1397 min
Histogram: 2 0 0 1 0 0 1 1 0 1
Nghost:        2057.17 ave        2108 max        2030 min
Histogram: 2 1 0 1 0 1 0 0 0 1
Neighs:        0.00000 ave           0 max           0 min
Histogram: 6 0 0 0 0 0 0 0 0 0
FullNghs:      39860.7 ave       40947 max       39312 min
Histogram: 2 0 1 2 0 0 0 0 0 1

Total # of neighbors = 239164
Ave neighs/atom = 28.127014
Neighbor list builds = 85
Dangerous builds = 0

reset_timestep      0
undump              1
unfix               2
unfix               3


################################################
#######         Run Simulation         #########
################################################

log                 log.run_${NAME}
log                 log.run_melt_290K_-500atm_ML
