
# Set production fixes - Nose/Hoover
#
fix                 2 all nph iso ${PRES} ${PRES} ${PCOUPL}
fix                 2 all nph iso -500 ${PRES} ${PCOUPL}
fix                 2 all nph iso -500 -500 ${PCOUPL}
fix                 2 all nph iso -500 -500 10000.0
fix                 3 all temp/csvr ${TEMP} ${TEMP} ${TCOUPL} 837492
fix                 3 all temp/csvr 290 ${TEMP} ${TCOUPL} 837492
fix                 3 all temp/csvr 290 290 ${TCOUPL} 837492
fix                 3 all temp/csvr 290 290 5000.0 837492

# Define Order parameter
#
compute             2 all orientorder/atom nnn NULL cutoff 3.5
thermo              200
thermo_style        custom step temp press vol etotal ke pe c_1[4]

# Run 1ns simulation
dump		    1 all custom 400 prod.${NAME}.dump id type x y z vx vy vz c_2[*]
dump		    1 all custom 400 prod.ice_290K_-500atm_ML.dump id type x y z vx vy vz c_2[*]
run                 200000
Neighbor list info ...
  update every 1 steps, delay 0 steps, check yes
  max neighbors/atom: 2000, page size: 100000
  master list distance cutoff = 6.0032907
  ghost atom cutoff = 6.0032907
  binsize = 3.0016454, bins = 20 17 17
  2 neighbor lists, perpetual/occasional/extra = 1 1 0
  (1) pair sw, perpetual
      attributes: full, newton on
      pair build: full/bin/atomonly
      stencil: full/bin/3d
      bin: standard
  (2) compute orientorder/atom, occasional, copy from (1)
      attributes: full, newton on
      pair build: copy
      stencil: none
      bin: none
Per MPI rank memory allocation (min/avg/max) = 5.821 | 5.821 | 5.821 Mbytes
Step Temp Press Volume TotEng KinEng PotEng c_1[4] 
       0    292.44372   -526.35339    149169.12   -47585.759    4016.0103    -51601.77   0.15553135 
     200    284.44206   -518.74703    149191.18   -47574.276    3906.1267   -51480.402   0.15320196 
     400     290.2298   -537.36993    149205.65   -47568.728    3985.6074   -51554.335   0.15066364 
     600    286.23991   -503.69322    149152.61   -47607.355    3930.8158   -51538.171   0.14713219 
     800    287.88924   -464.23445    149161.02    -47622.53    3953.4654   -51575.995   0.14146556 
    1000    291.10109   -507.73403    149221.16   -47634.603    3997.5725   -51632.176   0.14574704 
    1200    287.24763    -514.4644    149211.41   -47659.367    3944.6545   -51604.022   0.14879618 
    1400    286.60817   -467.28871    149165.43   -47651.462    3935.8731   -51587.335   0.14908081 
    1600    286.89995    -522.6847    149179.88   -47654.614    3939.8799   -51594.493   0.14500107 
    1800     288.1038   -525.34516    149240.56    -47660.04     3956.412   -51616.452   0.14249994 
    2000    289.87838   -526.46398    149213.08   -47615.698    3980.7815    -51596.48    0.1527264 
    2200    287.70935   -469.55139    149175.44   -47584.591    3950.9951   -51535.586   0.15299569 
    2400     288.2039   -539.11875    149249.47   -47602.684    3957.7865    -51560.47   0.15080469 
    2600    289.50533   -543.40134    149256.53   -47647.365    3975.6586   -51623.023   0.14631794 
    2800    288.29729    -427.6032    149098.56   -47665.926     3959.069   -51624.995   0.14331253 
    3000    286.36829   -457.35668    149090.42   -47677.487    3932.5789   -51610.066   0.14081575 
    3200    288.55228   -567.58042    149290.77   -47622.039    3962.5707   -51584.609   0.14453724 
    3400     289.1881   -589.48941    149273.07   -47661.261    3971.3021   -51632.563   0.15093395 
    3600    286.51461   -400.97914    149018.96   -47692.243    3934.5882   -51626.831   0.14526958 
    3800    286.62352    -456.3904    149100.31   -47617.988    3936.0838   -51554.072   0.14768481 
    4000    287.92263   -673.42145    149417.08   -47608.893     3953.924   -51562.817   0.14869206 
    4200    290.78639   -564.45033    149259.24   -47627.118    3993.2508   -51620.369   0.14351545 
    4400    291.82243   -249.87511    148941.85   -47617.578    4007.4784   -51625.056   0.13952217 
    4600    290.21793   -462.55204     149190.1   -47596.264    3985.4444   -51581.708    0.1470333 
    4800    291.26734   -717.42894     149483.5   -47583.837    3999.8555   -51583.693   0.15343775 
    5000    288.11126   -459.00192    149152.61   -47565.327    3956.5144   -51521.841   0.14358325 
    5200    286.88841   -257.95973    148927.26    -47568.39    3939.7215   -51508.112   0.14197615 
    5400    293.32213   -597.21576    149352.04   -47527.163    4028.0731   -51555.237   0.14792696 
    5600    285.38514   -738.61624    149545.62   -47507.818    3919.0776   -51426.896   0.15694985 
    5800    289.36028   -366.73312    149060.41   -47502.405    3973.6666   -51476.071   0.15302839 
    6000    294.79117   -272.34649    148976.22   -47489.831    4048.2468   -51538.077   0.14851183 
    6200      293.236   -657.09638    149511.22   -47480.128    4026.8904   -51507.018   0.14750165 
    6400    298.06784   -670.70638    149530.85   -47447.659     4093.244   -51540.903   0.14296816 
    6600    294.45928   -275.29326    149002.96   -47491.279    4043.6891   -51534.968   0.14563863 
    6800    290.08536   -375.30486    149073.49    -47530.88    3983.6238   -51514.504   0.15157947 
    7000    289.29484   -738.60256    149568.14   -47530.988     3972.768   -51503.756   0.15267706 
    7200    294.19365   -564.57997     149423.4   -47480.059    4040.0414   -51520.101   0.14345185 
    7400    295.12669   -279.00954    148965.22   -47468.303    4052.8544   -51521.158   0.14421855 
    7600    295.18204   -456.71028    149173.54   -47501.528    4053.6145   -51555.142   0.14776713 
    7800    287.95103   -761.50415    149579.61    -47525.58     3954.314   -51479.894   0.15907299 
    8000    299.98324   -499.75646    149316.92   -47494.916    4119.5475   -51614.463   0.14636611 
    8200    294.34786   -271.39531     148974.4    -47533.79    4042.1591   -51575.949   0.14049849 
    8400    295.29873   -477.68072    149309.88   -47558.315    4055.2169   -51613.532   0.13891558 
    8600    292.25119   -720.38017    149612.81   -47514.543    4013.3663    -51527.91   0.14779582 
    8800    295.91418   -398.78318    149249.62    -47448.53    4063.6686   -51512.198   0.14587625 
    9000    300.05937   -267.93263    149031.33   -47430.087    4120.5928   -51550.679   0.14459491 
    9200    295.87674   -586.34128    149433.41   -47412.802    4063.1546   -51475.956   0.15001614 
    9400    291.51832   -705.61985    149556.54   -47460.821    4003.3021   -51464.123   0.15142091 
    9600     294.4484   -335.32628    149089.63   -47454.295    4043.5397   -51497.835   0.14568838 
    9800    291.14361   -321.13619    149066.12   -47471.343    3998.1564   -51469.499   0.14778471 
   10000    289.49935   -706.08002    149560.16   -47462.954    3975.5764    -51438.53   0.15631657 
   10200    290.03558   -694.21849    149494.02   -47455.914    3982.9403   -51438.854   0.15743445 
   10400    292.28908   -264.35564    148975.95   -47446.216    4013.8866   -51460.102   0.14915958 
   10600     293.2812   -414.42423    149125.54   -47427.992    4027.5111   -51455.503   0.15087733 
   10800    291.29254   -746.95879    149602.19   -47455.288    4000.2015    -51455.49   0.15404394 
   11000    296.75917    -578.7975    149323.97   -47499.658    4075.2726    -51574.93   0.14904709 
   11200    289.77175   -189.39584    148817.57   -47518.637    3979.3172   -51497.954    0.1477938 
   11400    290.65162   -481.56176    149180.82   -47544.164    3991.4001   -51535.564   0.15126281 
   11600    295.48986   -823.21348    149694.04   -47510.205    4057.8416   -51568.047   0.14797085 
   11800    287.26212   -513.86764     149226.1   -47586.466    3944.8534   -51531.319   0.14489823 
   12000    289.28377    -89.80193    148712.15   -47590.184    3972.6159     -51562.8   0.14407557 
   12200    290.27419    -587.5827    149301.52   -47566.667     3986.217   -51552.884   0.15287941 
   12400    287.21981   -913.00326    149783.74   -47528.922    3944.2724   -51473.194   0.15804048 
   12600    286.53029   -408.49988    149092.07   -47546.098    3934.8035   -51480.901    0.1508019 
   12800    287.62093    -66.93196    148670.37   -47558.349    3949.7809    -51508.13   0.14429626 
   13000    288.66388   -670.91789    149447.69   -47534.623    3964.1032   -51498.726   0.14499585 
   13200    291.53806   -925.47165    149766.27   -47502.434    4003.5732   -51506.007   0.14921778 
   13400    292.75687   -267.76516    148946.09   -47528.727    4020.3106   -51549.038   0.14749476 
   13600     291.5295   -145.45325    148806.33   -47521.035    4003.4556   -51524.491   0.14921836 
   13800    287.94662   -797.21013    149665.25   -47509.499    3954.2534   -51463.753   0.14747083 
   14000    290.62713   -802.34587    149684.85   -47529.604    3991.0637   -51520.668   0.14801801 
   14200    294.27546   -182.74205    148869.63   -47562.366    4041.1647   -51603.531   0.14519471 
   14400    286.22577   -278.63998     148938.8   -47587.348    3930.6217    -51517.97    0.1520648 
   14600    290.57846   -773.18695    149636.65   -47577.164    3990.3954   -51567.559   0.15155579 
   14800    289.32008   -622.10707     149471.6   -47560.267    3973.1146   -51533.381   0.14807484 
   15000    286.19078   -263.71626    148890.12   -47615.199    3930.1411    -51545.34   0.14573646 
   15200    287.80118   -441.74289    149064.13   -47668.308    3952.2561   -51620.565   0.15041461 
   15400    286.27579    -696.0843    149444.24   -47679.405    3931.3086   -51610.713   0.14824994 
   15600    291.14739   -536.90229    149210.09   -47717.146    3998.2083   -51715.354    0.1408974 
   15800    288.49614   -294.75845       148928   -47670.699    3961.7997   -51632.498   0.14267268 
   16000     288.0247   -532.38516    149180.85   -47654.943    3955.3256   -51610.268   0.14431374 
   16200    288.51048   -656.49455    149369.71   -47600.839    3961.9967   -51562.836   0.15066504 
   16400    288.31297   -479.23425    149146.88   -47599.034    3959.2844   -51558.318   0.14653061 
   16600    290.37246   -357.55667    149060.78     -47616.9    3987.5665   -51604.467   0.14032607 
   16800    294.99448   -538.06295    149285.33   -47570.146    4051.0388   -51621.185   0.14505414 
   17000    290.76803   -606.93441    149330.02   -47593.175    3992.9987   -51586.174   0.14386247 
   17200      294.008   -458.20374    149143.46   -47577.953    4037.4919   -51615.445   0.14255252 
   17400    289.32455   -432.36046    149112.55    -47623.58    3973.1759   -51596.756   0.14285582 
   17600    288.18945   -514.50888    149282.93   -47660.456    3957.5881   -51618.044   0.14015272 
   17800    282.29013    -591.7956    149283.57   -47677.823    3876.5752   -51554.398   0.14355606 
   18000    285.25644   -446.25713    149076.51   -47713.012    3917.3103   -51630.322   0.14440622 
   18200    288.04627   -418.22857    149072.99   -47739.187    3955.6219   -51694.809   0.14540337 
   18400    284.10784   -600.64771    149278.47   -47758.081    3901.5371   -51659.618   0.14203783 
   18600    283.23725   -543.47375    149251.41   -47714.079    3889.5815   -51603.661   0.14158935 
   18800    286.89653   -382.83912    149059.45   -47650.432    3939.8329   -51590.265   0.14585867 
   19000    287.01542   -474.18112    149160.73    -47678.97    3941.4657   -51620.436   0.14763186 
   19200    286.84765   -615.02223     149341.9   -47650.813    3939.1618   -51589.975   0.14559271 
   19400    286.53327   -497.79831    149222.56   -47641.126    3934.8445   -51575.971    0.1439258 
   19600    288.74277   -366.94849    149047.57   -47670.279    3965.1866   -51635.466   0.14163045 
   19800    280.14422   -513.60755    149157.51   -47665.134    3847.1062    -51512.24   0.14934431 
   20000    285.70611   -634.75478     149330.2   -47653.359    3923.4854   -51576.844   0.15147888 
   20200    286.62031   -532.04951    149193.88   -47680.398    3936.0398   -51616.438   0.15183555 
   20400    290.07444   -366.77079    149030.28    -47659.65    3983.4739   -51643.124   0.14163313 
   20600    289.53671   -496.35938    149205.48   -47655.628    3976.0895   -51631.717   0.14166818 
   20800    282.93744   -649.06587    149383.35   -47656.475    3885.4644    -51541.94   0.14658867 
   21000     286.8345   -511.48992       149200   -47652.771    3938.9812   -51591.752   0.14470536 
   21200    290.12887   -340.71178    148997.39   -47645.214    3984.2214   -51629.435   0.14278275 
   21400    285.78756   -522.35978    149215.31   -47640.139    3924.6039   -51564.743   0.14527798 
   21600    290.33454   -631.30399    149414.98   -47594.593    3987.0458   -51581.639   0.14536543 
   21800    291.92095   -443.73107     149172.4   -47547.257    4008.8313   -51556.089   0.14278762 
   22000    290.29839    -327.5898    148997.14    -47555.02    3986.5493    -51541.57   0.14291938 
   22200    293.22687   -551.53548    149299.87    -47512.55     4026.765   -51539.315   0.15034745 
   22400    292.22693   -658.43028    149455.08    -47487.65    4013.0331   -51500.683   0.15128975 
   22600    288.35575   -387.11657    149089.51   -47497.024    3959.8718   -51456.896   0.14806722 
   22800    292.07838    -330.1828    148968.02   -47535.692    4010.9932   -51546.685   0.14813378 
   23000    290.16126   -604.29634    149389.73   -47550.147    3984.6662   -51534.813   0.14985455 
   23200     293.0867   -656.13695    149476.19   -47542.834      4024.84   -51567.674   0.14780073 
   23400    285.33234   -341.49387    149007.59   -47555.046    3918.3526   -51473.398   0.14878354 
   23600    290.84069   -340.97058     148972.6   -47573.215    3993.9965   -51567.212   0.14911002 
   23800    291.30438   -654.74292    149448.31   -47508.478    4000.3641   -51508.842   0.15045993 
   24000    288.72023   -647.82265    149432.73   -47544.939    3964.8771   -51509.816   0.14992586 
   24200    292.83067   -305.99082    148947.22   -47532.435    4021.3241   -51553.759   0.14703361 
   24400    290.93638   -377.02551    149032.32   -47538.395    3995.3106   -51533.705    0.1454697 
   24600    292.09043   -734.77714     149531.3   -47533.809    4011.1587   -51544.967   0.15082123 
   24800    294.87308   -621.59965    149351.26   -47458.306    4049.3716   -51507.677   0.15253503 
   25000    293.48958   -284.23865    148899.57   -47460.263    4030.3726   -51490.635     0.148746 
   25200    291.84771   -438.00741    149165.69   -47483.069    4007.8255   -51490.895   0.14649724 
   25400    293.35423   -733.14582    149571.44   -47541.287     4028.514   -51569.801   0.14237466 
   25600    292.62863   -481.24266    149219.46     -47567.5    4018.5496    -51586.05   0.14788028 
   25800    299.52356   -213.97302    148899.04   -47548.006    4113.2349   -51661.241   0.13934023 
   26000      292.237   -569.34632    149343.56   -47523.629    4013.1714     -51536.8   0.14296838 
   26200    289.42977   -768.87898    149596.56   -47566.926    3974.6209   -51541.547   0.14464769 
   26400    289.80793   -385.39985    149090.88   -47594.289    3979.8141   -51574.103   0.13943495 
   26600    292.09139   -269.86924    148938.78   -47606.118    4011.1719   -51617.289   0.14241218 
   26800    289.86002   -673.20017    149477.33   -47607.292    3980.5294   -51587.822   0.14872989 
   27000    296.48454   -663.12696     149507.2   -47607.094    4071.5012   -51678.595   0.14094428 
   27200    288.55467   -308.30537     148956.6   -47604.542    3962.6036   -51567.145   0.14672646 
   27400     289.9167   -335.23794    149018.42   -47570.449    3981.3077   -51551.757   0.14551004 
   27600    290.39215   -749.31299    149574.42   -47570.464     3987.837   -51558.301   0.15249708 
   27800     289.3863   -626.87717    149416.82   -47566.575     3974.024   -51540.599   0.14847559 
   28000    293.02187   -236.71945    148902.94    -47559.61    4023.9497    -51583.56   0.13923249 
   28200    290.75514   -477.92172    149139.16   -47578.809    3992.8217   -51571.631   0.14665625 
   28400    284.87234   -736.91202    149533.91   -47568.698    3912.0356   -51480.733   0.14599811 
   28600    289.73199   -507.71436    149230.92   -47592.363    3978.7711   -51571.135   0.14536206 
   28800    289.92739   -280.87801    148882.35   -47606.207    3981.4546   -51587.661   0.14568251 
   29000    288.10419   -496.85499    149191.79   -47640.711    3956.4173   -51597.128   0.14288607 
   29200     289.0903   -697.93361    149470.62   -47673.832    3969.9591   -51643.791   0.14094799 
   29400    287.24524   -447.37426    149106.92   -47676.344    3944.6217   -51620.966   0.14164013 
   29600     293.3549   -307.07722    148929.41   -47640.373    4028.5231   -51668.896   0.14292039 
   29800    292.22172   -595.14116    149364.08   -47559.534    4012.9616   -51572.496   0.14538666 
   30000    288.64125     -695.743    149480.71   -47547.419    3963.7925   -51511.212   0.14688974 
   30200    290.22957    -372.7793    149085.99   -47560.035    3985.6043    -51545.64   0.14050344 
   30400    287.14595   -324.34022    149039.44   -47612.893    3943.2582   -51556.151    0.1357567 
   30600    288.67717    -636.9231    149398.81   -47557.317    3964.2857   -51521.602   0.14627704 
   30800    290.38503    -604.8237    149385.09   -47524.879    3987.7391   -51512.618   0.14652938 
   31000    291.67095   -407.85174     149087.7   -47514.064    4005.3981   -51519.463   0.14650597 
   31200    290.03328   -405.37743    149136.98   -47516.862    3982.9087   -51499.771   0.14778333 
   31400    289.85827    -577.9676    149387.33   -47512.444    3980.5053    -51492.95   0.14898439 
   31600    290.82841    -555.7376    149311.59   -47575.111    3993.8278   -51568.939   0.14491739 
   31800    287.27787    -415.7579    149058.94   -47548.445    3945.0697   -51493.515   0.14441231 
   32000    291.52601   -436.47406    149158.95   -47518.674    4003.4077   -51522.082   0.14550768 
   32200    291.40185    -640.0721    149408.99   -47551.688    4001.7027   -51553.391   0.14572321 
   32400    287.68156   -527.88691    149295.42   -47545.977    3950.6134    -51496.59    0.1440551 
   32600    288.78706    -418.7479    149092.23   -47533.808    3965.7949   -51499.603   0.14542845 
   32800    293.55159   -462.34786    149220.35   -47530.541    4031.2241   -51561.765   0.14403437 
   33000    293.56734   -587.69672    149379.85   -47518.663    4031.4404   -51550.103   0.14363521 
   33200     289.2175   -516.60071    149237.52   -47512.809    3971.7059   -51484.515   0.14582792 
   33400    295.29417   -404.17929    149108.05   -47475.394    4055.1543   -51530.548   0.14820269 
   33600    298.80822   -520.24736    149272.63   -47406.834    4103.4113   -51510.245   0.14991794 
   33800    291.39418   -604.02514    149382.79    -47440.75    4001.5974   -51442.348   0.14488264 
   34000    293.57919   -483.31405    149221.06   -47464.539    4031.6032   -51496.142   0.14282879 
   34200    289.92847   -423.94988    149185.86   -47496.036    3981.4694   -51477.506    0.1470715 
   34400    291.11214   -572.72178    149355.46   -47561.466    3997.7242    -51559.19   0.14366529 
   34600    294.09448   -540.51875    149346.77   -47534.545    4038.6795   -51573.224   0.13882999 
   34800    295.00095   -513.32044    149201.06   -47577.561    4051.1276   -51628.688    0.1413907 
   35000    287.11651    -465.4649     149158.4   -47601.482    3942.8539   -51544.336   0.13983796 
   35200    289.55734   -527.33657    149308.65   -47588.642    3976.3728   -51565.015   0.14225749 
   35400    288.03442   -571.84339    149338.28   -47549.883    3955.4592   -51505.342   0.14812662 
   35600    295.21281   -452.78699    149204.87   -47545.287    4054.0371   -51599.325    0.1425537 
   35800    295.70668   -443.76926    149208.56   -47545.516    4060.8191   -51606.335   0.14058236 
   36000    290.77373   -552.76698    149342.37   -47546.577    3993.0769   -51539.654   0.14110024 
   36200    290.92421   -506.55421    149337.62    -47561.97    3995.1435   -51557.114   0.14330313 
   36400    289.65288   -493.80442    149217.99    -47589.65    3977.6848   -51567.335   0.14425684 
   36600    288.23418   -454.17823    149209.51   -47564.361    3958.2024   -51522.563   0.13825914 
   36800    285.41808   -510.99429    149289.86   -47607.456    3919.5299   -51526.986   0.14014472 
   37000    287.58378   -518.50912    149294.86   -47597.137    3949.2707   -51546.408   0.14282062 
   37200    289.50095   -477.64539    149242.49   -47559.233    3975.5983   -51534.831   0.14473733 
   37400    290.05425   -497.62879    149253.78   -47550.504    3983.1967     -51533.7   0.14312014 
   37600    291.70988   -530.61092    149293.51   -47578.154    4005.9327   -51584.086   0.14086688 
   37800    292.09929   -491.14668    149259.41   -47543.997    4011.2804   -51555.277   0.14253332 
   38000    291.28702   -456.16623    149196.47   -47597.528    4000.1257   -51597.654   0.14495084 
   38200    286.30922   -514.59555    149171.97   -47592.362    3931.7677    -51524.13    0.1496767 
   38400    288.06778   -500.73687    149177.61   -47556.826    3955.9172   -51512.744   0.14372615 
   38600    287.82152   -522.87847    149181.93   -47553.916    3952.5355   -51506.452   0.14344444 
   38800    285.71069   -527.97004    149175.23   -47604.637    3923.5483   -51528.186   0.14423396 
   39000    283.72713   -493.03755    149186.61   -47630.745    3896.3089   -51527.054   0.14304619 
   39200    282.87689   -524.29633    149199.61   -47650.546    3884.6329   -51535.179   0.14340557 
   39400     285.7936   -502.13355    149207.13   -47641.593    3924.6869   -51566.279   0.14315619 
   39600    283.04581   -530.61737     149188.1   -47712.174    3886.9526   -51599.127   0.14284624 
   39800    280.59636   -488.86286    149179.09   -47700.277    3853.3154   -51553.593   0.14491097 
   40000    287.76053   -524.56591    149203.06   -47712.702     3951.698     -51664.4   0.14201371 
   40200    286.03355   -507.64743    149208.63   -47687.459     3927.982   -51615.441   0.14447048 
   40400    289.34334   -486.40724    149179.95   -47682.193     3973.434   -51655.627   0.13946467 
   40600    291.76496   -470.66678    149183.81   -47711.374    4006.6891   -51718.064   0.13491305 
   40800    286.51894   -506.95551    149193.28   -47729.275    3934.6477   -51663.923   0.14137233 
   41000       283.91   -535.85558    149165.79   -47685.122    3898.8202   -51583.942   0.14441973 
   41200    282.01717   -514.16524    149148.12   -47716.944    3872.8267   -51589.771   0.14217728 
   41400    284.35447   -499.55872    149167.32   -47681.034    3904.9238   -51585.958   0.14736252 
   41600    286.49301   -559.71056    149194.47   -47676.383    3934.2916   -51610.675     0.147607 
   41800    290.69902    -479.7886    149194.69   -47675.242     3992.051   -51667.293    0.1404139 
   42000    287.64134   -464.06612    149175.31   -47646.822    3950.0611   -51596.884   0.14290423 
   42200     284.5831   -504.92134    149188.45   -47672.943    3908.0636   -51581.007   0.14761297 
   42400    280.85987   -515.14089     149169.3   -47724.387     3856.934   -51581.321   0.14905383 
   42600    288.01907   -504.34789    149151.66   -47751.449    3955.2484   -51706.697   0.13653827 
   42800    286.87611   -459.69082    149176.55    -47751.75    3939.5526   -51691.302   0.13740313 
   43000    282.35552   -529.54055    149216.95    -47705.74    3877.4731   -51583.213   0.14567896 
   43200    283.54464   -519.83528    149209.64   -47709.081    3893.8028   -51602.884   0.14147523 
   43400    288.50966   -491.93559    149164.01   -47701.206    3961.9854   -51663.192   0.14426567 
   43600    290.01876   -471.43469    149179.76    -47696.26    3982.7092   -51678.969   0.14287703 
   43800    286.54087    -573.9976    149254.92   -47669.004    3934.9489   -51603.953   0.14841282 
   44000    288.64333   -567.26028    149224.48   -47688.363     3963.821   -51652.184   0.14842047 
   44200    284.18437   -458.20009    149083.95   -47731.728     3902.588   -51634.316   0.14629312 
   44400    287.89877   -485.01846     149131.1   -47705.597    3953.5964   -51659.194   0.14592227 
   44600     289.3914    -569.3908    149333.23   -47642.125     3974.094   -51616.219   0.14367313 
   44800    288.13295   -553.37787    149269.41   -47606.734    3956.8122   -51563.546   0.14743766 
   45000    289.85249   -331.57018    149006.38   -47646.086    3980.4259   -51626.512   0.14483544 
   45200    289.09143   -455.16012    149152.68   -47665.171    3969.9746   -51635.146   0.14293528 
   45400    284.09883   -675.89335    149420.42   -47711.648    3901.4132   -51613.061    0.1452146 
   45600    289.37587   -515.01817    149174.74   -47702.041    3973.8807   -51675.921   0.14606359 
   45800    285.51516   -322.73776    148896.98   -47677.483    3920.8631   -51598.346   0.14781805 
   46000    286.90634   -518.99473       149226   -47672.175    3939.9676   -51612.142   0.14557607 
   46200    282.21156   -720.33422    149485.88   -47701.921    3875.4962   -51577.417   0.14845511 
   46400    284.73481   -439.19463    149072.97   -47687.838     3910.147   -51597.985   0.14420279 
   46600    288.72454   -273.04607    148846.65   -47687.418    3964.9363   -51652.355   0.14354303 
   46800    284.55137   -604.59523    149316.77   -47648.752    3907.6278    -51556.38   0.14527729 
   47000     288.0239   -728.25228     149488.4   -47625.189    3955.3147   -51580.504   0.14800291 
   47200    291.07609   -382.43333    148992.77   -47600.389    3997.2291   -51597.618   0.14886379 
   47400    293.65427   -266.44596    148933.48   -47531.632    4032.6343   -51564.266   0.14279617 
   47600    290.69342   -701.42461    149486.15   -47502.194    3991.9741   -51494.168   0.15292075 
   47800    285.37921   -739.73392     149478.7   -47469.366    3918.9962   -51388.362   0.15663733 
   48000    292.29364    -237.2121    148898.86   -47477.728    4013.9493   -51491.678   0.14944747 
   48200    294.78545    -317.0533    149014.98   -47478.964    4048.1682   -51527.133   0.14637255 
   48400    293.62073   -768.15777     149617.1   -47454.877    4032.1737   -51487.051   0.14860919 
   48600     287.0547   -682.86896    149424.48   -47520.306     3942.005   -51462.311   0.15338062 
   48800     291.6296   -137.49716    148806.04       -47466    4004.8303   -51470.831   0.15081308 
   49000    291.14957   -439.18719    149117.81   -47443.285    3998.2382   -51441.523   0.15383226 
   49200    297.85724    -799.0408    149669.71   -47472.715    4090.3519   -51563.067   0.14935719 
   49400    293.22867   -506.00664    149258.65   -47485.959    4026.7896   -51512.749   0.14741415 
   49600    290.94526   -192.01028    148798.93   -47507.034    3995.4325   -51502.467   0.15357701 
   49800    289.78064   -531.34432    149241.75   -47485.146    3979.4393   -51464.586   0.15535309 
   50000    290.38503   -779.00787     149611.4   -47481.535    3987.7391   -51469.275   0.14981722 
   50200     288.9604   -447.86729    149148.54   -47522.434    3968.1752   -51490.609   0.14907031 
   50400    297.97402   -216.99681    148859.83   -47529.771    4091.9557   -51621.727   0.14394212 
   50600    292.78085    -573.6505    149336.18   -47548.338      4020.64   -51568.978   0.14534185 
   50800    291.17838   -687.99075     149543.1   -47556.076    3998.6339    -51554.71   0.14794377 
   51000    292.97587   -418.63039    149123.21   -47494.281    4023.3181   -51517.599   0.14516891 
   51200    290.68839   -286.35181    148997.23   -47526.559    3991.9051   -51518.464   0.14358523 
   51400    295.30028   -566.87848    149400.27   -47487.329    4055.2383   -51542.567   0.14286315 
   51600    291.87116   -646.08939    149468.67   -47487.741    4008.1475   -51495.889    0.1477613 
   51800    295.24013   -432.85617    149111.57   -47487.067    4054.4122   -51541.479   0.14902643 
   52000    294.92731   -341.48335    149092.29   -47448.797    4050.1164   -51498.914   0.14413491 
   52200    291.42393   -623.43855    149413.64   -47418.627     4002.006   -51420.633   0.14934042 
   52400    296.81717    -593.9923    149424.12   -47399.533     4076.069   -51475.602   0.14564751 
   52600    297.30232   -405.95914    149166.93   -47440.349    4082.7314    -51523.08   0.14336444 
   52800     295.8479   -420.97064    149177.53   -47459.732    4062.7584    -51522.49   0.14604961 
   53000    289.91907   -588.63182    149400.24   -47462.501    3981.3403   -51443.841   0.14870739 
   53200    296.97618   -549.21658    149344.22    -47471.28    4078.2527   -51549.532   0.14486509 
   53400     291.5318    -421.9255    149141.79   -47501.273    4003.4872    -51504.76   0.14568602 
   53600     292.2499   -453.44307    149200.37   -47527.334    4013.3486   -51540.682   0.14244105 
   53800    292.38528   -567.57747     149371.2   -47503.109    4015.2078   -51518.317   0.14320617 
   54000    292.31118   -531.78873    149332.81   -47493.326    4014.1901   -51507.516   0.14537687 
   54200     289.0834   -440.56034    149192.84   -47502.628    3969.8643   -51472.492   0.14417798 
   54400    291.49053   -512.28192    149217.78   -47530.602    4002.9205   -51533.522   0.14823098 
   54600    287.90155   -559.58811    149282.17   -47523.962    3953.6345   -51477.597   0.14744106 
   54800    294.05286   -485.07122    149269.22   -47467.819    4038.1079   -51505.927   0.14293975 
   55000    290.12638   -482.05062    149254.23    -47471.08    3984.1871   -51455.267    0.1464708 
   55200    294.98167   -523.81257    149256.33   -47501.796    4050.8629   -51552.659   0.14137869 
   55400    288.85797   -524.65592    149253.01   -47524.562    3966.7686   -51491.331   0.14470246 
   55600    291.78136   -465.04926    149247.67   -47561.715    4006.9144   -51568.629   0.13835487 
   55800    291.18313   -498.00067    149254.31   -47534.419    3998.6991   -51533.118   0.14287749 
   56000    294.26402   -456.87295    149226.99   -47519.569    4041.0077   -51560.576   0.13809061 
   56200    295.70291     -413.124    149240.95   -47553.724    4060.7674   -51614.491   0.13684268 
   56400    290.43005   -526.45562    149284.54   -47555.769    3988.3573   -51544.126   0.14637039 
   56600    287.00581   -511.18006    149282.16   -47559.422    3941.3337   -51500.756    0.1465814 
   56800    289.81754   -496.42604    149259.19   -47510.105     3979.946   -51490.051   0.14457131 
   57000    292.19175   -489.22685     149305.9   -47517.248    4012.5501   -51529.798   0.14052129 
   57200    291.80352   -516.45962    149302.98   -47547.729    4007.2187   -51554.947    0.1416796 
   57400    287.18703   -480.01918    149225.85   -47567.657    3943.8223   -51511.479   0.14412234 
   57600    295.73947   -460.95682    149223.01   -47558.062    4061.2695   -51619.332   0.13997803 
   57800     290.7305   -552.12413    149314.34   -47569.873    3992.4832   -51562.356   0.14130647 
   58000    290.19349   -508.68473    149305.16   -47581.812    3985.1087   -51566.921   0.13884272 
   58200    289.41409   -458.72147    149144.42   -47623.764    3974.4055   -51598.169   0.14288978 
   58400    282.53605   -402.85448    149158.42   -47614.546    3879.9523   -51494.498   0.14849467 
   58600    291.71163   -600.15988    149387.15   -47593.428    4005.9567   -51599.385   0.14636807 
   58800    287.90832     -585.333    149343.42   -47625.116    3953.7275   -51578.843   0.14544357 
   59000    286.36923   -367.77599    149034.27   -47651.028    3932.5918    -51583.62   0.14134757 
   59200    287.54745   -438.26815    149104.74   -47652.009    3948.7718   -51600.781   0.14234576 
   59400    286.12131   -658.93627    149441.41   -47591.067    3929.1873   -51520.254   0.14609744 
   59600    286.85622    -626.3654    149335.07   -47586.797    3939.2794   -51526.077   0.14444719 
   59800    289.03451   -308.28117     148969.9   -47575.376     3969.193   -51544.569   0.14686054 
   60000    286.83558   -445.26218    149158.35   -47561.492    3938.9959   -51500.488   0.14666993 
   60200    291.15187   -746.84946    149527.77   -47531.042    3998.2698   -51529.312   0.14666332 
   60400    295.91386   -494.95865    149285.54   -47500.558    4063.6643   -51564.222   0.14340052 
   60600    293.84797   -278.35978    148973.37   -47543.687    4035.2943   -51578.981   0.14354298 
   60800    287.73756   -503.58571    149273.14    -47480.64    3951.3825   -51432.022   0.15171117 
   61000    286.68552   -700.92769    149569.59   -47518.114    3936.9352   -51455.049   0.14739874 
   61200    290.10856   -467.66488    149211.23   -47525.888    3983.9424   -51509.831   0.14738356 
   61400    291.54311   -225.90258    148949.37    -47524.92    4003.6425   -51528.563   0.13913374 
   61600    293.00601   -604.52849    149374.66    -47514.88     4023.732   -51538.612   0.14628666 
   61800    294.20508   -748.62194    149603.85   -47512.995    4040.1983   -51553.193    0.1493896 
   62000    286.72331   -423.79898    149130.02   -47540.474    3937.4542   -51477.928   0.14968888 
   62200    289.03087   -243.89256    148921.87   -47553.006     3969.143   -51522.149     0.140899 
   62400    293.01771    -643.7279     149453.2   -47511.564    4023.8927   -51535.457   0.14746381 
   62600    289.78259   -749.83292    149598.49   -47529.828    3979.4661   -51509.295   0.14389229 
   62800    291.59465   -291.11514    148973.68    -47510.37    4004.3504   -51514.721    0.1417211 
   63000    294.08322   -223.39515    148929.77   -47479.802    4038.5248   -51518.326   0.14632031 
   63200    291.65196   -774.41736    149623.63   -47479.682    4005.1373    -51484.82   0.15183986 
   63400    291.40075   -740.87499    149599.65   -47435.801    4001.6875   -51437.489   0.15348156 
   63600    290.14837   -243.61732    148940.48    -47420.32    3984.4892   -51404.809    0.1465188 
   63800    295.77146   -314.32927    149072.82   -47450.464    4061.7088   -51512.173   0.14677428 
   64000    295.02386   -795.21865    149702.84   -47437.554    4051.4423   -51488.997   0.15014527 
   64200    294.38619   -638.58526    149463.65   -47441.123    4042.6854   -51483.809   0.14737565 
   64400    297.64352   -172.79594    148885.88   -47432.528     4087.417   -51519.945   0.14595495 
   64600    294.28029    -477.0659    149242.13   -47487.683    4041.2311   -51528.914   0.14579261 
   64800    292.77145   -818.99946    149728.68   -47493.215    4020.5108   -51513.726   0.14743676 
   65000    292.73336   -499.86361     149301.3   -47486.107    4019.9878   -51506.095   0.14477406 
   65200    294.24733   -197.14102    148887.26    -47517.45    4040.7786   -51558.229   0.14726984 
   65400    296.09413   -561.23864    149376.19       -47541    4066.1398    -51607.14   0.14316726 
   65600    287.31189   -799.65731    149668.76   -47561.257     3945.537   -51506.794   0.14824547 
   65800    297.76452   -369.37446    149127.17   -47541.006    4089.0787   -51630.085    0.1449289 
   66000    288.99818   -276.81092    148931.44   -47541.092    3968.6941   -51509.786   0.14474389 
   66200     289.5183   -619.88017    149456.36     -47562.8    3975.8366   -51538.637   0.14222412 
   66400    297.11068    -654.2531    149540.53   -47556.585    4080.0997   -51636.684   0.13951456 
   66600    293.98672   -343.11958    149070.81   -47572.759    4037.1996   -51609.958   0.14263477 
   66800     293.1559   -347.09948    149056.13   -47556.099    4025.7903   -51581.889   0.14656295 
   67000    290.90563   -690.68105    149489.96   -47581.825    3994.8883   -51576.713   0.14786589 
   67200    286.24176   -641.65812    149444.11   -47602.334    3930.8412   -51533.175   0.14934315 
   67400    290.26611   -369.00545    149053.89   -47639.459     3986.106   -51625.565   0.14465314 
   67600    290.25162   -358.66343    149140.25   -47594.672     3985.907   -51580.579   0.14139229 
   67800    286.75684   -648.56919    149498.97   -47538.951    3937.9147   -51476.866   0.14595416 
   68000    294.32653   -592.48886    149393.54   -47535.657    4041.8661   -51577.523   0.14451565 
   68200    287.64902   -390.33274    149069.04   -47611.477    3950.1666   -51561.644   0.14470033 
   68400    293.95554   -401.47514    149164.09   -47554.592    4036.7715   -51591.363   0.14473695 
   68600     286.0964   -671.53059    149419.56   -47536.286     3928.845   -51465.131   0.15162355 
   68800    290.62202    -533.6093    149281.36   -47504.376    3990.9936    -51495.37   0.14926328 
   69000    288.77767   -366.71168    149090.88   -47550.863    3965.6659   -51516.529   0.14928195 
   69200    290.10259   -469.14429    149213.75   -47555.666    3983.8604   -51539.526   0.14969798 
   69400    285.34502   -642.26119    149344.72   -47592.659    3918.5267   -51511.185    0.1517048 
   69600    286.74344   -499.60391    149216.99   -47606.363    3937.7307   -51544.094   0.14616871 
   69800     288.7209   -439.08748    149115.52   -47573.647    3964.8863   -51538.533   0.14430796 
   70000    287.37404   -541.19896    149274.02   -47532.648    3946.3904   -51479.039   0.14676729 
   70200    293.49903   -650.37429    149350.23   -47515.109    4030.5024   -51545.611   0.15184399 
   70400     296.6215   -451.02938    149154.08   -47530.195     4073.382   -51603.577    0.1477181 
   70600    292.07538   -401.66406    149079.59   -47502.311     4010.952   -51513.263   0.14837499 
   70800    291.70768   -491.83493    149297.83   -47524.668    4005.9025   -51530.571   0.14153741 
   71000    286.59269   -581.47119    149359.69   -47569.011    3935.6605   -51504.671   0.14780044 
   71200    290.37557   -455.82416    149134.39   -47579.356    3987.6092   -51566.965   0.14940808 
   71400     291.5283   -403.67682    149132.55     -47546.1    4003.4392    -51549.54   0.14742033 
   71600    291.71085   -638.24321    149394.61    -47522.77    4005.9461   -51528.716   0.14790745 
   71800     292.0428   -593.45461    149325.86   -47543.219    4010.5046   -51553.723   0.14422766 
   72000    288.99617   -372.40532    149063.27    -47569.81    3968.6664   -51538.477   0.14390701 
   72200    290.99267   -461.84228    149163.84   -47604.626    3996.0836   -51600.709   0.14466999 
   72400    288.28244   -583.36786    149415.52   -47583.758    3958.8652   -51542.623   0.14952982 
   72600    287.92729   -563.09972    149292.45   -47551.212     3953.988     -51505.2   0.15116672 
   72800    287.57984   -375.53173    149042.78    -47629.33    3949.2166   -51578.546   0.14338551 
   73000    290.93653   -464.79876    149188.74   -47626.791    3995.3126   -51622.104   0.13993557 
   73200    287.61411   -678.79563    149418.79   -47637.829    3949.6872   -51587.517   0.14771099 
   73400    291.79333   -485.12075    149194.79   -47634.088    4007.0787   -51641.166   0.14388851 
   73600    283.71144   -318.88377     148970.5    -47617.41    3896.0934   -51513.503   0.14250549 
   73800    287.93297   -514.37805    149223.75   -47611.418     3954.066   -51565.484   0.14752211 
   74000    288.79865   -659.29086     149397.1   -47656.735     3965.954   -51622.689    0.1439481 
   74200    285.37354   -401.42001    149076.99   -47653.565    3918.9184   -51572.483   0.14176507 
   74400    292.57863    -318.5392    148947.13   -47618.383    4017.8629   -51636.246    0.1406029 
   74600    284.95605    -629.2151    149375.73   -47637.367    3913.1852   -51550.552   0.14658045 
   74800    288.28964   -725.43653    149479.54    -47646.52    3958.9639   -51605.484   0.14755455 
   75000    292.02079   -316.15826    148981.52   -47613.332    4010.2023   -51623.534   0.13858096 
   75200     288.4662   -300.91712    148996.17   -47600.412    3961.3885   -51561.801   0.14226568 
   75400    287.83571   -740.87258    149584.62   -47583.899    3952.7304    -51536.63   0.14613388 
   75600    291.07864   -699.44243    149493.59   -47564.017    3997.2642   -51561.282   0.14831475 
   75800    289.68648   -225.65706    148872.62   -47544.711    3978.1462   -51522.857   0.14391367 
   76000    290.49435   -367.68486    149070.98   -47531.131    3989.2404   -51520.372   0.14745288 
   76200    292.25135    -842.4177    149742.12   -47551.949    4013.3685   -51565.318    0.1504682 
   76400    297.23327   -588.84811       149399   -47524.885    4081.7831   -51606.668    0.1430347 
   76600    291.84901   -39.322128    148728.93   -47515.253    4007.8433   -51523.096   0.13830852 
   76800     288.4521   -502.57257    149257.58    -47513.62     3961.195   -51474.815   0.14685806 
   77000    293.09126   -945.24107    149908.01   -47509.779    4024.9027   -51534.682   0.15249999 
   77200    287.68347   -502.81922    149259.06    -47562.11    3950.6397    -51512.75   0.14337819 
   77400    291.97242   -32.167997    148669.14   -47555.434    4009.5381   -51564.972   0.13820579 
   77600     288.4342   -599.76543    149375.25   -47568.694    3960.9491   -51529.643   0.14734894 
   77800    291.84983    -896.2685    149811.32   -47576.309    4007.8546   -51584.163   0.14849166 
   78000    291.76485    -354.8002    149093.43   -47582.739    4006.6876   -51589.427   0.14272055 
   78200    291.94528   -149.81093    148819.85   -47578.021    4009.1654   -51587.186   0.14144726 
   78400    291.80996    -672.6983    149507.68   -47594.915    4007.3071   -51602.222   0.14420183 
   78600    291.45875   -779.92653    149630.56   -47611.358    4002.4841   -51613.842    0.1428159 
   78800     287.0172   -333.28207    149009.99   -47601.728    3941.4901   -51543.218   0.14213852 
   79000    286.65465   -321.01702    148989.73   -47584.799    3936.5114    -51521.31    0.1450662 
   79200    288.94634   -716.23514    149506.99   -47592.723    3967.9822   -51560.706   0.15310085 
   79400     294.2985   -597.96383    149439.97   -47545.117    4041.4812   -51586.599    0.1412253 
   79600    290.63578   -329.04159    149009.18   -47538.391    3991.1826   -51529.574   0.14740368 
   79800    293.46651   -399.48166     149148.1   -47565.132    4030.0558   -51595.188   0.14550981 
   80000     288.7029   -662.98745    149492.23   -47532.755    3964.6391   -51497.394    0.1515638 
   80200     292.2375   -547.92185    149320.89   -47499.175    4013.1783   -51512.354   0.14599148 
   80400    292.15444   -360.97398    149076.59   -47470.777    4012.0377   -51482.815   0.14513367 
   80600    294.36222   -520.06621    149298.81   -47490.531    4042.3562   -51532.887   0.14826987 
   80800    291.20125   -649.40213    149476.35   -47431.655     3998.948   -51430.603   0.15435559 
   81000    292.89978   -448.55253    149247.26   -47486.245    4022.2732   -51508.518   0.14328054 
   81200    291.91348   -398.16417    149138.78   -47467.049    4008.7287   -51475.778   0.14596432 
   81400    296.69831   -575.63664    149378.85    -47442.26    4074.4368   -51516.697   0.15127572 
   81600    295.74755   -584.20218    149425.36   -47462.673    4061.3804   -51524.054   0.14407288 
   81800    293.49075   -400.76836    149197.81   -47468.328    4030.3887   -51498.717   0.14226552 
   82000    292.99719   -456.02152    149185.66   -47435.671    4023.6109   -51459.282   0.14952503 
   82200    298.15495   -563.97782    149395.92   -47478.992    4094.4403   -51573.432    0.1445126 
   82400    292.63168   -537.59553    149354.89   -47481.154    4018.5914   -51499.746    0.1435407 
   82600    295.84393   -380.56889    149131.91   -47526.775    4062.7039   -51589.479   0.14013343 
   82800    292.13426   -475.78429    149202.71   -47565.858    4011.7606   -51577.618     0.149809 
   83000    293.85481   -580.08213    149393.23   -47548.323    4035.3882   -51583.711    0.1468248 
   83200    289.28901   -546.49997    149310.54   -47568.562    3972.6879    -51541.25   0.14398297 
   83400     288.1897   -394.12011    149105.25   -47590.034    3957.5915   -51547.625   0.14575868 
   83600    286.97259   -493.02601    149220.49   -47606.209    3940.8775   -51547.087   0.15180668 
   83800    294.67324   -607.37072    149416.32   -47553.834    4046.6273   -51600.462   0.14523475 
   84000    285.26563   -497.48483    149220.24   -47584.268    3917.4365   -51501.704   0.14511554 
   84200    289.24831   -356.50733    149025.46   -47573.906     3972.129   -51546.035   0.14994893 
   84400    291.98707   -497.50182    149265.16   -47576.742    4009.7393   -51586.482   0.15047302 
   84600    288.69483   -638.89975    149449.24   -47571.023    3964.5283   -51535.551   0.14848809 
   84800    294.47158   -438.90587    149159.94   -47583.692     4043.858    -51627.55   0.14253068 
   85000    293.56525   -330.67533    148999.66   -47548.509    4031.4118   -51579.921   0.15185678 
   85200    293.17798   -605.74155    149384.95   -47515.903    4026.0935   -51541.996   0.15511064 
   85400    294.61562   -770.17784    149521.26   -47500.512     4045.836   -51546.348   0.15479117 
   85600    295.15912   -318.63609    149018.26   -47501.469    4053.2998   -51554.769   0.14392937 
   85800    293.53332   -235.14417    148893.36   -47516.499    4030.9733   -51547.472   0.14417868 
   86000    292.83266   -710.01125    149491.07   -47465.703    4021.3515   -51487.054   0.15514504 
   86200    291.31346   -771.55542    149577.86   -47473.267    4000.4888   -51473.756    0.1529998 
   86400    297.62512   -209.81219    148837.79   -47473.654    4087.1642   -51560.818   0.14880696 
   86600    295.25463   -259.04285    148885.97   -47473.319    4054.6113   -51527.931   0.15395035 
   86800    292.05335   -896.62418    149772.09   -47494.263    4010.6495   -51504.912   0.15235482 
   87000    290.45922   -761.13337    149538.67   -47518.195     3988.758   -51506.953   0.15001419 
   87200    292.46864   -4.7094272    148528.85    -47493.39    4016.3525   -51509.742    0.1538866 
   87400    291.39773   -252.38981    148945.51   -47455.846    4001.6461   -51457.492   0.15452127 
   87600    291.11292   -1061.1348    149965.25   -47512.158    3997.7349   -51509.893   0.15786975 
   87800    289.50413    -611.0452    149323.56   -47524.915     3975.642   -51500.557   0.15074186 
   88000    291.91401    116.88883    148425.91   -47479.135     4008.736   -51487.871   0.14800615 
   88200    293.50511   -485.51587    149191.78   -47490.395    4030.5859    -51520.98   0.15142159 
   88400    293.36087   -978.94487    149854.18   -47468.116    4028.6051   -51496.721   0.15530761 
   88600    293.87917   -471.25112    149156.33   -47488.849    4035.7227   -51524.571   0.15566479 
   88800    288.96369    -195.2733     148799.8   -47481.579    3968.2204   -51449.799     0.155411 
   89000    293.62751   -574.72683    149350.38   -47500.851    4032.2668   -51533.118   0.14569482 
   89200    291.88403   -766.68816    149539.48   -47472.013    4008.3242   -51480.337   0.15324246 
   89400    299.54716   -408.14673    149114.94   -47447.967     4113.559   -51561.526   0.15119972 
   89600    295.72448   -330.38203     148981.7   -47470.319    4061.0636   -51531.382   0.15106466 
   89800    294.84522   -579.60873    149314.71   -47504.345    4048.9891   -51553.334    0.1509861 
   90000    288.37994   -653.66193    149383.14   -47518.842     3960.204   -51479.046   0.15114193 
   90200    293.40368   -417.20901    149082.44   -47567.786     4029.193   -51596.979   0.14783432 
   90400    288.88778   -370.33379    149036.61    -47588.47     3967.178   -51555.648   0.14744664 
   90600    293.07389   -569.04443    149322.93   -47579.074    4024.6642   -51603.738   0.14445798 
   90800    287.39954   -632.68194    149333.92   -47601.489    3946.7406    -51548.23   0.15100549 
   91000    294.04068   -389.56926    149016.21   -47604.879    4037.9407    -51642.82   0.14454388 
   91200    288.94459   -409.13478    149053.84   -47618.826    3967.9582   -51586.784   0.14821467 
   91400    290.33366   -656.53941    149405.17   -47606.069    3987.0337   -51593.102    0.1497329 
   91600    283.54906   -584.95763     149308.9   -47609.944    3893.8636   -51503.807   0.14934984 
   91800    286.60399   -343.04581    148961.31   -47588.739    3935.8157   -51524.554    0.1518517 
   92000     287.0971   -447.95915    149086.67   -47603.598    3942.5873   -51546.185   0.14981877 
   92200     290.7338   -650.36551    149417.93   -47622.696    3992.5286   -51615.225    0.1435549 
   92400    290.26382   -510.12822    149249.79   -47603.583    3986.0745   -51589.658   0.14487339 
   92600    289.29009   -336.46493    148960.05   -47662.577    3972.7028   -51635.279   0.14176753 
   92800    290.67696   -471.17954    149162.07   -47631.098     3991.748   -51622.846   0.14458662 
   93000    287.73846   -716.54296    149446.36   -47555.737    3951.3948   -51507.132   0.15092886 
   93200    290.35428   -510.60907    149228.78   -47556.576    3987.3169   -51543.893   0.14855946 
   93400    289.91372   -312.99938    148970.05    -47560.84    3981.2668   -51542.107   0.14755804 
   93600    289.45228   -484.37346    149186.64    -47543.53      3974.93    -51518.46   0.14620054 
   93800    293.95084   -675.96725    149424.87   -47532.007    4036.7069   -51568.714   0.15302728 
   94000    291.18464   -505.43608    149174.41    -47534.37    3998.7198    -51533.09   0.15540385 
   94200    287.02822   -350.08121    148943.61   -47618.012    3941.6415   -51559.654   0.14707487 
   94400    290.20107   -520.14486    149218.03   -47602.363    3985.2129   -51587.576   0.14721931 
   94600    291.83856   -666.13923    149419.56    -47597.16    4007.6999   -51604.859   0.14628298 
   94800    290.50263    -411.5438    149090.68   -47651.083     3989.354   -51640.437   0.14532681 
   95000     288.5723   -311.74631    148918.15   -47658.776    3962.8456   -51621.622   0.14751119 
   95200    285.39263   -566.87445    149277.84   -47661.713    3919.1805   -51580.894   0.14808637 
   95400    286.01929   -699.36388     149434.2   -47671.878    3927.7862   -51599.664   0.15149876 
   95600    290.53508   -343.82783    149051.45   -47637.824    3989.7997   -51627.624    0.1435504 
   95800    289.93044   -334.51359    148963.02   -47603.418    3981.4964   -51584.914   0.14829031 
   96000     289.3662   -668.63145    149375.37   -47591.689     3973.748   -51565.437   0.15420974 
   96200    288.80308   -682.42897    149403.15   -47633.327    3966.0148   -51599.342   0.15190476 
   96400    288.65275   -331.21736    148956.64   -47631.003    3963.9505   -51594.953    0.1497297 
   96600    288.53801   -392.72323    149027.17    -47642.92    3962.3747   -51605.295   0.14677025 
   96800    282.28324   -732.62658     149496.9   -47690.878    3876.4806   -51567.359   0.15162489 
   97000    284.87048   -583.20892    149336.16   -47676.307      3912.01   -51588.317   0.14808243 
   97200    288.17477   -210.13248    148832.73   -47667.138    3957.3865   -51624.524   0.14729678 
   97400    290.10405   -405.98867     149094.8   -47622.099    3983.8805   -51605.979   0.14887764 
   97600    290.94237   -810.48725    149672.35   -47587.245    3995.3928   -51582.637    0.1483359 
   97800    287.41547   -499.14201    149297.69   -47584.552    3946.9593   -51531.512   0.14621805 
   98000    293.84804    -122.1207    148717.72   -47560.888    4035.2952   -51596.183    0.1435788 
   98200    287.41681   -482.87144    149226.89    -47569.52    3946.9778   -51516.498   0.15290669 
   98400    292.59746   -928.94296    149784.03   -47492.902    4018.1215   -51511.023   0.16000304 
   98600     290.9648   -439.09993    149127.14   -47545.447    3995.7009   -51541.148   0.14731872 
   98800    296.18649   -59.550718    148691.48   -47511.397    4067.4082   -51578.805   0.14420759 
   99000    289.60264   -675.04792    149477.93    -47510.68    3976.9949   -51487.675   0.15441706 
   99200    290.96593   -885.41263    149763.32   -47570.897    3995.7164   -51566.613   0.15347671 
   99400    286.40138   -280.45515    148908.19   -47671.773    3933.0333   -51604.806   0.14414685 
   99600    286.92884   -94.866386    148728.81   -47696.469    3940.2767   -51636.745   0.14081409 
   99800    287.95266   -777.58778    149549.58   -47663.108    3954.3364   -51617.444   0.14657748 
  100000    288.46884   -785.36446    149578.23   -47661.214    3961.4249   -51622.639   0.14853677 
  100200    287.98486   -237.44727    148882.23   -47624.411    3954.7786   -51579.189   0.14538456 
  100400    289.94907   -307.21813    148994.78   -47623.109    3981.7522   -51604.861   0.14555278 
  100600    291.99165   -771.74882    149555.29   -47567.449    4009.8022   -51577.251   0.15121635 
  100800    287.63348   -609.14551    149373.99   -47597.402    3949.9532   -51547.356   0.14896662 
  101000    286.57781   -283.96979    148949.27   -47583.044    3935.4561     -51518.5   0.14847868 
  101200    289.68778    -453.5043    149166.52   -47560.887    3978.1641   -51539.051   0.14674785 
  101400    289.02271   -674.37596    149466.74   -47564.802    3969.0309   -51533.833   0.15301024 
  101600    293.92939   -500.57692    149200.91   -47584.081    4036.4124   -51620.493   0.14893168 
  101800    294.83346   -313.52425    148995.28   -47552.197    4048.8276   -51601.025   0.14594547 
  102000    293.07679   -534.33627    149294.61   -47551.722     4024.704   -51576.426   0.14788245 
  102200    293.38153   -693.54927    149459.41   -47542.542    4028.8888   -51571.431   0.15037622 
  102400    293.44746   -451.87069    149152.73    -47486.76    4029.7942   -51516.554   0.15199856 
  102600    299.26724   -356.09997    149023.89   -47500.534    4109.7148   -51610.249   0.14721709 
  102800    288.97018   -612.12764    149349.34   -47509.716    3968.3095   -51478.025   0.15195125 
  103000    286.34802   -692.94691    149471.42   -47501.104    3932.3005   -51433.405   0.15431819 
  103200    296.52785   -369.76501    149122.48   -47484.484    4072.0959    -51556.58   0.14444047 
  103400    291.81013   -374.13249    149065.36   -47514.232    4007.3094   -51521.541   0.14900378 
  103600    289.37805   -620.60435    149415.24   -47515.559    3973.9107   -51489.469   0.15229981 
  103800    290.25459   -604.32569     149429.4   -47519.864    3985.9478   -51505.812   0.14646759 
  104000    287.62204   -347.64192    149102.82   -47531.534    3949.7962    -51481.33   0.14977319 
  104200    290.71821   -403.06778    149152.39   -47545.967    3992.3145   -51538.281   0.14519251 
  104400    291.90736   -644.15137    149469.73   -47560.702    4008.6446   -51569.347   0.14548387 
  104600    293.78621   -562.97028    149367.18   -47557.008    4034.4461   -51591.455   0.14568089 
  104800    290.34673   -336.71641    149028.82   -47549.475    3987.2131   -51536.688   0.14470615 
  105000    291.13192   -390.87825    149153.53   -47578.585    3997.9959   -51576.581   0.14672426 
  105200    291.17699   -641.77187    149444.47   -47576.639    3998.6147   -51575.254   0.14354637 
  105400    289.63266   -556.51298    149240.58   -47569.117    3977.4072   -51546.524   0.15117806 
  105600    290.14849   -342.06115    148976.43   -47569.543    3984.4909   -51554.033    0.1494241 
  105800    294.10086   -473.35389    149280.52   -47584.652     4038.767   -51623.419   0.14175498 
  106000    287.24659   -712.32816    149499.22   -47562.261    3944.6402   -51506.901   0.14959046 
  106200    293.69792   -435.56915    149132.61   -47541.499    4033.2337   -51574.732   0.14816205 
  106400    294.96551   -321.27546    148994.28   -47555.508     4050.641   -51606.149   0.14701266 
  106600    291.78165   -595.45845    149402.41   -47553.507    4006.9183   -51560.425   0.14642873 
  106800    293.84165   -635.38715    149453.94   -47545.689    4035.2074   -51580.897   0.14786071 
  107000     291.7734    -297.1306    148991.12    -47505.49     4006.805   -51512.295   0.14838518 
  107200    293.67917   -363.63042    149056.26   -47494.747    4032.9762   -51527.724   0.15408067 
  107400    292.05973   -729.01935    149539.47   -47496.216    4010.7371   -51506.953   0.15065246 
  107600    295.25681   -604.39046    149373.86    -47476.24    4054.6413   -51530.881   0.15038258 
  107800    293.27296   -221.98796    148910.03   -47500.102    4027.3979     -51527.5   0.14599762 
  108000    298.40404   -403.12064    149190.69   -47476.323    4097.8609   -51574.184   0.14428982 
  108200    292.88773   -829.71496    149685.23   -47505.859    4022.1077   -51527.966   0.15274338 
  108400    290.66902   -508.60798    149288.02   -47504.631     3991.639    -51496.27   0.14539631 
  108600    293.56776   -93.619641    148809.02    -47479.89    4031.4462   -51511.336   0.14102995 
  108800    289.63024   -558.91359    149369.12   -47499.969    3977.3739   -51477.343   0.14694977 
  109000    293.47769   -941.66718    149809.35   -47533.598    4030.2093   -51563.807   0.15043269 
  109200    293.55131   -341.18043     149040.6   -47541.063    4031.2203   -51572.283   0.14409904 
  109400      293.321   -41.111515    148665.98   -47527.906    4028.0576   -51555.963   0.14577436 
  109600    293.50508   -770.49288    149597.86    -47483.77    4030.5855   -51514.356   0.14978352 
  109800    292.45508   -943.60181     149827.9   -47530.256    4016.1663   -51546.422   0.15042883 
  110000    291.50655   -116.43684    148754.15   -47477.154    4003.1405   -51480.295   0.15121574 
  110200    291.60286   -84.616245    148727.39   -47464.651     4004.463   -51469.114   0.14812833 
  110400    291.48345   -947.92989    149781.17   -47508.681    4002.8233   -51511.505   0.15435415 
  110600    290.25287   -767.18071    149572.41   -47581.578    3985.9242   -51567.502   0.14801266 
  110800    295.03296   -64.677501    148642.82   -47583.773    4051.5673    -51635.34   0.14510648 
  111000    291.21246   -339.77641    148989.18   -47585.608    3999.1018   -51584.709   0.14853946 
  111200    289.72194   -852.58154    149699.38   -47566.435    3978.6331   -51545.068   0.15211909 
  111400    288.49347   -556.14291    149336.57   -47623.489    3961.7631   -51585.252   0.14952615 
  111600    286.16398   -222.65526    148835.93   -47679.767    3929.7732    -51609.54   0.14647351 
  111800    283.93377    -508.2695     149122.8    -47711.51    3899.1465   -51610.657   0.15236529 
  112000    285.88406   -689.36792    149453.17    -47699.29    3925.9291   -51625.219   0.14828611 
  112200    286.42657   -490.32018    149188.14   -47659.709    3933.3791   -51593.088   0.14918847 
  112400    289.47127   -344.24696    148991.22   -47630.083    3975.1908   -51605.274   0.14796917 
  112600    288.00851   -565.17985     149281.1     -47603.8    3955.1034   -51558.903   0.15232201 
  112800    285.42268   -647.82195    149412.16   -47617.743    3919.5932   -51537.337   0.15099339 
  113000    284.61746   -418.38141    149086.27   -47598.002    3908.5354   -51506.538   0.14775382 
  113200    289.23227   -363.15097    149005.23   -47634.005    3971.9088   -51605.914   0.14369895 
  113400    285.20926   -582.66692     149316.5    -47611.91    3916.6624   -51528.572   0.14696896 
  113600    287.10182   -649.68422    149379.07   -47616.176    3942.6521   -51558.828   0.15472311 
  113800    291.63197   -432.53008    149100.86   -47601.923    4004.8628   -51606.785    0.1486647 
  114000    291.16808   -397.92973    149111.76   -47587.212    3998.4924   -51585.705   0.14624708 
  114200    296.37737    -597.6278    149393.07   -47597.877    4070.0295   -51667.907   0.14112056 
  114400    287.79233   -593.92352    149334.63   -47538.929    3952.1346   -51491.063   0.15414554 
  114600    295.62699   -374.07328    149077.57   -47514.056    4059.7248   -51573.781   0.15027743 
  114800    294.96285   -444.31224    149177.67   -47500.583    4050.6044   -51551.187   0.15050117 
  115000    290.80582   -653.46888    149437.48   -47527.145    3993.5177   -51520.663   0.15323015 
  115200    291.02178   -566.36983    149287.85   -47542.874    3996.4834   -51539.357   0.14985156 
  115400     289.4996   -344.37614    149016.22   -47557.336    3975.5799   -51532.916   0.14865569 
  115600    284.53537   -503.54703    149195.17   -47538.456    3907.4082   -51445.864   0.15796201 
  115800    294.67514   -670.03177    149445.43   -47551.939    4046.6534   -51598.593   0.15377673 
  116000    291.19988   -487.29519    149217.68   -47537.956     3998.929   -51536.885   0.15146333 
  116200    292.65518   -339.60159    148995.81   -47558.758    4018.9141   -51577.672   0.14719345 
  116400    290.46519   -498.27378     149279.2   -47597.981    3988.8399   -51586.821    0.1418427 
  116600    289.23497    -640.6162    149463.49   -47608.208    3971.9458   -51580.154   0.14494945 
  116800    289.91299   -460.02382    149116.04   -47567.374    3981.2567   -51548.631   0.15259299 
  117000    290.45429   -327.72333    148999.77   -47575.711    3988.6903   -51564.401   0.15086396 
  117200    287.39355   -636.44143    149395.35   -47563.335    3946.6583   -51509.993   0.15333236 
  117400     289.6534   -670.28425    149454.85   -47588.112     3977.692   -51565.804   0.14767511 
  117600     283.1585   -342.52489    149001.69   -47570.545    3888.5002   -51459.045   0.15149706 
  117800    290.96638    -346.1216    149029.52   -47531.853    3995.7225   -51527.576   0.14752173 
  118000    294.20353   -707.22274    149543.73   -47521.051    4040.1769   -51561.228   0.15440338 
  118200    290.17362   -645.87438    149434.19   -47554.029     3984.836   -51538.865   0.15323349 
  118400    287.45337   -211.77834    148832.05   -47608.337    3947.4798   -51555.816   0.14502724 
  118600    287.87818   -337.61814    149008.85   -47635.997    3953.3136   -51589.311   0.14534509 
  118800    280.71378   -843.87278     149659.3   -47678.284    3854.9278   -51533.212   0.15209387 
  119000    289.54832   -578.94987    149326.15   -47681.481    3976.2489    -51657.73   0.15258341 
  119200    285.94579   -99.255174    148639.12   -47686.458    3926.7769   -51613.235   0.15135243 
  119400    285.69013   -465.46549     149138.6   -47711.347     3923.266   -51634.613   0.14762502 
  119600    288.50625   -973.31907    149820.96   -47643.751    3961.9386   -51605.689   0.15513123 
  119800    287.81786   -447.54175    149159.19   -47646.293    3952.4853   -51598.778   0.14622127 
  120000     287.9234    -2.567329    148585.75   -47667.569    3953.9346   -51621.504   0.14253638 
  120200    286.90482   -613.35284    149371.54   -47636.661    3939.9468   -51576.608   0.14935632 
  120400    285.84237   -967.62945    149805.77   -47677.605    3925.3566   -51602.961   0.15507218 
  120600     286.4875   -338.79697    148962.55   -47678.255    3934.2159   -51612.471   0.14427493 
  120800    288.65327   -143.72098    148697.73   -47672.038    3963.9576   -51635.996   0.14607948 
  121000     289.7085   -733.28357    149509.41   -47652.179    3978.4486   -51630.627   0.15025981 
  121200    286.04196   -805.96089    149589.69   -47647.866    3928.0975   -51575.964   0.15507868 
  121400    286.28653   -234.13283    148909.99   -47651.012    3931.4561   -51582.468    0.1468779 
  121600    288.78629   -281.68322    148924.15   -47642.761    3965.7843   -51608.545   0.14746015 
  121800    292.45252   -698.48119     149443.2   -47636.884     4016.131   -51653.015   0.14333381 
  122000    293.45792   -617.96392     149348.7    -47615.48    4029.9379   -51645.418    0.1428924 
  122200    289.66844   -320.49027    148963.56   -47585.178    3977.8985   -51563.076   0.14851192 
  122400    298.20668   -413.95189    149136.21   -47539.577    4095.1506   -51634.728    0.1485987 
  122600    296.59658   -677.65338    149473.11   -47457.449    4073.0398   -51530.489   0.15350803 
  122800    298.46333   -504.01737    149290.83   -47459.009    4098.6751   -51557.684   0.14794051 
  123000    295.94716   -355.46705    149024.58   -47507.306    4064.1216   -51571.427   0.15039361 
  123200    292.63512   -462.88751     149192.4   -47530.209    4018.6387   -51548.848   0.15313829 
  123400    286.71001    -680.7866    149379.35   -47610.374    3937.2715   -51547.645   0.15440713 
  123600    288.61331   -506.50232    149186.59   -47559.652    3963.4088   -51523.061   0.15302854 
  123800    287.98384   -393.25806    149053.06   -47582.684    3954.7646   -51537.448   0.14578855 
  124000    292.32938   -501.57937    149269.69   -47564.768    4014.4401   -51579.208   0.14285362 
  124200    289.66793   -611.53999    149393.82   -47547.465    3977.8915   -51525.356   0.14668823 
  124400     292.1399   -465.29837    149151.26   -47563.834    4011.8381   -51575.672   0.14544639 
  124600    292.54943   -340.41807    149050.59   -47581.387     4017.462   -51598.849   0.14717268 
  124800    291.26581   -603.07629    149300.01   -47584.945    3999.8345    -51584.78   0.15117576 
  125000    283.56025   -621.03829    149353.14   -47591.788    3894.0173   -51485.805   0.15260472 
  125200    290.56351   -402.90488    149094.01   -47585.058    3990.1901   -51575.248   0.14921197 
  125400    290.92402   -412.81785       149093   -47653.177    3995.1409   -51648.318   0.14474308 
  125600    288.02863   -619.56279     149373.6   -47645.619    3955.3797   -51600.999   0.14432663 
  125800    290.10122   -573.90007    149349.89   -47636.192    3983.8416   -51620.033   0.14117917 
  126000     291.8938   -378.34436    149072.74   -47606.133    4008.4585   -51614.592    0.1395527 
  126200    290.18289   -406.99888    149139.85   -47586.629    3984.9632   -51571.592   0.14407136 
  126400    293.86126   -624.50877    149413.02   -47613.953    4035.4768   -51649.429   0.14215394 
  126600    287.98479   -543.22009    149292.62   -47639.058    3954.7776   -51593.835   0.14085122 
  126800    285.42915   -313.31466    148991.68   -47612.591    3919.6821   -51532.273   0.14761699 
  127000     286.3284     -490.883    149177.71   -47629.516     3932.031   -51561.547   0.15038833 
  127200    285.71852   -714.99805     149505.2   -47661.187    3923.6558   -51584.842   0.14776233 
  127400    284.04905   -549.82937    149234.74   -47661.983    3900.7297   -51562.712    0.1444613 
  127600    290.66025   -220.98391    148873.69   -47658.991    3991.5185    -51650.51   0.13653153 
  127800    289.88883   -511.61364    149217.54   -47646.853     3980.925   -51627.778      0.14641 
  128000    285.92819   -813.92853    149567.59   -47639.464    3926.5351   -51565.999   0.15119304 
  128200    290.92299   -422.31909       149116   -47608.697    3995.1267   -51603.824   0.14374624 
  128400    283.98873   -202.65483    148770.46   -47636.756    3899.9013   -51536.657   0.14338712 
  128600    288.80437   -644.27051    149343.94   -47665.579    3966.0326   -51631.612   0.14433407 
  128800     286.4475   -819.99121    149611.57   -47697.839    3933.6666   -51631.506   0.14506455 
  129000    283.77404   -280.82774    148909.81   -47736.569    3896.9531   -51633.522   0.14475347 
  129200    287.17447   -125.76174    148736.85   -47695.469    3943.6498   -51639.119   0.14176178 
  129400    283.54111   -770.87408    149562.02   -47689.352    3893.7543   -51583.106   0.14733405 
  129600    286.23152   -814.15443    149647.11   -47687.664    3930.7006   -51618.364   0.14455394 
  129800    284.43865   -167.00823    148772.44   -47705.428    3906.0799   -51611.508   0.13914748 
  130000    285.27347   -237.90482    148819.35   -47716.519    3917.5442   -51634.063   0.14052602 
  130200    287.39197   -844.55358    149670.43   -47728.115    3946.6367   -51674.752   0.14452667 
  130400    289.19523   -710.82411    149475.93   -47714.271    3971.4001   -51685.671   0.14381911 
  130600    288.12432   -155.49626    148714.19   -47675.666    3956.6938    -51632.36   0.14383329 
  130800    287.64632   -364.10528    149023.46   -47697.049    3950.1295   -51647.179   0.13874063 
  131000     288.0135   -842.31004    149655.32   -47710.092    3955.1718   -51665.264   0.14526856 
  131200    285.64274   -549.55638    149298.93   -47685.276    3922.6152   -51607.891   0.14327766 
  131400    289.46579   -239.38466    148823.44   -47691.201    3975.1155   -51666.316    0.1435876 
  131600    286.93914    -421.2524     149174.6   -47682.344    3940.4181   -51622.762    0.1395783 
  131800    283.93965    -775.9903    149507.87   -47651.059    3899.2273   -51550.286   0.14889005 
  132000    286.75666   -480.80038    149175.05   -47597.601    3937.9122   -51535.513   0.14739062 
  132200    290.28091   -320.36244     148980.1   -47607.255    3986.3093   -51593.564   0.14239308 
  132400    288.87493    -587.4876    149301.31   -47608.704    3967.0016   -51575.705   0.14733983 
  132600    286.80626   -685.12261     149420.3   -47583.458    3938.5933   -51522.051   0.14902005 
  132800    294.97511   -378.67484    149139.27   -47556.056    4050.7729   -51606.829   0.14159215 
  133000    291.04021   -399.62986    149087.26     -47551.4    3996.7364   -51548.136   0.14427371 
  133200    289.67328   -592.90198    149360.29   -47497.283    3977.9649   -51475.248    0.1495032 
  133400    293.63455   -612.71053    149391.89   -47482.981    4032.3634   -51515.345   0.15074284 
  133600    291.55014   -408.92203    149144.52    -47497.79    4003.7391   -51501.529   0.15013258 
  133800    290.69005   -440.58583    149169.55   -47518.432    3991.9278    -51510.36   0.14992672 
  134000    294.94177   -600.55181     149373.8   -47466.561     4050.315   -51516.876    0.1488447 
  134200    297.97285   -507.53906    149324.27   -47480.531    4091.9396   -51572.471   0.14155993 
  134400    292.44791    -442.5739    149133.21   -47480.387    4016.0678   -51496.455   0.14910606 
  134600    293.69988   -477.22515    149172.26   -47495.549    4033.2606   -51528.809   0.14713205 
  134800    292.85326   -591.84128    149313.67   -47535.679    4021.6343   -51557.313   0.14603001 
  135000    285.50154    -549.8131    149217.95   -47590.821    3920.6762   -51511.497   0.15018923 
  135200     287.4845   -472.83488    149119.13   -47601.054    3947.9073   -51548.961   0.14870673 
  135400    286.73779   -506.89954    149213.44   -47622.384     3937.653   -51560.037   0.14622566 
  135600    291.17192   -562.78078     149270.3   -47585.545    3998.5451    -51584.09    0.1470151 
  135800    288.60669   -467.15683    149169.71   -47657.422    3963.3179    -51620.74   0.14623707 
  136000    287.32116    -437.0393    149094.58   -47690.381    3945.6643   -51636.045   0.14651298 
  136200    288.59952   -511.45263    149221.38   -47700.476    3963.2194   -51663.695   0.14122396 
  136400    286.79761   -594.98616    149316.94   -47653.263    3938.4745   -51591.737   0.14181702 
  136600    289.72548   -440.48719    149193.14   -47597.415    3978.6818   -51576.097   0.14105169 
  136800    288.66783   -446.99534    149121.36   -47608.894    3964.1576   -51573.052   0.14695636 
  137000    292.51106   -525.91898    149239.81   -47612.992     4016.935   -51629.927   0.14434234 
  137200    289.18375   -574.62583    149285.01   -47644.588    3971.2425   -51615.831   0.14634694 
  137400    292.69531   -430.46964    149173.14   -47602.411    4019.4653   -51621.877   0.14408223 
  137600    288.53875   -435.58803    149181.72   -47595.225    3962.3848    -51557.61   0.14717715 
  137800    286.24125    -601.6409    149338.62   -47567.686    3930.8343    -51498.52   0.15689264 
  138000    287.12458    -542.9483    149299.66   -47565.715    3942.9646    -51508.68   0.15030303 
  138200    294.61131    -406.4602    149158.19   -47618.095    4045.7769   -51663.872   0.13714915 
  138400    288.68336   -481.08064    149218.04   -47603.211    3964.3708   -51567.582   0.14174411 
  138600    284.84193   -616.33945    149369.24   -47615.547     3911.618   -51527.165   0.14710058 
  138800     284.4915   -500.05853    149262.98   -47566.775    3906.8056    -51473.58   0.14696902 
  139000    290.06641   -404.24408    149103.35   -47556.435    3983.3636   -51539.799   0.14512661 
  139200    290.49748   -484.38792    149219.69    -47557.06    3989.2833   -51546.344     0.149812 
  139400    286.27361   -607.72816    149367.37   -47581.711    3931.2787    -51512.99    0.1492941 
  139600    290.30756   -450.25533    149198.37   -47564.567    3986.6753   -51551.242   0.14515578 
  139800    289.81563   -406.68466     149078.8   -47525.542    3979.9198   -51505.461   0.14649677 
  140000    290.78632   -579.22594     149296.2    -47491.86    3993.2498   -51485.109   0.15606466 
  140200    288.94173   -612.51556    149405.61   -47532.481    3967.9189     -51500.4   0.14824884 
  140400    290.21502   -423.33636    149140.99   -47560.727    3985.4044   -51546.131   0.14612261 
  140600    285.61145   -385.49215    149010.97   -47559.932    3922.1855   -51482.117   0.14792472 
  140800    293.15537   -512.56112    149305.62   -47551.259     4025.783   -51577.042   0.14656909 
  141000     289.0661   -645.34509    149426.99   -47586.019    3969.6268   -51555.646   0.14899503 
  141200    286.66105   -385.73809    149073.09   -47540.864    3936.5992   -51477.463   0.14834837 
  141400    292.25266   -353.21936    149059.24   -47547.074    4013.3865    -51560.46   0.14625587 
  141600    288.33093   -665.80111    149474.34   -47527.256     3959.531   -51486.787    0.1500536 
  141800    288.40537   -602.97739    149428.96   -47581.142    3960.5532   -51541.696   0.14893046 
  142000    292.00511    -298.0247    148999.24   -47601.181    4009.9871   -51611.168   0.14453838 
  142200    288.86416   -404.04644    149109.65   -47597.003    3966.8536   -51563.857    0.1447928 
  142400    291.04697   -679.70886    149521.35   -47596.722    3996.8292   -51593.551   0.14816587 
  142600    285.26828   -568.26539    149311.77   -47588.863    3917.4729   -51506.336   0.15024049 
  142800    292.33197   -239.88621    148914.79   -47597.143    4014.4757   -51611.619   0.14094923 
  143000    288.16213   -498.42543    149201.76   -47657.216     3957.213   -51614.429   0.14282063 
  143200    289.11657   -737.97317    149544.66   -47621.567    3970.3199   -51591.887   0.14483323 
  143400    287.63295   -490.09719    149209.69   -47588.453     3949.946   -51538.399   0.14638039 
  143600    291.30756   -246.00168     148901.6   -47580.323    4000.4078   -51580.731   0.14422812 
  143800    290.29832   -567.74092    149293.71   -47590.681    3986.5483   -51577.229   0.14545048 
  144000    287.58188   -750.90163    149529.36   -47575.224    3949.2446   -51524.469   0.14975583 
  144200    289.79762   -407.53934    149065.68   -47552.578    3979.6724    -51532.25   0.14839909 
  144400    290.72455   -251.74142    148870.21   -47555.763    3992.4016   -51548.164   0.14728185 
  144600    288.59459   -631.83433    149394.35    -47526.33    3963.1518   -51489.482   0.15441238 
  144800    295.19996   -733.50444    149547.33    -47494.36    4053.8606    -51548.22    0.1480014 
  145000    293.85188   -299.73534     148956.4   -47541.697     4035.348   -51577.044   0.14084354 
  145200    290.18717    -222.9934     148864.6   -47572.377     3985.022   -51557.399   0.14237269 
  145400    288.84042   -700.94333    149501.45   -47571.066    3966.5276   -51537.593   0.15138722 
  145600    288.06676   -737.77708    149517.35   -47587.141    3955.9033   -51543.044   0.14942605 
  145800    290.30642   -188.90241    148827.68   -47607.305    3986.6596   -51593.965   0.14422005 
  146000    291.19939   -336.92961     148955.8   -47594.387    3998.9224    -51593.31   0.14752936 
  146200    290.24677   -813.52363    149655.84   -47618.776    3985.8404   -51604.616   0.15048128 
  146400    289.78773   -645.89511    149423.73   -47572.309    3979.5366   -51551.845   0.14947892 
  146600    298.61149   -95.919511    148785.75   -47540.849    4100.7097   -51641.558   0.14117608 
  146800    292.11274   -421.27295    149182.32   -47495.062     4011.465   -51506.527   0.14526387 
  147000    286.63245   -897.44011    149767.67   -47502.705    3936.2064   -51438.911   0.15001978 
  147200    296.71751   -511.70432    149277.32    -47475.96    4074.7005   -51550.661   0.14625144 
  147400    292.24535   -146.89297    148782.58    -47544.01    4013.2862   -51557.296   0.14345611 
  147600    294.97857   -554.94123    149276.04   -47556.225    4050.8203   -51607.045    0.1452123 
  147800    286.33018   -813.75907     149617.9   -47594.071    3932.0555   -51526.127   0.14711387 
  148000    294.97837   -391.92384    149112.79   -47562.985    4050.8176   -51613.803   0.14229019 
  148200    296.97661   -206.87804    148890.29   -47607.559    4078.2585   -51685.818   0.14132066 
  148400     286.6562   -650.71028     149380.2   -47653.825    3936.5326   -51590.358    0.1482728 
  148600    284.56377   -708.46206    149472.84   -47621.819    3907.7981   -51529.617   0.14637858 
  148800    286.75695   -415.69948    149033.72   -47628.396    3937.9162   -51566.313   0.14230431 
  149000    289.48752   -341.67642    149030.88   -47636.567    3975.4139    -51611.98   0.14174301 
  149200    283.63313   -642.41608    149403.94   -47638.834     3895.018   -51533.852   0.14348688 
  149400    286.30176   -584.96021    149345.86   -47661.998    3931.6652   -51593.663   0.14210686 
  149600    288.38165   -352.79443    149046.17   -47664.255    3960.2275   -51624.482   0.14346035 
  149800    286.36038   -441.40455    149143.64   -47650.385    3932.4702   -51582.855   0.14478242 
  150000    287.73057   -634.96782    149394.13   -47607.752    3951.2865   -51559.038   0.14708774 
  150200    286.09673   -548.23969    149291.66   -47553.677    3928.8497   -51482.527   0.15002157 
  150400    288.59064   -403.43426     149115.8   -47526.504    3963.0974   -51489.602   0.14710982 
  150600      292.312   -526.56719    149256.85   -47578.395    4014.2014   -51592.597   0.14591361 
  150800    285.86645   -576.38302    149352.76   -47539.268    3925.6873   -51464.956   0.14756284 
  151000    293.88026   -427.99701     149193.2   -47580.509    4035.7377   -51616.247   0.13859651 
  151200     295.3999   -385.00006    149112.23   -47568.658    4056.6063   -51625.264    0.1375462 
  151400    291.99751   -531.41255     149300.2   -47480.379    4009.8827   -51490.261   0.14479818 
  151600    294.72317   -582.80507    149366.83   -47466.022     4047.313   -51513.335   0.14727377 
  151800    292.85342    -467.0769    149187.46   -47479.386    4021.6366   -51501.022   0.14933275 
  152000    294.36808   -477.00916    149143.69   -47482.668    4042.4367   -51525.105    0.1517736 
  152200    294.02406   -565.45754     149282.7   -47501.755    4037.7125   -51539.467   0.14787023 
  152400    295.76608   -540.83085    149318.36   -47549.643    4061.6349   -51611.277   0.13977182 
  152600    292.79736   -460.38365    149193.86   -47520.383    4020.8667    -51541.25   0.14512386 
  152800     297.9288   -477.36747    149215.08   -47453.026    4091.3346   -51544.361   0.14652631 
  153000    298.35437   -575.29134     149374.6   -47521.187    4097.1788   -51618.365    0.1433155 
  153200    295.65192   -528.24782    149311.04   -47462.162    4060.0672   -51522.229   0.14367982 
  153400    289.53456   -448.62001    149129.65   -47517.227      3976.06   -51493.287   0.14565712 
  153600    292.91088   -460.45076     149183.5   -47544.486    4022.4256   -51566.912   0.14648109 
  153800    289.15617   -606.11112    149361.49   -47571.232    3970.8636   -51542.096   0.14889543 
  154000    292.85062   -464.45234    149253.22   -47586.847     4021.598   -51608.445   0.14524682 
  154200    292.22811   -349.49108    149076.03   -47534.193    4013.0494   -51547.242   0.14508182 
  154400    289.06415   -495.56271    149260.41   -47527.276       3969.6   -51496.876   0.14550388 
  154600    292.64904   -714.34331     149471.3   -47546.913    4018.8298   -51565.743   0.14968483 
  154800    289.59723   -476.05123    149177.45    -47565.39    3976.9206   -51542.311    0.1492677 
  155000     289.0707   -264.20772    148960.27   -47554.581    3969.6899   -51524.271    0.1433837 
[...]
  163200    291.91592   -431.92476    149160.69   -47619.158    4008.7623   -51627.921   0.14275453 
  163400    288.99748   -309.56589    148975.65   -47655.156    3968.6844    -51623.84   0.14213152 
  163600    291.37608   -560.49117    149295.14   -47601.937    4001.3489   -51603.286   0.14562401 
  163800    291.92169   -635.75017    149411.42   -47661.611    4008.8415   -51670.452   0.14333884 
  164000    287.56597   -419.08238    149087.09   -47679.969    3949.0261   -51628.995   0.14139217 
  164200    291.68799   -348.69537    149002.34   -47678.888    4005.6321    -51684.52   0.14299484 
  164400     294.3015   -541.22888     149326.4   -47618.662    4041.5224   -51660.185   0.14197009 
  164600    287.70382   -650.17801     149396.7   -47596.922    3950.9191   -51547.841   0.14884459 
  164800    286.81297   -421.49124    149110.63   -47636.507    3938.6855   -51575.192   0.14468465 
  165000    293.17568   -366.25134    149076.08   -47613.573     4026.062   -51639.635   0.13939423 
  165200    287.57856   -636.30465    149346.47   -47607.558     3949.199   -51556.757   0.14904441 
  165400    286.19368   -587.90893    149319.79    -47636.21     3930.181   -51566.391   0.14373556 
  165600    293.67816   -388.80029     149092.9   -47577.028    4032.9623    -51609.99   0.14378597 
  165800    290.81283   -450.11461     149168.6   -47601.457    3993.6139   -51595.071   0.14051156 
  166000    289.58149   -606.35724    149362.38   -47558.732    3976.7045   -51535.436   0.14717954 
  166200     288.7783   -543.66742    149271.77   -47590.188    3965.6746   -51555.862   0.15030498 
  166400    293.34116    -359.5274    149113.07   -47586.125    4028.3345    -51614.46   0.14169928 
  166600    287.02442   -463.16978    149221.89   -47580.051    3941.5892   -51521.641   0.14431348 
  166800    284.30434    -643.7991    149329.35    -47639.19    3904.2355   -51543.426   0.14954692 
  167000     288.8837   -493.04949    149163.17   -47641.387     3967.122   -51608.509   0.15208844 
  167200    288.40446   -401.61786    149111.56   -47590.171    3960.5407   -51550.712   0.14621455 
  167400    291.71489    -570.1903    149297.43   -47635.083    4006.0016   -51641.084    0.1493876 
  167600     285.2129   -520.54285    149300.91   -47615.886    3916.7124   -51532.599   0.14837506 
  167800    281.62386   -459.16214     149142.9   -47684.974    3867.4255   -51552.399   0.14405281 
  168000      290.144   -455.29038     149140.4   -47674.576    3984.4292   -51659.005   0.14068078 
  168200    291.54514   -548.45157    149266.55   -47671.304    4003.6704   -51674.974   0.14310998 
  168400    284.31694   -540.87628    149217.82   -47627.485    3904.4085   -51531.894    0.1514288 
  168600    283.72041   -427.38967    149122.74   -47639.403    3896.2166    -51535.62   0.14283719 
  168800    285.93614   -536.89184     149241.9   -47679.236    3926.6443   -51605.881   0.14511542 
  169000      291.367    -550.3244    149300.95   -47664.003    4001.2241   -51665.227   0.14087078 
  169200    288.32855    -420.2628    149156.02   -47633.869    3959.4983   -51593.367    0.1419209 
  169400    287.39005   -445.93194    149110.85   -47660.119    3946.6102   -51606.729   0.14266939 
  169600    282.80784   -581.93049    149230.19   -47669.638    3883.6846   -51553.322   0.14822307 
  169800    289.85916   -515.94647     149248.9   -47674.649    3980.5175   -51655.167   0.13991106 
  170000    284.99493   -449.14232    149115.41   -47714.042    3913.7191   -51627.761   0.13882495 
  170200    284.22581   -442.96658    149118.84    -47723.64     3903.157   -51626.797   0.13874707 
  170400    287.86651   -558.66803    149295.48   -47693.475    3953.1534   -51646.629   0.14280737 
  170600    288.58865   -517.94049    149291.44   -47674.356    3963.0702   -51637.426   0.14405807 
  170800    287.88514   -445.59917    149132.26   -47700.032    3953.4091   -51653.441    0.1408368 
  171000    281.40539   -437.55277    149139.75   -47699.138    3864.4254   -51563.564   0.14650723 
  171200    285.56504   -554.07451    149303.85   -47725.206    3921.5482   -51646.755    0.1406894 
  171400    284.59146    -552.3923    149318.38   -47720.274    3908.1784   -51628.452   0.13950652 
  171600    284.46351    -443.8581    149147.81   -47686.515    3906.4214   -51592.936   0.14386017 
  171800    286.23975   -471.05438    149202.95   -47665.581    3930.8136   -51596.394   0.14475234 
  172000    287.09836   -615.36844    149395.82   -47669.299    3942.6046   -51611.903   0.14575961 
  172200    284.14692   -509.96043    149264.94   -47675.511    3902.0737   -51577.584   0.14206662 
  172400    288.18713   -366.60323    149039.44   -47646.282    3957.5562   -51603.839   0.14287626 
  172600    289.16876   -501.45245    149218.74   -47630.575    3971.0366   -51601.612   0.14890848 
  172800    290.73615   -647.35244    149447.87   -47636.311    3992.5609   -51628.872   0.14981337 
  173000    284.90618   -456.34911    149187.46   -47656.075    3912.5003   -51568.575   0.14496924 
  173200    284.16955   -312.89066    148945.21    -47695.73    3902.3844   -51598.115   0.14293651 
  173400    282.48419   -527.95336     149255.6   -47680.102    3879.2401   -51559.343   0.14000488 
  173600    287.20095   -686.72758    149492.36   -47628.404    3944.0135   -51572.418   0.14514053 
  173800    293.28136   -426.96946     149130.8   -47633.425    4027.5133   -51660.938   0.14332818 
  174000    291.83361   -306.54441    148930.36   -47598.051    4007.6319   -51605.683   0.14281833 
  174200    291.97265   -653.07943    149390.04   -47589.559    4009.5412     -51599.1   0.14789037 
  174400    294.20118   -733.39634     149532.8   -47569.674    4040.1448   -51609.819   0.14115008 
  174600    290.83309   -290.20956    148988.54   -47584.774    3993.8922   -51578.666   0.13910329 
  174800    288.90884   -335.82025    148934.34   -47549.548    3967.4672   -51517.016   0.15130966 
  175000    287.81411   -727.26104    149497.22   -47592.349    3952.4338   -51544.783   0.15235842 
  175200    291.89688    -667.2188    149455.86   -47588.754    4008.5008   -51597.255   0.14810397 
  175400    291.10058    -271.3884    148872.38   -47602.677    3997.5655   -51600.242   0.14066886 
  175600    286.61531   -341.05876    148963.61   -47613.087    3935.9711   -51549.059   0.14392407 
  175800    291.12756     -722.287    149527.13   -47592.017     3997.936   -51589.953   0.15100197 
  176000    289.28909   -645.25244    149372.79   -47580.034     3972.689   -51552.723   0.14870426 
  176200    296.11205   -205.38468    148866.17   -47533.265     4066.386   -51599.651   0.14416007 
  176400    292.36015   -462.18185    149131.46   -47571.714    4014.8627   -51586.577    0.1455577 
  176600    293.70004   -735.93662    149562.47   -47546.666    4033.2627   -51579.929   0.14485577 
  176800    294.87784   -507.04644    149269.76   -47557.005     4049.437   -51606.442    0.1426017 
  177000    290.49665   -239.83421    148893.84   -47575.092     3989.272   -51564.364   0.14329224 
  177200     290.7428   -501.57164    149253.64   -47588.136    3992.6522   -51580.788   0.14655145 
  177400    287.13861   -789.05954    149590.47   -47673.724    3943.1574   -51616.882   0.14154897 
  177600    296.11842   -421.70462     149148.1    -47643.28    4066.4734   -51709.753   0.13765893 
  177800    286.32407   -258.47946       148890   -47623.884    3931.9716   -51555.856    0.1433218 
  178000    289.76277   -583.58365    149391.62   -47579.552    3979.1939   -51558.746   0.13994172 
  178200    287.08358   -761.24697    149569.56   -47612.651    3942.4016   -51555.053   0.14321004 
  178400    290.38958   -310.44808    149044.16   -47592.123    3987.8016   -51579.925   0.13825724 
  178600    285.64474   -291.82893    148961.76   -47609.048    3922.6427   -51531.691   0.14181467 
  178800    286.14593   -695.62777    149479.82    -47574.88    3929.5253   -51504.405    0.1455682 
  179000    289.07597   -675.00104    149476.35   -47549.253    3969.7624   -51519.015   0.14624057 
  179200    287.43234   -298.65573    148981.05   -47576.635     3947.191   -51523.826   0.14739878 
  179400    294.99599   -357.02691    149087.79    -47551.38    4051.0595    -51602.44   0.14508502 
  179600    290.02219   -717.23127    149561.32    -47553.96    3982.7563   -51536.716   0.14962117 
  179800    286.60602   -614.83328    149381.04   -47583.478    3935.8435   -51519.322   0.14501117 
  180000    289.23065   -277.49798    148957.33   -47553.999    3971.8865   -51525.885   0.14106363 
  180200    287.50843   -430.68589    149182.23    -47514.63    3948.2359   -51462.866   0.14887726 
  180400     296.9663   -668.21147    149518.84   -47467.881     4078.117   -51545.998   0.15022776 
  180600     292.3414   -549.45604     149247.5   -47557.727    4014.6052   -51572.332   0.14982885 
  180800    295.15276   -274.06165    148940.23    -47523.65    4053.2123   -51576.863   0.14105166 
  181000    293.10854   -509.60837     149227.1   -47563.855      4025.14   -51588.994    0.1407813 
  181200    290.89773   -716.77798     149453.6   -47545.301    3994.7797   -51540.081    0.1512546 
  181400    289.58788   -502.84781    149137.22   -47585.773    3976.7922   -51562.565   0.15194119 
  181600    291.37849   -357.89553     148944.2   -47607.054    4001.3818   -51608.436     0.148191 
  181800     291.0335   -533.29817    149203.15   -47575.844    3996.6443   -51572.489   0.14441792 
  182000    289.98523   -584.75026    149381.82   -47582.132    3982.2488    -51564.38   0.13437258 
  182200    290.10459   -475.89055    149197.01   -47599.338    3983.8879   -51583.226    0.1400625 
  182400    288.27613   -382.04276    149062.05   -47601.073    3958.7784   -51559.852   0.14131948 
  182600    288.02025   -498.77491    149242.99   -47563.156    3955.2646   -51518.421   0.14607418 
  182800    294.09391   -614.42358    149395.52   -47527.369    4038.6716   -51566.041    0.1439987 
  183000    293.67031   -459.55144    149224.72   -47529.351    4032.8545   -51562.205   0.13976001 
  183200    289.11628   -442.88505    149126.46   -47512.033    3970.3159   -51482.349   0.14953219 
  183400    286.91476   -493.15071    149287.78   -47518.774    3940.0833   -51458.857   0.14650265 
  183600     294.4886   -547.22324     149379.8   -47548.619    4044.0917    -51592.71   0.14628406 
  183800    289.25636   -511.62222     149230.1   -47583.294    3972.2395   -51555.533   0.14512708 
  184000    295.13523    -428.5338    149149.62   -47597.414    4052.9717   -51650.386   0.13778622 
  184200    287.07113   -555.17912    149270.61    -47637.97    3942.2307     -51580.2   0.14481961 
  184400    288.92239   -542.35563    149269.49   -47647.845    3967.6532   -51615.498    0.1436406 
  184600    285.76943   -467.21813    149149.41   -47656.269     3924.355   -51580.624   0.14685625 
  184800    288.28909    -447.6079    149148.17   -47644.186    3958.9564   -51603.143   0.14282484 
  185000    288.88157   -549.49993    149251.97   -47633.215    3967.0928   -51600.308   0.14240017 
  185200    283.18128   -558.50559       149236   -47691.042     3888.813   -51579.855   0.14629816 
  185400    287.66992   -457.05837    149174.31   -47669.847    3950.4537   -51620.301   0.14312558 
  185600    286.66105   -465.34626    149222.26    -47673.04    3936.5993    -51609.64   0.14104834 
  185800    290.13817   -512.58391    149298.83   -47618.716    3984.3491   -51603.065    0.1422674 
  186000    290.63338   -517.22835    149265.11   -47605.573    3991.1496   -51596.723   0.14092344 
  186200    293.48102    -435.0116    149203.26   -47597.619    4030.2551   -51627.874    0.1371316 
  186400    291.95713    -480.0259    149261.14   -47546.733    4009.3281   -51556.061    0.1390122 
  186600    288.17019   -516.20807    149330.03   -47579.799    3957.3236   -51537.123   0.13896196 
  186800    286.91346    -523.4059    149259.74   -47607.316    3940.0655   -51547.381     0.147821 
  187000     289.6925    -413.8775    149195.17   -47579.947    3978.2289   -51558.176   0.14143452 
  187200    290.52903   -548.61414    149298.29   -47598.899    3989.7166   -51588.615   0.14462219 
  187400     289.2403   -593.73448    149374.97   -47584.075     3972.019   -51556.094   0.14056956 
  187600    283.68921   -501.99265    149233.52    -47625.18    3895.7881   -51520.968   0.14537105 
  187800    287.92912   -421.65512    149171.23   -47615.102    3954.0131   -51569.115   0.14445948 
  188000    290.70505   -541.30623    149368.07   -47588.106    3992.1338    -51580.24   0.14391328 
  188200    289.63076   -624.97251    149433.75   -47577.264     3977.381   -51554.645   0.14998623 
  188400    290.20181   -431.58904     149179.2   -47568.296    3985.2231   -51553.519   0.14437724 
  188600       289.35   -386.04856    149123.92   -47574.754    3973.5255    -51548.28   0.13957193 
  188800    286.37303   -598.82768     149421.4   -47584.501    3932.6439   -51517.145   0.14260842 
  189000    286.30692    -619.1659    149434.43   -47577.583     3931.736   -51509.319   0.15106914 
  189200     290.7356    -358.5948     149121.1   -47584.888    3992.5534   -51577.441   0.13953186 
  189400    294.18609   -386.63803    149166.97   -47547.723    4039.9375    -51587.66    0.1393801 
  189600    290.64411    -673.0098    149510.39   -47558.588    3991.2969   -51549.885   0.14042079 
  189800    290.07449     -577.896    149357.46    -47597.29    3983.4746   -51580.765   0.14372905 
  190000    291.69006   -270.96477    148976.44   -47631.706    4005.6606   -51637.367   0.14097022 
  190200    290.53672   -455.44761    149188.58   -47604.356    3989.8223   -51594.178   0.14151094 
  190400    290.23657   -707.39162    149557.47   -47598.995    3985.7004   -51584.695   0.14428236 
  190600    291.52482     -505.882    149277.43   -47544.547    4003.3913   -51547.938   0.13771007 
  190800    292.15272   -260.55725    148933.64   -47579.762    4012.0141   -51591.776   0.13885245 
  191000    285.58219   -544.69094     149277.4   -47590.544    3921.7837   -51512.328   0.14744952 
  191200    291.47048    -749.3459    149578.67   -47581.345    4002.6452    -51583.99   0.14794356 
  191400     289.7255    -443.8658    149174.62   -47608.872    3978.6821   -51587.554   0.13815896 
  191600    285.97008   -273.46214     148934.9   -47565.659    3927.1104    -51492.77   0.14530858 
  191800    287.05127   -586.11584    149395.19   -47597.152    3941.9579    -51539.11   0.14511942 
  192000    291.21538   -746.30624    149573.15    -47595.46     3999.142   -51594.602   0.14812139 
  192200     286.7446   -345.01417    149057.66   -47568.524    3937.7465    -51506.27   0.14548501 
  192400    293.25218   -281.06677    148960.86   -47577.861    4027.1124   -51604.973   0.14160543 
  192600     287.9324   -697.64515    149504.21   -47604.208    3954.0581   -51558.266   0.14707876 
  192800    291.41523   -678.41211    149512.54   -47579.648    4001.8865   -51581.535   0.14257993 
  193000    290.04802    -271.6373    148956.92   -47573.512     3983.111   -51556.623   0.14118924 
  193200    295.55471   -334.54843    149052.22   -47527.839    4058.7323   -51586.571   0.14159404 
  193400     291.5046   -746.63922    149630.02   -47524.484    4003.1137   -51527.597   0.14703265 
  193600    289.66801   -670.54748    149443.21   -47538.407    3977.8926   -51516.299   0.14745123 
  193800    289.03311   -220.72412    148833.29   -47591.558    3969.1737   -51560.732    0.1447792 
  194000    285.39447   -387.96591    149059.59   -47615.643    3919.2058   -51534.849    0.1454498 
  194200    285.31092   -791.98523    149614.22   -47595.516    3918.0584   -51513.574   0.14682278 
  194400      290.297    -511.8028    149310.89   -47579.008    3986.5302   -51565.538   0.14364983 
  194600     289.5514   -194.65981    148818.45   -47606.536    3976.2912   -51582.827   0.14361275 
  194800    293.76614   -442.47224    149162.13   -47591.721    4034.1705   -51625.891   0.14161757 
  195000    284.94246   -793.98406    149602.14   -47568.572    3912.9985    -51481.57   0.14356533 
  195200    288.16759   -496.97704    149183.25   -47556.679    3957.2879   -51513.967   0.14584286 
  195400    289.58268   -195.18688    148829.94    -47561.75    3976.7207   -51538.471   0.14294155 
  195600    287.97499   -566.40738    149313.38   -47564.176     3954.643   -51518.819   0.14779347 
  195800    289.31475   -779.70086     149600.6    -47606.16    3973.0413   -51579.202   0.14979247 
  196000    290.15038   -368.61259    149059.78    -47580.38    3984.5167   -51564.897   0.14135161 
  196200    292.48785   -259.13453    148890.47   -47569.316    4016.6163   -51585.933   0.14454326 
  196400    287.66464    -674.9882    149411.37    -47565.03    3950.3811   -51515.411   0.15248965 
  196600    286.46767   -719.82748    149461.87   -47629.945    3933.9437   -51563.888    0.1512457 
  196800    290.76188   -311.60582    148993.69   -47624.674    3992.9142   -51617.589    0.1388133 
  197000    290.34246   -377.69125    149069.78   -47636.034    3987.1545   -51623.188    0.1404726 
  197200    285.04376   -685.65206    149467.64   -47688.037    3914.3896   -51602.427   0.14575658 
  197400    280.39775   -588.07817     149318.9    -47646.02    3850.5878   -51496.608   0.14656405 
  197600    289.50116   -307.17611    148994.28   -47562.167    3975.6013   -51537.769   0.14316595 
  197800    293.77793   -432.05635    149208.63   -47549.042    4034.3325   -51583.374   0.14046967 
  198000    285.67532     -727.112    149489.41   -47575.666    3923.0626   -51498.729   0.14944281 
  198200    288.17808   -496.78695    149243.41    -47602.95     3957.432   -51560.382   0.14031098 
  198400    288.36703   -342.77126    149046.32   -47531.182    3960.0267   -51491.209   0.14628749 
  198600    295.00569   -528.13937    149294.93   -47521.214    4051.1927   -51572.406   0.14654577 
  198800    295.44385   -618.16329    149446.38   -47552.279    4057.2098   -51609.489   0.14308701 
  199000    287.35869   -485.72534    149188.49   -47560.035    3946.1797   -51506.215   0.14515955 
  199200    290.37197   -386.38184    149076.49   -47555.744    3987.5598   -51543.304   0.14424686 
  199400     291.4891   -562.42442    149328.82   -47565.142    4002.9009   -51568.043    0.1444774 
  199600    291.58922   -591.71187     149363.8   -47586.906    4004.2758   -51591.182    0.1423116 
  199800    290.02427   -407.01115    149079.59   -47566.961    3982.7849   -51549.746   0.14707038 
  200000    287.45499   -419.49488    149103.06   -47586.581    3947.5021   -51534.083   0.14446489 
Loop time of 110.286 on 6 procs for 200000 steps with 4608 atoms

Performance: 783.416 ns/day, 0.031 hours/ns, 1813.462 timesteps/s
97.9% CPU use with 6 MPI tasks x no OpenMP threads

MPI task timing breakdown:
Section |  min time  |  avg time  |  max time  |%varavg| %total
---------------------------------------------------------------
Pair    | 77.348     | 77.793     | 78.638     |   4.8 | 70.54
Neigh   | 12.269     | 12.432     | 12.73      |   5.8 | 11.27
Comm    | 9.254      | 9.9005     | 10.403     |  13.1 |  8.98
Output  | 3.0658     | 3.0672     | 3.0734     |   0.2 |  2.78
Modify  | 5.7169     | 5.831      | 5.9389     |   3.4 |  5.29
Other   |            | 1.263      |            |       |  1.14

Nlocal:        768.000 ave         774 max         759 min
Histogram: 1 0 0 1 0 1 0 0 1 2
Nghost:        1398.50 ave        1408 max        1384 min
Histogram: 1 0 0 0 0 1 2 1 0 1
Neighs:        0.00000 ave           0 max           0 min
Histogram: 6 0 0 0 0 0 0 0 0 0
FullNghs:      21870.3 ave       22048 max       21617 min
Histogram: 1 0 1 0 0 1 0 1 0 2

Total # of neighbors = 131222
Ave neighs/atom = 28.476997
Neighbor list builds = 12558
Dangerous builds = 0
write_data		data.${NAME}
write_data		data.ice_290K_-500atm_ML
System init for write_data ...
Total wall time: 0:02:43
