LAMMPS data file via write_data, version 29 Oct 2020, timestep = 50000

1550 atoms
1 atom types

-0.05018804526164189 50.556269650226604 xlo xhi
-0.03173500900145676 31.96784541136548 ylo yhi
-0.03173500900145676 31.96784541136548 zlo zhi

Masses

1 18.015

Atoms # atomic

255 1 1.5381269650722977 4.75780041976173 0.7682776401286721 0 1 0
599 1 24.12305295421496 1.5059117751967879 13.527924500597104 0 1 0
256 1 3.0548874882668353 3.380898428571835 2.226120642013924 0 1 0
258 1 8.030207708217295 4.58747042535057 1.1297702139737449 0 1 0
248 1 9.884828595550125 3.1766043540340196 2.4819998507065377 0 1 0
260 1 14.21256848326534 4.577058026423198 0.870547872552691 0 1 0
301 1 15.898833723184435 2.916580424157211 2.369935270618427 0 1 0
261 1 21.090910894679833 4.453409298600822 0.34412783011478254 0 1 0
254 1 22.400292608954917 2.944545971108581 2.4303256727803673 0 1 0
262 1 -0.006380605214447423 6.425702581157969 2.372565596914198 0 1 0
263 1 4.81991082547863 7.748741489677882 0.9397785031814165 0 1 0
265 1 6.401414699411045 6.2227523656946415 2.4050944720467875 0 1 0
267 1 11.457500119730401 7.670768593927165 0.7203421009026206 0 1 0
268 1 13.174180769225153 6.4856148730228815 2.4794682692303702 0 1 0
270 1 17.41938493700322 7.822417177125689 0.6910234077653116 0 1 0
304 1 19.195439543059326 6.175125606883787 2.080498928067426 0 1 0
271 1 24.174939503927792 7.955373496724218 0.6056835300448213 0 1 0
274 1 1.669310773879914 11.134367750595997 0.9094317161736089 0 1 0
264 1 3.6320067898471726 9.692120709990098 2.6407589041048745 0 1 0
275 1 8.154288988792667 10.959032251201425 0.9181865239111985 0 1 0
312 1 9.900398095532617 9.508385200328831 2.3278927003518106 0 1 0
278 1 14.58673242178517 11.141075962190401 0.5186831829431146 0 1 0
317 1 15.934341457684093 9.458409294357784 2.2657948245445327 0 1 0
280 1 20.29331178557827 11.06298158067514 0.6043122927440221 0 1 0
272 1 22.397387888728208 9.755642004272795 2.110038891628823 0 1 0
634 1 19.160230752758057 0.20139323502986378 14.805400758652826 0 1 0
40 1 5.116830544932015 14.615386895797583 0.8154854634666245 0 0 0
380 1 6.594401400428282 12.686119996832915 2.3854743049708773 0 0 0
42 1 11.336081236519087 14.298338763818792 0.9139405067373308 0 0 0
210 1 12.97371813316659 12.6917278650632 2.2522411034486307 0 0 0
45 1 17.625547235277903 14.34600359391232 0.6831718153293093 0 0 0
190 1 18.966565931975815 12.736825252365705 2.183334617912621 0 0 0
47 1 23.819953124501613 14.43469268909108 0.2402001529537095 0 0 0
77 1 3.070946489731508 16.399532863832313 2.165918784961227 0 0 0
50 1 8.03017987538219 17.389073275009153 0.6099881684697709 0 0 0
49 1 9.634081274537259 15.901111551847023 2.4696164400617113 0 0 0
51 1 14.55375388247854 17.444374997928747 0.6243690634959043 0 0 0
88 1 16.053709887734666 15.98452109739525 2.43364660167559 0 0 0
53 1 20.99944909047066 17.637676199363412 0.779631920884976 0 0 0
46 1 22.204671377398736 16.025967255724716 2.0582174100714368 0 0 0
48 1 1.893097521104665 17.92213337855273 0.3174040405383671 0 0 0
100 1 0.2677525992390356 19.344113427655664 2.1041098090125514 0 0 0
55 1 4.724226670091488 20.67633696005403 0.7753435238949332 0 0 0
94 1 6.566856207258973 19.12023944635581 1.973539339474783 0 0 0
57 1 11.362135820315196 20.617019775301806 0.30326941129087187 0 0 0
86 1 12.70703158984016 19.048803586347596 1.8869542670509458 0 0 0
59 1 17.38559169756277 20.541102519804433 0.802723657863437 0 0 0
60 1 19.17750554690443 19.02317540311813 2.4234315192564138 0 0 0
62 1 24.082207652536436 20.98147680499921 0.6972286370096521 0 0 0
56 1 2.8740180685876964 22.396129775228417 1.680134434291189 0 0 0
64 1 8.35160093758223 23.51644342679507 0.15665308531657243 0 0 0
102 1 10.231839432469316 22.20283695232815 2.215133537160188 0 0 0
65 1 14.472921860729333 23.966668960817692 0.46218394337275426 0 0 0
96 1 16.07130337151497 22.20187823710991 2.33847877133318 0 0 0
67 1 20.431321764711974 23.677702702373452 0.5437672951311596 0 0 0
68 1 22.265803496120675 22.423166382708686 2.2431856215791206 0 0 0
63 1 1.6798285530741173 24.31985851453956 0.509901825152187 0 0 0
109 1 0.0620756102082434 25.54120639911173 2.426874074377212 0 0 0
69 1 4.895464865764179 27.270759056225863 0.17962314007087515 0 0 0
71 1 6.549364596096323 25.4775992544006 1.693324572462754 0 0 0
72 1 11.002346274659736 27.144908409213222 1.0552295125171707 0 0 0
104 1 13.007805168666009 25.781545464540564 2.1604497471661133 0 0 0
74 1 17.684118734290166 26.739805483433805 0.7703449625564325 0 0 0
66 1 19.068107505213593 25.096135860642534 2.5476872846284833 0 0 0
76 1 23.884477853893614 27.032610767145442 0.5151442256263589 0 0 0
240 1 1.3444719012802613 30.150370645941322 0.3817456542418705 0 0 0
273 1 3.3946580445571506 28.938572868415804 1.7986403896101022 0 0 0
192 1 9.230062464643893 28.518758464395226 2.282868259212004 0 0 0
243 1 7.687399138293894 30.37327416122534 0.796927146989237 0 0 0
244 1 15.08989681802317 29.65303667812728 0.5447898235398375 0 0 0
41 1 16.316866051951905 28.177235066434804 2.804573672803981 0 0 0
246 1 20.723128105709154 30.106591955059294 0.7687621473130076 0 0 0
73 1 22.3583189987874 28.672187691693367 2.402747283753492 0 0 0
241 1 0.22035768609255846 0.16800271900230554 1.9569940954609886 0 1 0
281 1 6.199569514979945 0.14949695917735797 2.305381791705498 0 1 0
247 1 4.455144350742773 1.695581049533025 0.8618729303720032 0 1 0
249 1 11.122567905846928 1.2054235485424856 0.8340245753900083 0 1 0
245 1 13.201044169411393 31.415635030781694 1.9624969677609547 0 0 0
251 1 17.337670695355804 1.0016839547346181 1.075647705626951 0 1 0
293 1 19.21463356488169 31.58085286440498 2.703429768644048 0 0 0
253 1 23.783263505858187 1.3681508100193636 0.6128720728137795 0 1 0
295 1 0.30441945166969886 3.1477637547778956 5.27022754156943 0 1 0
296 1 4.724790172586587 4.779545828464666 3.9399851197444633 0 1 0
297 1 6.172591556802003 3.1182851948662487 5.43853055390251 0 1 0
299 1 11.357587146427564 4.926206806183389 3.879044775512005 0 1 0
298 1 12.893438149229672 3.0531410830610706 5.395501050127942 0 1 0
303 1 17.634841937278566 4.665136541979853 3.7577199722638395 0 1 0
333 1 19.11285502133031 3.0830880313406297 5.335705734913213 0 1 0
305 1 24.03943767011706 4.602690424306967 3.82110595706272 0 1 0
306 1 1.721681265113086 7.819719719319927 4.040082580835872 0 1 0
337 1 3.155689201877065 6.225954521539703 5.683452557341315 0 1 0
307 1 7.858758734019664 8.08030203853851 4.029556608686868 0 1 0
300 1 9.623587393369604 6.3598397939342375 5.744065923915122 0 1 0
308 1 14.674781022066552 8.212656429286236 4.12888451045563 0 1 0
302 1 15.992339813445504 6.149599569942337 5.533155954577048 0 1 0
309 1 21.08200894005863 7.795197914564051 3.616672473710277 0 1 0
342 1 22.191624493471885 6.138045903005063 5.737938354153229 0 1 0
311 1 4.902751294789727 11.414286567397603 4.084115186327861 0 1 0
352 1 6.533027603883956 9.970569979695547 5.561224107873991 0 1 0
315 1 11.44839702216133 10.971691289604916 4.149293193274982 0 1 0
314 1 12.966645075128527 9.317523812044788 5.884859973472256 0 1 0
318 1 17.520024249455556 10.853768881441935 3.802897190358641 0 1 0
319 1 19.412375606065208 9.511668817358172 5.563370202117861 0 1 0
321 1 23.824251021289435 11.180462074871278 3.5785012725014984 0 1 0
15 1 3.0424538395563347 12.923985177343056 5.492769212867493 0 0 0
78 1 1.488554556641466 14.38555677688 3.6415809909411756 0 0 0
80 1 8.01239157977824 14.422044741115629 4.108247013473407 0 0 0
215 1 9.926971276693186 12.708566214290675 5.463245750179964 0 0 0
81 1 14.838839388929825 14.159040043076784 3.702476070119949 0 0 0
206 1 16.123920728908768 12.393592855952171 5.272470038270556 0 0 0
82 1 20.80488038232607 14.141986023441577 3.9838577271012268 0 0 0
391 1 22.320909224863936 12.494875207144915 5.491264440483512 0 0 0
85 1 4.787803608630338 17.764084077692132 3.9175260274047927 0 0 0
124 1 6.224179624211017 16.046018945566757 5.625986384402246 0 0 0
87 1 11.500759907102404 17.39699408721033 4.073428017751987 0 0 0
89 1 13.162270123662388 15.844659707979055 5.129509438871233 0 0 0
91 1 17.546151151247113 17.39956627024626 4.117106273656943 0 0 0
90 1 19.092447993755478 15.735723880283993 5.642453012061755 0 0 0
92 1 23.878109167713028 17.654268722994793 3.6136244112760116 0 0 0
93 1 1.8549302252631648 20.664189822417192 3.8640038298377886 0 0 0
84 1 3.2005975539236196 19.217660200735423 5.838721789608837 0 0 0
95 1 8.304067874598324 20.8579164972749 3.735432196312199 0 0 0
133 1 9.657225082629587 19.19068218334231 5.230451725860303 0 0 0
97 1 14.483173962228044 20.536327723718394 3.5221543773462027 0 0 0
135 1 15.928851269011961 19.12930142067387 5.256770794466383 0 0 0
99 1 20.61978337909066 20.659464449967203 3.956436490616689 0 0 0
129 1 22.266305632592804 19.213031257709076 5.325707209796893 0 0 0
131 1 0.12772838493641617 22.24709730960104 5.118114250859001 0 0 0
101 1 4.9921662152556605 23.70267492701639 3.174138459654523 0 0 0
142 1 6.436122422137078 22.222324952088513 5.194192759968522 0 0 0
98 1 12.727934840277749 22.293660307785785 5.083892484642351 0 0 0
136 1 18.65710858536653 21.806612415285656 5.654606160444598 0 0 0
105 1 17.325432474439484 23.80425210923545 4.228469389370171 0 0 0
107 1 23.51848126445836 24.036260763125362 4.107909484972967 0 0 0
110 1 1.7241055520137412 27.260515465399614 3.5128534553284014 0 0 0
140 1 3.122139175256675 25.48355381155241 4.983622902428058 0 0 0
111 1 7.406467141542944 27.054602505766603 3.676631690597996 0 0 0
103 1 11.446464067716434 24.300256339325628 3.6121850007751153 0 0 0
141 1 9.432048281502269 25.609773908199095 5.191108874361131 0 0 0
114 1 14.320387309842506 27.263146136824083 4.328659496541852 0 0 0
145 1 15.741201723240076 25.271181972623367 5.794592313552092 0 0 0
115 1 20.690783316406367 26.790561104238876 4.018869086855129 0 0 0
106 1 22.103034676411376 25.237773292603308 6.088715612486647 0 0 0
185 1 0.02870118823968247 28.682595205822167 5.451237646076443 0 0 0
235 1 6.009408427360417 28.802769901872466 5.618228891591844 0 0 0
282 1 4.466237843648682 30.1981182112847 3.795841655107142 0 0 0
389 1 12.395149391596204 28.894807644961503 5.391148344791297 0 0 0
285 1 10.75369417500834 30.485055936904303 3.6164234486320685 0 0 0
287 1 17.82409561680688 30.03896431342234 4.3474269991687144 0 0 0
187 1 19.39786984258424 28.67826052499315 6.066114616176716 0 0 0
288 1 24.237372277088607 30.501268223343146 3.7196750332177446 0 0 0
290 1 1.671533470972315 1.5001848259907482 3.775308150619889 0 1 0
283 1 3.2203208393892284 -0.01615938349457744 5.266782875446809 0 1 0
326 1 9.187211412571326 0.07933268293733765 5.4306811403896385 0 1 0
291 1 7.873578304008643 1.6024129039281318 3.7997252962289623 0 1 0
292 1 14.434118782012066 1.083568269160526 3.978069154121978 0 1 0
286 1 15.841902388945838 31.668988658201563 5.9892208734387715 0 0 0
294 1 20.658200136898092 1.4228472925310411 3.882715946455705 0 1 0
289 1 22.33988260066675 31.691272385483813 5.093347181825979 0 0 0
336 1 1.8317736158537856 4.658767122314712 7.090037954264044 0 1 0
368 1 3.434622578789993 3.290941101686213 9.24587522355336 0 1 0
339 1 8.104806561491861 4.5085478897498135 7.034679877275178 0 1 0
331 1 9.575465030912968 3.030669185383552 8.893701433698357 0 1 0
340 1 14.126514908177558 4.835208280712151 7.265614403276238 0 1 0
366 1 16.065917137896303 3.3498646715956344 8.713931841285246 0 1 0
341 1 20.715429051218234 4.422552901775235 6.965675405129536 0 1 0
376 1 22.516768899610863 3.0850314634783373 8.352768827919158 0 1 0
377 1 0.3849146411854138 6.3615339339559895 8.639849028296538 0 1 0
344 1 5.041770721034342 7.918361676185124 6.83123127937268 0 1 0
338 1 6.560119293523722 6.146835519239911 8.410091081416356 0 1 0
346 1 11.339482658399561 8.051642043777113 7.499757712566918 0 1 0
345 1 12.739858126292534 6.402396786091953 9.27753053151903 0 1 0
348 1 17.569915752198803 7.896828344283054 6.903487394684508 0 1 0
329 1 19.017739880670902 6.241528844313955 8.505456728223308 0 1 0
350 1 24.290893503397676 7.771631534994857 6.989136492864563 0 1 0
351 1 1.875145218723101 11.034148875203222 7.054902117935597 0 1 0
343 1 3.4968812711209494 9.58109474523103 8.505449009336488 0 1 0
353 1 8.25231312448087 11.280190083332657 6.998403185175782 0 1 0
347 1 9.786394432083403 9.851552534476273 8.639361214929119 0 1 0
354 1 14.394824609338052 11.192849885018648 6.945989036281237 0 1 0
355 1 16.034554364508725 9.714444864947787 8.709847532012738 0 1 0
356 1 20.766517169271854 11.038718867068571 7.177094166059617 0 1 0
349 1 22.71619809399226 9.283596620171343 8.649387841304659 0 1 0
385 1 0.1577851713095021 12.461328392968106 8.458272473740518 0 0 0
118 1 4.480894357572842 14.472161676307287 7.055868302625074 0 0 0
44 1 6.349726016356485 12.84907979691174 8.198234563396717 0 0 0
120 1 11.757655695867275 14.423100191301371 7.063279676473867 0 0 0
183 1 13.23960389831266 12.77739781247409 8.915896445378747 0 0 0
121 1 17.34773299424029 14.16956575394902 7.004310097099681 0 0 0
163 1 19.15557916075652 12.744201009987396 8.576521724843138 0 0 0
122 1 24.13989403099813 14.14658600624219 6.933202063014092 0 0 0
155 1 3.0287317466619776 16.04003496313993 8.613678829974893 0 0 0
123 1 1.2172718880661393 17.353270597676996 6.83847549861154 0 0 0
125 1 7.984382611371634 17.50737861807974 7.171366226599449 0 0 0
166 1 9.885638420887918 15.857858016247524 8.426097007896221 0 0 0
126 1 14.523647076562455 17.26516030296412 6.919723846554457 0 0 0
127 1 16.06161771411968 16.083752032914703 8.786639171031712 0 0 0
128 1 20.483900176012355 17.595707254155926 7.189451027980971 0 0 0
130 1 22.409292873321927 16.053736666409648 8.73580855280683 0 0 0
132 1 4.811136374642106 20.76391686378164 7.410737743265544 0 0 0
172 1 6.409832466351811 19.088606523098186 8.774332259337545 0 0 0
134 1 11.24447076304831 20.569984419275315 6.946298815825358 0 0 0
168 1 12.863209522417353 18.656638122524875 8.456196713224358 0 0 0
137 1 17.201198901162883 20.47375099166878 7.244044221177621 0 0 0
177 1 19.06499807352624 19.164889026799585 8.909500509144662 0 0 0
138 1 24.09163803069942 20.609543399058303 6.95492516166617 0 0 0
180 1 2.9472268341700216 22.49729101019208 8.430710920479033 0 0 0
139 1 1.4033263866659016 24.175557747597274 6.683883644658592 0 0 0
143 1 8.089006589036448 23.803888424761716 6.57392915212988 0 0 0
144 1 9.478611035452547 22.144905033986852 8.316319198124257 0 0 0
146 1 14.117216137719824 23.648914552050464 7.127672102956816 0 0 0
175 1 15.80570936571037 22.097819958792442 8.712656314548536 0 0 0
147 1 20.338893589564865 23.371322304556955 6.927328355068736 0 0 0
112 1 22.333644495321778 22.29804090313698 8.562541131321915 0 0 0
165 1 6.0379858732212535 25.28445721459098 7.9413850997102475 0 0 0
148 1 4.457515325589176 27.271686789100507 6.725604190506806 0 0 0
159 1 12.485219292393365 25.579336539494285 8.462137896420609 0 0 0
149 1 10.774003650868714 27.069049458151447 6.876977223191809 0 0 0
151 1 17.530069033150365 27.21770374033253 7.0963299528108985 0 0 0
31 1 19.144320312383734 25.642909505428094 8.753662778236889 0 0 0
152 1 23.87173177499067 27.39726406419112 7.163362079579554 0 0 0
227 1 2.946948310438263 28.88449535078663 8.377816327395342 0 0 0
322 1 1.2998124276912524 30.628472167605345 6.988160398232197 0 0 0
325 1 7.801149253620715 30.45945643069441 6.949732618032357 0 0 0
383 1 9.586347356985673 28.958933348383965 8.232274312697282 0 0 0
327 1 14.006172507808365 30.188936293369082 7.229924300520611 0 0 0
384 1 16.015323623384564 28.837965029917072 8.775480655096949 0 0 0
328 1 20.713287675141522 30.59943083563482 7.200690559041484 0 0 0
316 1 22.27219999857368 28.776369907648835 8.773110229067857 0 0 0
367 1 6.142824477000269 0.12465725527787472 8.991197769871365 0 1 0
330 1 4.691724755464795 1.693542267068779 7.3569349873674055 0 1 0
332 1 11.135792635684263 1.5824651590629968 6.983416473564315 0 1 0
370 1 12.634925700603658 0.024051687070224148 8.410647601907922 0 1 0
334 1 17.593147182036056 1.6096435993929248 7.114127932768513 0 1 0
362 1 19.117759377533623 0.1089195775440869 8.575129571104771 0 1 0
1374 1 0.4911752087469784 26.650511295212972 7.202068922327595 1 -1 1
335 1 23.963149470945332 1.537450068548121 6.47896168786955 0 1 0
772 1 0.20231654433324248 3.3531349403112856 12.089350215938696 0 1 0
781 1 6.2960051764097145 3.11176367453753 11.890764666003243 0 1 0
375 1 11.067356843218723 4.730414258286154 10.340341781158504 0 1 0
707 1 12.739542797632852 3.0919099613944 12.255786795549986 0 1 0
371 1 17.553999313016003 4.658239371851809 10.323888474143088 0 1 0
379 1 19.21151403517009 3.016183077782056 11.783812753674047 0 1 0
378 1 24.21592536378812 4.705680788925539 10.036967461112008 0 1 0
373 1 2.0012363063319327 7.756007827426518 10.291842165114636 0 1 0
358 1 5.119450091140441 5.1640279345002345 10.564220133902815 0 1 0
661 1 3.3730016762751682 6.6086713300637925 12.144179105425994 0 1 0
363 1 7.984297925657545 8.197940035844484 10.105374295732558 0 1 0
398 1 9.432321507730498 6.3973692078743465 11.850498605754707 0 1 0
360 1 14.56667694044462 8.084297773073711 10.764129115779822 0 1 0
741 1 16.01261129232618 6.254285318696038 12.0002945641832 0 1 0
320 1 20.704428783242758 8.023838210120033 10.172193980704504 0 1 0
656 1 22.457785443179294 6.211629831760847 11.901251875602448 0 1 0
770 1 0.13479201418563166 9.202856499591405 11.854270192151796 0 1 0
388 1 6.465427001793497 9.671257743376437 11.83095743649233 0 1 0
284 1 11.496206363797882 11.402261289961366 10.448320007299518 0 1 0
780 1 12.768589932198802 9.652699815990646 11.982188459517037 0 1 0
238 1 17.662886388862663 10.969575210396815 10.105729013276632 0 1 0
774 1 19.23189585091241 9.476738402723168 11.947498702533045 0 1 0
230 1 24.16085434880623 10.713450140848328 10.330705618598165 0 1 0
154 1 1.8984647794294134 14.281150143788762 10.249890798080147 0 0 0
313 1 4.825458605095347 11.558910467856656 10.269774787480916 0 1 0
478 1 3.22388900617452 12.822713368309085 12.003355453925414 0 0 0
157 1 7.900101238512266 14.480920752362413 10.13454296276126 0 0 0
193 1 9.6111811604107 13.076209976321321 11.824341719889999 0 0 0
160 1 14.645819713933667 14.352466097120985 10.515159344098011 0 0 0
514 1 16.08053482813871 12.760408086362643 11.92473588691357 0 0 0
162 1 20.69493862147877 14.359501594486835 10.349449364218499 0 0 0
392 1 22.472370621163606 12.618939816351379 11.704986370765907 0 0 0
189 1 0.0980428557251786 15.898187579525667 11.830877033562684 0 0 0
70 1 5.895670902356302 15.788010502368824 11.770529049898823 0 0 0
164 1 4.621709872725992 17.808518976769548 10.591214911143792 0 0 0
167 1 11.136711044430955 17.142078120770485 10.20821448982218 0 0 0
108 1 12.809489908671502 15.870359362054261 11.706440032790276 0 0 0
169 1 17.52615851848282 17.43289870114905 10.445238282306546 0 0 0
586 1 19.150433464753636 16.021237476443645 11.950049516434829 0 0 0
170 1 23.640772829400927 17.614721349323275 10.45670480506703 0 0 0
585 1 2.7873622323387144 19.3441919288628 11.96511624240025 0 0 0
171 1 1.3445352434655478 20.763822193087364 9.849072853377065 0 0 0
195 1 9.357211818944414 19.026717372696794 11.784365948057312 0 0 0
174 1 8.100801638060714 20.609096139531722 10.244617397498676 0 0 0
176 1 14.046110512474208 20.78337698554178 10.209638733716995 0 0 0
194 1 15.79391145455 19.082488084654557 11.782547397715362 0 0 0
20 1 22.007875740092633 19.52559325911679 11.671258773405214 0 0 0
597 1 17.347444333626584 1.7379255796885877 13.289274718576259 0 1 0
181 1 4.705732909696511 24.002044516917486 9.821405096066705 0 0 0
191 1 6.379491860690079 22.023268237710468 11.5470053275943 0 0 0
9 1 12.265208675627989 22.43963489041063 11.761981471834655 0 0 0
150 1 10.77030966119427 23.931437760244528 10.036278770391569 0 0 0
119 1 17.47006002919909 24.019393728487017 10.109684119009954 0 0 0
580 1 18.79613082057304 22.806663213811994 11.969125197863717 0 0 0
178 1 20.439208255152035 21.21841296717328 10.356320177986442 0 0 0
156 1 23.87318912912526 24.039427244519317 10.224449997240491 0 0 0
153 1 1.8595132061214035 26.922549898662623 9.772805204817049 0 0 0
117 1 3.1905650125162697 25.36413909432298 11.710921852927406 0 0 0
161 1 7.774231643465042 27.042332474335346 9.45611883993952 0 0 0
186 1 9.161157438371701 25.610491022919362 11.401274927494427 0 0 0
198 1 15.693040012443038 25.316691975960453 11.825017165419304 0 0 0
116 1 14.374309775268058 27.426531798315402 10.244671706138067 0 0 0
37 1 20.79818699480399 27.245616784997665 10.314377927503239 0 0 0
196 1 22.271642603113328 25.532117220950063 11.822359584027854 0 0 0
43 1 0.2575723379032285 28.68485524253291 11.563164552649248 0 0 0
182 1 6.117559350275254 28.365846660574938 11.404862584284997 0 0 0
357 1 4.445971155297783 30.382145638072053 10.20881835674594 0 0 0
390 1 12.470845398917701 29.243571101735967 11.706814130077403 0 0 0
359 1 10.91631972693485 30.493870488097244 10.066572385771398 0 0 0
361 1 17.830460301607477 30.457357155118224 10.256956855049404 0 0 0
784 1 19.397906345545568 28.83349952731934 11.887295905785912 0 0 0
364 1 24.003594304839346 30.355706902738348 10.450834257051659 0 0 0
595 1 11.038643036430805 1.3325523988589052 13.452950947599163 0 1 0
203 1 2.8305320189353034 -0.028296925396290362 11.750823365322349 0 1 0
365 1 1.296082321182422 1.6075044302403318 10.348407710155836 0 1 0
369 1 8.068103342301248 1.4948949412243562 10.343280872614288 0 1 0
775 1 9.44686317922961 0.05719582518012302 11.920852373376754 0 1 0
372 1 14.186266745251762 1.6929184201285743 10.106307155003945 0 1 0
397 1 15.955256781263046 31.948720951683747 11.690338967344449 0 0 0
374 1 20.93045269214914 1.578590541224629 9.956217672961454 0 1 0
783 1 22.521900538055252 0.05804516990154861 12.002302357231299 0 1 0
600 1 1.7592399733335378 4.9858246321208055 13.682951100573618 0 1 0
593 1 3.404792158377091 3.279068363039779 14.97400052256182 0 1 0
601 1 7.927310698646913 4.7477359575411775 13.585555511607108 0 1 0
602 1 9.722060622695297 3.0384718549393206 15.203424873867068 0 1 0
603 1 14.379031127016008 4.698278112614996 13.505473001133863 0 1 0
604 1 15.956352444586198 3.154531337378002 15.181618523437963 0 1 0
605 1 20.70489225211461 4.714845923124661 13.375063092266842 0 1 0
635 1 22.308767115506942 3.1897993912812 15.132433990746174 0 1 0
623 1 12.700845278905415 31.7747451902086 14.931033335906772 0 0 0
608 1 4.883421670387833 8.104612073836995 13.710633204407685 0 1 0
607 1 6.4844908696952 6.346503138882832 15.310219515708248 0 1 0
610 1 11.04874715856721 8.007901444490704 13.522721917115355 0 1 0
611 1 12.603463867364157 6.134103831641549 15.225539280263442 0 1 0
612 1 17.650743931343747 7.979648212373004 13.602010234695822 0 1 0
647 1 19.213615953460803 6.4792336981969045 15.008663424488773 0 1 0
613 1 24.26192543968624 7.800334110887078 13.619858015403452 0 1 0
614 1 1.6805857566551936 11.059408856597136 13.514323540682238 0 1 0
606 1 3.39866744105075 9.778471959354658 15.397076110685727 0 1 0
615 1 7.956716391276716 11.192754855118887 13.547214596357966 0 1 0
609 1 9.51687589815844 9.807261524721312 15.224513216999664 0 1 0
617 1 14.488649812859915 11.26579129034258 13.490618470117514 0 1 0
645 1 16.008444476298646 9.790779123573415 15.127769315648914 0 1 0
618 1 21.006723239669594 10.92931424414245 13.47835561069812 0 1 0
650 1 22.24764490244906 9.320592302037202 15.325527812316603 0 1 0
323 1 25.14120346863357 0.10510892519215187 8.873302132553318 -1 1 0
400 1 4.618966265858276 14.469813646191254 13.761174187232198 0 0 0
516 1 6.383951574401684 12.761793674399847 15.261239504198496 0 0 0
401 1 11.097063509313774 14.386868375908291 13.566263856216418 0 0 0
583 1 12.869731270014684 12.744375900117968 15.17263291700858 0 0 0
404 1 17.462612101519248 14.667353967065885 13.232136195580912 0 0 0
577 1 19.480221264505257 13.057893598723949 14.583569959863924 0 0 0
407 1 24.112910378900366 14.347547727835101 13.388653710629013 0 0 0
399 1 2.822056706100246 15.989869864582444 15.453109732501568 0 0 0
409 1 1.562012851089775 17.393432373660808 13.428417299057031 0 0 0
447 1 9.30371958345735 15.83838407079764 15.060805219077928 0 0 0
410 1 7.5564517022632485 17.281898501315823 13.216190707464714 0 0 0
412 1 14.118581901655762 17.43077387156203 13.420863207090623 0 0 0
403 1 15.807391633954191 15.941273189567502 15.117941220477762 0 0 0
444 1 22.215382101273757 16.160158464402606 14.85806877181592 0 0 0
415 1 4.835569311676256 20.498546458873555 13.280819534971236 0 0 0
411 1 6.369782208310371 18.881166761513867 15.039581007599232 0 0 0
417 1 10.81282145207274 20.653661800071518 13.598428160595121 0 0 0
449 1 12.681911460887818 18.941674582800765 14.960503188566173 0 0 0
452 1 18.85938343402719 19.335538690475495 14.93892300664203 0 0 0
419 1 17.217774517330003 20.94981929852767 13.30057858672084 0 0 0
414 1 20.72859791301148 18.065959686555537 13.381002512923926 0 0 0
423 1 23.85840457788069 20.500582312286163 13.249185301593043 0 0 0
424 1 1.6952479256642696 23.83124288297566 13.213704695284799 0 0 0
463 1 3.3554487747099406 22.022497749230254 14.626057620747838 0 0 0
416 1 9.226222692874915 22.443297468200853 14.85507736335953 0 0 0
425 1 7.985395916938346 23.77864242618263 12.914618115126649 0 0 0
420 1 15.632408313126277 22.27193517442297 14.924578132460338 0 0 0
428 1 13.864222766105344 24.007997303483975 13.614090559048101 0 0 0
429 1 20.6206201297498 24.23131797070043 13.407403912281431 0 0 0
462 1 22.477727241747267 22.438595620893167 14.74290236083127 0 0 0
438 1 0.3394773724026521 25.593772605424284 14.623855640411485 0 0 0
432 1 4.755684580410833 26.9397702150559 13.483600910721234 0 0 0
473 1 6.396290089517537 25.0744597782475 14.604620239883783 0 0 0
467 1 12.360581300187096 25.93076628007738 14.915361363790213 0 0 0
433 1 10.984496171735353 27.299731805166815 13.11614902009416 0 0 0
479 1 18.810541239297898 25.66903633792284 14.848928281564127 0 0 0
435 1 17.305706213450538 27.140090269675106 13.285500385346527 0 0 0
437 1 24.28581655541606 27.18361450932892 13.248323381206516 0 0 0
588 1 1.5107359096200152 30.271984634435 13.43566318022411 0 0 0
651 1 3.3114633703766896 28.79446810231903 14.88910688089998 0 0 0
406 1 9.14127282212196 28.534045764911347 14.970652207234023 0 0 0
590 1 7.499099825300997 30.10734779091878 13.210050205945137 0 0 0
591 1 14.289827084495407 30.538104128315098 13.305538869205643 0 0 0
778 1 15.837808103509055 29.01298374176551 15.16195255473214 0 0 0
592 1 20.964002587654633 30.54737801455981 13.45108865124065 0 0 0
660 1 22.703072890288517 28.743479170239958 14.90369483239969 0 0 0
627 1 0.06810435526590805 31.89610280956048 15.006027578437992 0 0 0
621 1 6.078339296135255 31.934824395951253 14.774355572525174 0 0 0
594 1 4.629390627206085 1.6393253156518883 13.195828547345009 0 1 0
1017 1 0.24315502779904635 6.285723788433364 15.885274429126204 2 0 2
1031 1 0.40131489926172065 12.643846216866388 15.222180502681967 0 -2 0
1411 1 0.16456442959855191 19.764614345846873 7.848511908757885 1 1 0
1030 1 -0.04252712545888215 22.899630978406663 11.262254214834488 0 2 1
865 1 0.2880473674504976 9.614796364525175 5.211572646719066 1 2 2
677 1 0.003777913142208926 3.152319695534878 18.335080080451156 0 1 0
638 1 4.966832239815127 4.610919309229078 16.966755964491092 0 1 0
629 1 6.2961666254157675 2.9221552314156627 18.38044577174591 0 1 0
639 1 11.093178374000203 4.536896219469385 16.908887454340928 0 1 0
631 1 12.976953066619956 3.126535379338565 18.661442782103585 0 1 0
640 1 17.64878644730354 4.691225781549191 16.619777455897058 0 1 0
683 1 19.271057330615378 3.1314448519933777 18.43293314280686 0 1 0
641 1 23.83318574081794 4.5744966840576105 16.752469140306395 0 1 0
642 1 1.9213360496895697 7.848057401398017 16.827919229520234 0 1 0
637 1 3.4055226307461828 6.260695770051711 18.32865058252628 0 1 0
643 1 8.121072389501723 8.265483854679335 17.05170626886619 0 1 0
644 1 9.74331189234594 6.252749692108433 18.392751311670118 0 1 0
646 1 14.51312223693643 7.841850465624383 16.859968518176714 0 1 0
681 1 15.995215914270382 6.188640429844467 18.416799329347008 0 1 0
649 1 21.94050502373113 6.117305832856516 18.130368100286674 0 1 0
648 1 20.478337882558794 8.067355416365704 16.80083990626529 0 1 0
701 1 0.27090476636656924 9.192165041884344 18.652750404357967 0 1 0
652 1 4.829014803168597 11.149977370162052 17.04909959676022 0 1 0
685 1 6.463534789634045 9.83154109969885 18.74410090333904 0 1 0
653 1 11.681056247545063 11.014621677580354 16.655014016009908 0 1 0
654 1 13.087025107231117 9.826480455267415 18.54428525895066 0 1 0
657 1 18.021230956749744 11.243288089653056 16.48554563388351 0 1 0
698 1 18.931603047128345 9.59705781944786 18.21102068310818 0 1 0
658 1 24.126663701784924 10.964324437919776 17.105235283834745 0 1 0
439 1 1.326278335748135 14.226608886767105 16.851832090811428 0 0 0
625 1 3.106511338476143 12.719448324882555 18.368892854516055 0 0 0
440 1 7.848370169715486 14.430041568471061 16.93299545900193 0 0 0
776 1 9.441165865515883 12.580840064053016 18.263665810813585 0 0 0
441 1 14.453965703019186 14.255529595479171 16.76349317842587 0 0 0
692 1 16.468115908018888 12.638133320462394 18.251887514889745 0 0 0
442 1 21.00602658378653 14.5035724540592 16.456012418808186 0 0 0
759 1 22.281539370811558 12.521590380204694 17.881402819884833 0 0 0
446 1 4.6969341933514075 17.631585462644303 16.792988741733303 0 0 0
490 1 6.37286834028276 15.994907467593956 18.65976326989219 0 0 0
448 1 11.076741783379626 17.322123983978166 16.804367522284245 0 0 0
484 1 12.836400668667276 16.13486149716237 18.482733487906508 0 0 0
450 1 17.311302744374828 17.620947336686392 16.646128997106203 0 0 0
443 1 19.416338014583403 16.13842684608825 17.96659449165422 0 0 0
453 1 23.77345136820186 17.364474769679347 16.46075111011296 0 0 0
455 1 3.012154557538283 19.087716044071108 18.339513213817227 0 0 0
454 1 1.3541625182110226 20.43459573342514 16.230237220663042 0 0 0
456 1 8.317165435299852 20.477261249744494 16.79139666340665 0 0 0
457 1 10.000602265197278 18.963455970279256 18.45805696636676 0 0 0