
# Create simulation box of size 50 x 50 x 50 Angstrom
#
lattice	            sc 1
Lattice spacing in x,y,z = 1.0000000 1.0000000 1.0000000
region 	            all block 0 50 0 50 0 50 units box
create_box          1 all
Created orthogonal box = (0.0000000 0.0000000 0.0000000) to (50.000000 50.000000 50.000000)
  1 by 2 by 2 MPI processor grid

# fill box with 4169 randomly distributed atoms
#
create_atoms        1 random 4169 63782 all
Created 4169 atoms
  create_atoms CPU = 0.001 seconds
mass                1 18.015

# Define potential
#
pair_style          sw
pair_coeff          * * ../ML.sw mW
Reading sw potential file ../ML.sw with DATE: 2019-02-27

# Run minimization
#
minimize            1.0e-8 1.0e-8 10000 1000
WARNING: Using 'neigh_modify every 1 delay 0 check yes' setting during minimization (../min.cpp:187)
Neighbor list info ...
  update every 1 steps, delay 0 steps, check yes
  max neighbors/atom: 2000, page size: 100000
  master list distance cutoff = 6.0032907
  ghost atom cutoff = 6.0032907
  binsize = 3.0016454, bins = 17 17 17
  1 neighbor lists, perpetual/occasional/extra = 1 0 0
  (1) pair sw, perpetual
      attributes: full, newton on
      pair build: full/bin/atomonly
      stencil: full/bin/3d
      bin: standard
Per MPI rank memory allocation (min/avg/max) = 4.249 | 4.256 | 4.259 Mbytes
Step Temp E_pair E_mol TotEng Press 
       0            0    7783843.3            0    7783843.3    5891587.6 
     634            0   -45129.497            0   -45129.497   -10.763075 
Loop time of 2.11534 on 4 procs for 634 steps with 4169 atoms

100.0% CPU use with 4 MPI tasks x no OpenMP threads

Minimization stats:
  Stopping criterion = max force evaluations
  Energy initial, next-to-last, final = 
      7783843.32296635  -45128.9583260209  -45129.4970490131
  Force two-norm initial, final = 2.0192097e+08 5.8579940
  Force max component initial, final = 1.0948837e+08 1.0937253
  Final line search alpha, max atom move = 0.016693065 0.018257628
  Iterations, force evaluations = 634 1001

MPI task timing breakdown:
Section |  min time  |  avg time  |  max time  |%varavg| %total
---------------------------------------------------------------
Pair    | 1.7354     | 1.8689     | 1.9754     |   6.5 | 88.35
Neigh   | 0.044857   | 0.046664   | 0.047495   |   0.5 |  2.21
Comm    | 0.064079   | 0.17015    | 0.30479    |  21.5 |  8.04
Output  | 0          | 0          | 0          |   0.0 |  0.00
Modify  | 0          | 0          | 0          |   0.0 |  0.00
Other   |            | 0.0296     |            |       |  1.40

Nlocal:        1042.25 ave        1060 max        1019 min
Histogram: 1 0 1 0 0 0 0 0 0 2
Nghost:        1769.00 ave        1786 max        1740 min
Histogram: 1 0 0 0 0 0 0 2 0 1
Neighs:        0.00000 ave           0 max           0 min
Histogram: 4 0 0 0 0 0 0 0 0 0
FullNghs:      29851.5 ave       30699 max       28814 min
Histogram: 1 0 0 1 0 0 0 0 1 1

Total # of neighbors = 119406
Ave neighs/atom = 28.641401
Neighbor list builds = 24
Dangerous builds = 0

# Add velocity/set timestep
#
velocity            all create ${TEMP} 120598 rot yes dist gaussian
velocity            all create 298 120598 rot yes dist gaussian
timestep            5.0

# Define output
#
compute	            1 all msd
thermo	            100
thermo_style        custom step temp press vol etotal ke pe c_1[4] density

# Neighbor lists
#
neigh_modify        delay 0 every 1 check yes

# Set fixes
#
fix                 1 all momentum 10 linear 1 1 1 rescale
fix                 2 all npt temp ${TEMP} ${TEMP} ${TDAMP} iso ${PRES} ${PRES} ${PDAMP}
fix                 2 all npt temp 298 ${TEMP} ${TDAMP} iso ${PRES} ${PRES} ${PDAMP}
fix                 2 all npt temp 298 298 ${TDAMP} iso ${PRES} ${PRES} ${PDAMP}
fix                 2 all npt temp 298 298 1000.0 iso ${PRES} ${PRES} ${PDAMP}
fix                 2 all npt temp 298 298 1000.0 iso 1 ${PRES} ${PDAMP}
fix                 2 all npt temp 298 298 1000.0 iso 1 1 ${PDAMP}
fix                 2 all npt temp 298 298 1000.0 iso 1 1 2500.0

# Run 100 ps equilibration
#
dump                1 all custom 1000 eq.${NAME}.dump id type x y z vx vy vz
dump                1 all custom 1000 eq.liquid_298K_1atm_ML2.dump id type x y z vx vy vz
run                 20000
Per MPI rank memory allocation (min/avg/max) = 3.507 | 3.512 | 3.520 Mbytes
Step Temp Press Volume TotEng KinEng PotEng c_1[4] Density 
     634          298    1343.1822       125000    -41427.14    3702.3569   -45129.497  4.62464e-33   0.99771203 
     700    146.02867     -966.638    126383.26   -41354.259    1814.2626   -43168.521   0.27263314   0.98679211 
     800    154.03463   -14.183517    125353.26   -41198.053    1913.7287   -43111.781   0.51958805   0.99490033 
     900    166.90186   -68.813074    125343.44   -40997.194    2073.5914   -43070.785     0.785704   0.99497827 
    1000    180.36759    467.98837    125349.67   -40767.181    2240.8898   -43008.071    1.1647562   0.99492888 
    1100    191.94797     127.1068    125194.06   -40515.769    2384.7647   -42900.534    1.5655255   0.99616552 
    1200    204.12744   -221.19704    125685.17   -40246.409    2536.0827   -42782.492    1.9418271   0.99227305 
    1300    213.50609   -116.58493    125560.17   -39965.054    2652.6031   -42617.657    2.2978168   0.99326083 
    1400    223.72826   -15.767446     125872.3   -39675.669    2779.6035   -42455.272    2.6946894   0.99079781 
    1500    233.37409    30.649897    125654.19   -39380.296    2899.4435   -42279.739    3.0616636   0.99251764 
    1600    242.85292    314.40493     125882.6   -39083.052    3017.2087   -42100.261    3.5277161   0.99071676 
    1700    251.69846    2.6700471    125677.49    -38789.18    3127.1058   -41916.286    4.0809548   0.99233362 
    1800    259.67649    -100.6968    126009.74   -38497.236    3226.2249   -41723.461    4.6284685   0.98971714 
    1900    266.92045    36.615619    125563.54   -38214.174     3316.224   -41530.398    5.2076979   0.99323422 
    2000     276.8856   -367.93651    125797.87   -37943.659    3440.0312    -41383.69    5.9667864    0.9913841 
    2100    283.54311    221.13059    125284.02   -37692.162    3522.7443   -41214.906    6.7982111   0.99545019 
    2200    290.23298    -354.3244    125757.88   -37459.614    3605.8592   -41065.473    7.7351416   0.99169929 
    2300    285.31843   -584.70282    126517.79   -37245.527    3544.8008   -40790.328    8.7353805   0.98574283 
    2400    295.45565   -17.040234    126088.15   -37052.277    3670.7458   -40723.023    9.8721367    0.9891017 
    2500    308.00698   -530.87304    125877.84   -36898.896    3826.6838    -40725.58    11.077031    0.9907542 
    2600    301.43814   -56.651329    125191.87   -36787.307    3745.0724   -40532.379    12.303656   0.99618296 
    2700     305.7292    204.53245    125155.11   -36715.537    3798.3846   -40513.922    13.504379   0.99647552 
    2800    303.49537   -479.88783    125656.32   -36682.693    3770.6315   -40453.325     14.80427   0.99250082 
    2900    305.44841    83.778632    125210.77   -36693.562     3794.896   -40488.458    16.374175   0.99603256 
    3000    304.65026    3.6594927    125568.35   -36744.297    3784.9798   -40529.276    17.756185   0.99319615 
    3100    299.52994    342.05863     125571.1   -36823.492    3721.3648   -40544.856     18.94174   0.99317444 
    3200    295.86737     244.4478    125472.25   -36909.169    3675.8611    -40585.03    20.184789   0.99395688 
    3300    295.27861     222.9881    125088.42   -36993.455    3668.5463   -40662.002    21.366719   0.99700682 
    3400    293.94684    61.501206    125290.17   -37059.053    3652.0004   -40711.053    22.738037   0.99540135 
    3500    294.47116    183.68171    125128.55   -37101.501    3658.5145   -40760.015    24.048889   0.99668704 
    3600    295.03083    30.890341    125503.08   -37123.453    3665.4678   -40788.921    25.598195    0.9937127 
    3700    296.38205   -82.495401    125355.24   -37116.957    3682.2554   -40799.212    26.964292   0.99488467 
    3800    292.40729   -211.19146     124738.7   -37087.265    3632.8729   -40720.138    28.237087   0.99980199 
    3900    295.06476    -222.5631    125243.67       -37045    3665.8893   -40710.889    29.329566   0.99577091 
    4000    297.21354    333.02475    124842.34   -36999.946    3692.5859   -40692.532    30.543881   0.99897203 
    4100    296.52908   -227.28269    124671.98   -36952.567    3684.0821   -40636.649    31.816176    1.0003371 
    4200    295.78824    474.61342    124148.58   -36899.423    3674.8779   -40574.301    33.042592    1.0045544 
    4300    299.31557   -356.69226    124670.87   -36843.736    3718.7015   -40562.437    34.417159     1.000346 
    4400    307.14341    196.98632    124194.09   -36793.657    3815.9548   -40609.612    35.833526    1.0041863 
    4500    306.33979    216.33484    124368.61   -36770.545    3805.9705   -40576.515    37.295261    1.0027772 
    4600     300.5573   -180.35926    124964.49   -36782.834    3734.1288   -40516.963    38.955772   0.99799551 
    4700    300.54012   -86.981845    124199.48   -36819.662    3733.9153   -40553.577    40.508008    1.0041427 
    4800    306.37397     236.6846    124229.67   -36877.383    3806.3952   -40683.778    41.811644    1.0038987 
    4900    297.05641    186.03652    124887.78   -36945.888    3690.6337   -40636.521    43.671577    0.9986085 
    5000    289.90282   -387.85834    124783.33   -37004.933    3601.7573    -40606.69     44.90723   0.99944441 
    5100    295.88372    251.84869    124489.66   -37038.113    3676.0642   -40714.177    45.719604    1.0018021 
    5200    293.72994    40.927297    124700.55   -37051.517    3649.3056   -40700.822    47.054517    1.0001079 
    5300     296.3493    570.49229    124279.12   -37043.594    3681.8485   -40725.443     48.55766    1.0034993 
    5400    296.45176   -367.03226    125169.43   -37015.962    3683.1215   -40699.084    50.124202   0.99636153 
    5500    296.15209    210.20086    124878.08   -36968.012    3679.3984   -40647.411     51.39122   0.99868614 
    5600    296.14464   -311.18816    125330.78   -36911.362    3679.3058   -40590.668    53.039822   0.99507878 
    5700    298.13263    279.03967    125172.98   -36866.206    3704.0046   -40570.211    54.586785   0.99633326 
    5800    302.15514   -220.84223    125569.43   -36837.367    3753.9804   -40591.347    56.119423   0.99318761 
    5900    301.18639   -252.60038    125417.85   -36826.568    3741.9446   -40568.513    57.706859   0.99438797 
    6000    302.93042    342.34573    124915.27   -36837.136    3763.6125   -40600.749    58.621925   0.99838875 
    6100    299.99358   -77.186981    124980.13   -36866.426    3727.1251   -40593.552    59.804665   0.99787062 
    6200    295.93717    62.773749    124669.22   -36903.782    3676.7283    -40580.51     61.41629    1.0003592 
    6300    296.59625    61.620471    124895.72   -36950.098    3684.9166   -40635.015    62.896693   0.99854502 
    6400    293.42667    120.58276    125123.52   -36988.231    3645.5378   -40633.769    64.716286   0.99672707 
    6500    292.49682    699.93978    124285.03   -37010.675    3633.9852    -40644.66    65.724808    1.0034515 
    6600    302.76448    121.03285    125012.38   -37017.419    3761.5509    -40778.97    67.082038   0.99761324 
    6700    293.92683    284.24454    125066.51   -37015.008    3651.7517    -40666.76     68.84445   0.99718142 
    6800      300.904   -382.57822    125615.99   -36999.257    3738.4362   -40737.694    70.577628    0.9928195 
    6900     301.1924    94.354756    125017.09   -36983.379    3742.0193   -40725.398    71.331708   0.99757563 
    7000    299.18095    -115.5365    125631.61   -36978.292     3717.029   -40695.321    72.734182   0.99269607 
    7100    304.23649   -116.35241    125456.34   -36975.287    3779.8391   -40755.126    73.643289    0.9940829 
    7200    299.95906   -78.860912    125012.78   -36974.735    3726.6963   -40701.431    74.472233   0.99761003 
    7300    296.60953    135.56748    124792.35   -36968.045    3685.0816   -40653.126    75.673685   0.99937218 
    7400    297.31202   -302.16769    125203.41   -36957.869    3693.8093   -40651.678    77.492695   0.99609109 
    7500    300.28639   -166.59486    125202.78   -36948.315     3730.763   -40679.078    78.617531   0.99609608 
    7600    294.33205   -79.950622    125267.96   -36940.729    3656.7861   -40597.515    80.007103    0.9955778 
    7700    298.88508   -83.434931    124982.12    -36924.42    3713.3531   -40637.774    81.230177   0.99785476 
    7800    299.80769   -293.18807    125460.99   -36913.297    3724.8156   -40638.113    82.707719   0.99404609 
    7900    298.05545   -212.23716    125229.28   -36913.076    3703.0457   -40616.121     83.30385    0.9958853 
    8000    292.36515   -87.692467    124909.81   -36913.825    3632.3494   -40546.174    84.013023   0.99843242 
    8100     295.9783   -6.6928616    124692.46    -36911.28    3677.2392   -40588.519     85.22395    1.0001728 
    8200    300.95459    219.85867    124824.16   -36900.667    3739.0648   -40639.732    86.908041   0.99911751 
    8300    300.45916   -63.897686    125883.65    -36894.81    3732.9095   -40627.719    88.702363   0.99070852 
    8400    298.70272    305.24409     125106.8    -36888.76    3711.0874   -40599.847    90.276681   0.99686029 
    8500    300.42792    85.090773    124582.64   -36887.369    3732.5214   -40619.891    91.743951    1.0010545 
    8600    301.44908    247.07541    124623.14   -36890.695    3745.2083   -40635.903    93.453397    1.0007291 
    8700    296.32875    304.93242    125060.27   -36896.163    3681.5932   -40577.756    95.030962    0.9972312 
    8800    296.73169    -187.4058    125450.72   -36909.311    3686.5993    -40595.91     96.88042   0.99412744 
    8900    296.09969     156.0077    125357.11   -36931.445    3678.7474   -40610.193     98.31125    0.9948698 
    9000    295.16252   -61.393415    125579.24   -36952.236    3667.1039    -40619.34    100.45532   0.99311003 
    9100    298.38404    32.263347    125563.56   -36960.266    3707.1282   -40667.394    101.98482   0.99323405 
    9200    294.17061   -21.057893     125299.8   -36954.178    3654.7804   -40608.958    103.25542   0.99532488 
    9300    297.12388    91.983421    125379.12    -36942.13     3691.472   -40633.602    104.37941   0.99469514 
    9400    298.12064    368.18496    125155.57   -36931.867    3703.8556   -40635.723    105.96528    0.9964719 
    9500    297.97868    18.106475    124866.43    -36926.51     3702.092   -40628.602    107.26912   0.99877931 
    9600     297.4743   -90.758743    125118.74   -36923.724    3695.8255   -40619.549     108.8998   0.99676519 
    9700    301.18472    241.34006    124786.48   -36927.577    3741.9239   -40669.501    109.88792    0.9994192 
    9800    297.81189    267.31547    124956.51   -36939.629    3700.0197   -40639.649    111.37777    0.9980593 
    9900    298.36211    -96.32504    124742.13    -36945.41    3706.8557   -40652.266    113.20986   0.99977451 
   10000    294.70557   -161.10996    124795.78   -36945.387    3661.4268   -40606.813    114.71023   0.99934472 
   10100    297.87893    233.95193    125107.73   -36932.933    3700.8527   -40633.786    116.20091   0.99685289 
   10200     296.8666    154.35827    124665.47   -36902.323    3688.2755   -40590.599    117.50692    1.0003893 
   10300    302.56955   -146.55475    124738.28   -36873.801     3759.129    -40632.93    119.12708   0.99980536 
   10400    296.34653   -185.95011    125118.76   -36869.461    3681.8142   -40551.275    120.64391     0.996765 
   10500    304.22075   -136.56727    124739.44   -36872.515    3779.6436   -40652.158    122.01446   0.99979606 
   10600    296.94967    178.54237    125124.52   -36895.994    3689.3075   -40585.302    123.25966    0.9967191 
   10700    298.73698   -99.699688    125550.78   -36920.137    3711.5131    -40631.65    125.06291   0.99333513 
   10800    303.60643   -212.62654     125429.2   -36947.903    3772.0112   -40719.915    126.40584   0.99429802 
   10900    299.54286    43.230707     124927.5   -36975.904    3721.5254   -40697.429    127.47913   0.99829104 
   11000    295.96207   -89.920187       124836   -37003.745    3677.0375   -40680.783    128.77653   0.99902275 
   11100    293.04064    -167.7397    125094.71   -37019.835    3640.7417   -40660.576    130.45898   0.99695667 
   11200    294.54015   -44.181722    125174.55   -37016.141    3659.3716   -40675.513    132.07598   0.99632074 
   11300     293.4163   -301.02327    125758.76   -36995.837    3645.4089   -40641.246    133.60538   0.99169239 
   11400    298.51129   -162.34427    125878.48   -36955.734    3708.7091   -40664.443    134.78015   0.99074917 
   11500    299.68274    -157.7055    125137.22   -36916.501    3723.2633   -40639.764    135.22749   0.99661795 
   11600    296.20195    28.709956    125100.37     -36889.3    3680.0179   -40569.318    136.27913   0.99691156 
   11700    304.72214    274.12625    124996.81   -36874.733    3785.8729   -40660.606    137.50258   0.99773749 
   11800    297.72947   -308.78492    125517.74   -36877.797    3698.9958   -40576.793    139.29353   0.99359666 
   11900    304.07094    331.24373    124746.52   -36893.792    3777.7824   -40671.574    140.31667   0.99973938 
   12000    301.90626    142.16642    125456.27   -36928.255    3750.8884   -40679.143    141.82305   0.99408345 
   12100    295.57565   -250.06727    124784.05   -36977.314    3672.2367    -40649.55    142.63751   0.99943863 
   12200    298.32676    89.610063    124340.91   -37016.759    3706.4165   -40723.175    143.74782    1.0030006 
   12300    291.99641   -393.47036     124987.8   -37037.293    3627.7681   -40665.061    145.49495   0.99780938 
   12400    290.55003    371.07888    124516.61   -37043.491    3609.7983   -40653.289    146.41534    1.0015852 
   12500    294.17275     149.4703    125038.71   -37028.627     3654.807   -40683.434    148.59885   0.99740312 
   12600    294.99318    504.33584     124721.4   -36991.051         3665   -40656.051    150.21733   0.99994068 
   12700    298.63673    126.68491    124416.44   -36942.961    3710.2676   -40653.229    151.58126    1.0023917 
   12800    295.58762    217.48606    124949.42   -36889.118    3672.3855   -40561.504    153.01575   0.99811588 
   12900    301.79443   -160.39734    124845.99   -36849.236     3749.499   -40598.735    154.01341   0.99894277 
   13000     304.0335   -24.481023    124672.59   -36826.338    3777.3171   -40603.655    155.59064    1.0003322 
   13100    299.50486   -323.09839    125563.24   -36827.161    3721.0532   -40548.214    158.13913   0.99323655 
   13200    299.08637   -430.23454    125599.77   -36836.226    3715.8539    -40552.08    159.76621   0.99294768 
   13300    299.40023    -54.10183    125276.49   -36858.709    3719.7533   -40578.463    160.40827   0.99551006 
   13400    292.14405    259.22252       124790   -36888.122    3629.6024   -40517.725    161.47163   0.99939099 
   13500    302.00899    65.325052    124912.38   -36919.717    3752.1646   -40671.882    162.75839    0.9984119 
   13600    301.54244   -326.08685    125266.55    -36953.82    3746.3682   -40700.189    164.88235   0.99558899 
   13700    293.94729     110.0073    124026.59   -36975.521    3652.0059   -40627.527    165.63486    1.0055425 
   13800    293.61558    -298.3715    124292.83   -36985.734    3647.8847   -40633.619    167.11007    1.0033886 
   13900    296.95807    193.85376    124388.97   -36977.806    3689.4119   -40667.218    168.28708    1.0026131 
   14000     292.8799   -94.319462    124307.96   -36952.324    3638.7447   -40591.069    169.83588    1.0032664 
   14100    297.67405   -276.93429    124507.61   -36912.309    3698.3072   -40610.616    171.15605    1.0016577 
   14200    298.76516    240.48317    124394.77   -36875.442    3711.8632   -40587.305    171.91707    1.0025663 
   14300    296.35586   -637.52314    124840.79   -36849.235    3681.9301   -40531.165    173.71573   0.99898438 
   14400     295.6295   -454.99892    124983.66   -36821.682    3672.9057   -40494.587    175.13154   0.99784244 
   14500    302.71728    214.71557    124978.77   -36799.861    3760.9645   -40560.826    176.60402   0.99788149 
   14600    296.12548   -240.93223    125650.21   -36789.929    3679.0678   -40468.996    178.75137   0.99254912 
   14700    300.59808   -58.033311    125742.17   -36792.652    3734.6355   -40527.288     179.9084   0.99182321 
   14800    301.63004    105.94353    124917.19   -36823.056    3747.4566   -40570.512    180.07004   0.99837347 
   14900    302.25555    4.4503079    124884.68   -36882.761    3755.2279   -40637.989    180.63305   0.99863333 
   15000    297.06807   -269.14203    125329.15   -36939.103    3690.7785   -40629.882    181.92966   0.99509178 
   15100    303.24652   -339.39061    125346.52   -36970.817    3767.5397   -40738.357    182.98987   0.99495389 
   15200    299.26204    63.042596    125259.92   -36991.725    3718.0364   -40709.761    184.33005   0.99564169 
   15300     297.7828    183.31678       125235   -36999.831    3699.6583   -40699.489    185.06002   0.99583988 
   15400    299.46946   -74.259306     125454.8   -37002.056    3720.6134    -40722.67    187.12446   0.99409509 
   15500    297.06428    3.1589059    125531.39   -36990.437    3690.7315   -40681.168    187.99497   0.99348862 
   15600    298.04058     94.45802    125452.07   -36946.172    3702.8611   -40649.033    189.22898   0.99411677 
   15700    302.76346    47.379254    125601.66   -36885.067    3761.5382   -40646.606    190.39921   0.99293275 
   15800    300.64681   -78.327175    125553.91   -36851.496    3735.2409   -40586.737    191.96407    0.9933104 
   15900     300.6729   -137.73404    125443.13   -36850.685     3735.565    -40586.25    193.19711    0.9941876 
   16000    307.42702    253.98085    124959.37   -36882.086    3819.4783   -40701.565     194.0971   0.99803642 
   16100    292.97874    10.177373    125245.19   -36938.295    3639.9726   -40578.267    195.76171   0.99575883 
   16200    298.46588   -127.80531    125431.59   -36966.449    3708.1449   -40674.594    197.35345   0.99427905 
   16300    297.93433   -80.104042    125066.51    -36969.54    3701.5409   -40671.081    198.63342   0.99718145 
   16400     293.8099   -193.37464    125175.28   -36968.684     3650.299   -40618.983    200.41599   0.99631496 
   16500     296.6978    293.64111    125226.38   -36959.832    3686.1782    -40646.01    201.46335   0.99590838 
   16600     301.4829    452.70436    124515.77   -36942.565    3745.6285   -40688.194    202.21211     1.001592 
   16700    296.21477   -273.07003    124915.39    -36930.49    3680.1771   -40610.667    204.23641   0.99838786 
   16800    302.28793     -159.251    124748.65   -36910.507    3755.6302   -40666.137    204.71536   0.99972224 
   16900    299.09831    31.678423     124685.4   -36874.937    3716.0023   -40590.939    206.06704    1.0002294 
   17000    299.79959   -78.236696    124939.03   -36832.979    3724.7149   -40557.694    207.93576   0.99819893 
   17100    300.86371    315.76384    124878.19   -36792.598    3737.9356   -40530.534    209.22249    0.9986852 
   17200    299.20233   -182.98978    125503.38   -36764.937    3717.2947   -40482.232    211.64483   0.99371035 
   17300    298.55112    339.51744    124975.38    -36747.49    3709.2039   -40456.693    212.49355   0.99790854 
   17400    303.12252   -197.37998    125168.74   -36744.397    3765.9992   -40510.396    214.13609   0.99636705 
   17500     303.8511   -224.32215    125301.83   -36783.026     3775.051   -40558.077    215.27353   0.99530872 
   17600    296.64141    70.338464     124803.1   -36860.066    3685.4777   -40545.544    215.38631   0.99928614 
   17700    293.37241   -217.20666    125012.48   -36908.958    3644.8636   -40553.822    216.94807   0.99761242 
   17800    296.31132   -135.23763    124885.45   -36930.674    3681.3767    -40612.05    217.85274   0.99862713 
   17900     295.2001   -237.99555    125349.43   -36945.943    3667.5708   -40613.513    220.08169   0.99493079 
   18000    302.47344    142.71006     124986.5   -36960.275    3757.9349    -40718.21    220.69775   0.99781979 
   18100    301.14677    202.27366    125357.76   -36979.864    3741.4523   -40721.316      222.228   0.99486461 
   18200    300.32761    121.31887    125182.71   -37010.793    3731.2751   -40742.068    223.64547   0.99625585 
   18300    300.67998     316.6971    125096.63   -37053.549    3735.6529   -40789.202    225.01366   0.99694134 
   18400    288.48664     -219.062    125619.74   -37101.257    3584.1628    -40685.42    226.61446   0.99278984 
   18500    292.25508    73.429529    125031.81   -37126.098    3630.9819    -40757.08    227.19611   0.99745818 
   18600    294.11883      51.7634     125270.8    -37113.51    3654.1372   -40767.648    229.13019   0.99555527 
   18700    289.71828   -367.62705    125714.71   -37043.494    3599.4646   -40642.959    230.90546   0.99203987 
   18800    301.75428    251.03254    124711.96   -36962.841    3749.0001   -40711.842    230.25964    1.0000164 
   18900    302.85849    310.19345    124557.49    -36941.87    3762.7188   -40704.589    231.05817    1.0012565 
   19000    299.74739    233.13591    125019.21   -36951.011    3724.0664   -40675.077    233.15451    0.9975587 
   19100    295.10951   -465.38599       125176   -36964.132    3666.4454   -40630.577     234.3393   0.99630919 
   19200    295.80381    98.216793    124997.15   -36959.717    3675.0714   -40634.789    235.30427   0.99773475 
   19300    301.90029    207.33862    124726.73   -36936.245    3750.8141   -40687.059    236.29788   0.99989798 
   19400    301.28909   -243.13735    125173.05   -36904.138    3743.2205   -40647.359    237.91232   0.99633269 
   19500     296.5883   -344.40829    125292.76   -36881.263    3684.8179   -40566.081    239.90912   0.99538078 
   19600    298.42459     161.4903    124676.04   -36865.176     3707.632   -40572.808    240.56916    1.0003045 
   19700    300.68358    253.66107    124624.03    -36832.96    3735.6977   -40568.658    241.99362    1.0007219 
   19800    305.82029    496.32176    124488.33   -36794.414    3799.5163   -40593.931    242.82016    1.0018128 
   19900    303.22456    131.31717    124958.12   -36769.306    3767.2669   -40536.573    245.21533   0.99804639 
   20000    302.85822    253.40545    124719.29   -36769.443    3762.7154   -40532.158    246.06908   0.99995759 
   20100    298.49391   -332.23861    125254.94    -36815.93    3708.4932   -40524.423    248.29722   0.99568133 
   20200    299.76246    160.23771    124740.43   -36892.861    3724.2537   -40617.114    249.08952   0.99978815 
   20300    302.45956   -142.52891    124956.16   -36945.165    3757.7625   -40702.927     250.9033   0.99806208 
   20400    290.35552   -241.25081    125052.62   -36976.975    3607.3817   -40584.357    252.55652   0.99729222 
   20500    295.67752   -398.96438    125003.46   -36988.968    3673.5024    -40662.47    254.12658   0.99768442 
   20600    292.46959     121.3961    124824.13   -36973.841    3633.6469   -40607.488      254.614   0.99911771 
   20634    296.12422   -378.35506    124969.21   -36963.439    3679.0521   -40642.491    255.18116   0.99795785 
Loop time of 41.3714 on 4 procs for 20000 steps with 4169 atoms

Performance: 208.840 ns/day, 0.115 hours/ns, 483.426 timesteps/s
99.9% CPU use with 4 MPI tasks x no OpenMP threads

MPI task timing breakdown:
Section |  min time  |  avg time  |  max time  |%varavg| %total
---------------------------------------------------------------
Pair    | 35.523     | 35.764     | 36.336     |   5.6 | 86.45
Neigh   | 2.6418     | 2.6513     | 2.6648     |   0.6 |  6.41
Comm    | 1.319      | 1.9013     | 2.1494     |  24.5 |  4.60
Output  | 0.058691   | 0.059121   | 0.060392   |   0.3 |  0.14
Modify  | 0.83442    | 0.83874    | 0.84315    |   0.3 |  2.03
Other   |            | 0.1569     |            |       |  0.38

Nlocal:        1042.25 ave        1047 max        1036 min
Histogram: 1 0 0 0 1 0 0 0 1 1
Nghost:        1792.00 ave        1799 max        1784 min
Histogram: 1 1 0 0 0 0 0 0 0 2
Neighs:        0.00000 ave           0 max           0 min
Histogram: 4 0 0 0 0 0 0 0 0 0
FullNghs:      30152.5 ave       30319 max       29862 min
Histogram: 1 0 0 0 0 0 1 0 0 2

Total # of neighbors = 120610
Ave neighs/atom = 28.930199
Neighbor list builds = 1409
Dangerous builds = 0

undump              1
unfix               2



################################################
#######         Run Simulation         #########
################################################

reset_timestep      0
log                 log.run_${NAME}
log                 log.run_liquid_298K_1atm_ML2
