LAMMPS data file via write_data, version 29 Oct 2020, timestep = 200000

4608 atoms
1 atom types

0.4587348681823613 56.81177513181696 xlo xhi
0.4077643272738136 50.499355672727305 ylo yhi
0.4077643272738136 50.499355672727305 zlo zhi

Masses

1 18.015

Atoms # atomic

5 1 2.052451189896235 1.828023372791608 1.8791136105197643 0 0 0
3 1 3.662147562000849 0.4305630545571546 3.7768356832896353 0 0 0
185 1 13.173507685745712 44.18053576143609 0.5682985710052816 0 0 0
10 1 6.664938649482799 3.4607559847051985 3.741473076558721 0 0 0
13 1 8.310791017833367 1.832687572093728 2.0402028455638277 0 0 0
21 1 14.343160861992368 1.8307011360872878 2.336074006559193 0 0 0
18 1 12.81154010358781 3.690444014747798 4.031986590370075 0 0 0
19 1 16.256216679400488 0.7647397653304805 3.8166008455876823 0 0 0
601 1 0.6942596372125948 6.51495039556218 19.064611144147868 0 0 0
578 1 0.7464813976065007 3.4393553896887408 22.46854496484002 0 0 0
27 1 3.8888190762266657 6.850198409728344 3.8315069521443847 0 0 0
8 1 5.26783997363058 5.046958498245681 2.0544370419396554 0 0 0
649 1 0.9911334339217656 19.294802647064635 19.259356780342372 0 0 0
290 1 0.6754686125774706 28.911970332197537 9.68215625785828 0 0 0
16 1 11.514668821512691 5.3541520669983 2.1400456458008303 0 0 0
24 1 17.40648664841449 5.315684603336631 1.963533903554145 0 0 0
43 1 16.03370800417342 6.706819321834731 3.4225547486327814 0 0 0
29 1 2.2318027785593806 8.260906113195556 2.217359489206485 0 0 0
217 1 0.6241958861180434 6.5565283314585585 6.715523036473045 0 0 0
34 1 7.0467035268514655 9.546543009001477 3.6327468236751987 0 0 0
37 1 8.358751509698479 8.24267314616388 1.7631487387415263 0 0 0
45 1 14.697507397398052 8.225934558355549 1.9400165735330694 0 0 0
42 1 13.41948028282266 9.9294371110533 3.3650281070659807 0 0 0
51 1 3.728209303336015 13.074986340884607 3.3897901249474955 0 0 0
481 1 1.1678972496712114 25.464010341196694 12.920982256708106 0 0 0
32 1 5.246498170599707 11.272889851265711 2.2566619287105008 0 0 0
193 1 0.4679699678733375 0.6012345565588849 6.824269120478944 0 0 0
59 1 10.043999090439327 13.07538050952617 3.1819390641000402 0 0 0
40 1 11.518515634956248 11.386623061002382 1.7822231126286472 0 0 0
48 1 17.747136084903072 11.242502802627248 1.7547807595669942 0 0 0
67 1 16.18731155455046 12.996544254900332 3.0364020409235346 0 0 0
595 1 16.48307607180373 0.883701883867434 22.26118771807595 0 0 0
53 1 2.043076760277885 14.535958734370045 1.9342064581949516 0 0 0
177 1 6.768742388497161 44.50820907174989 0.6470453782902272 0 0 0
172 1 3.2712311258609614 47.27844706127998 0.6223652777077893 0 0 0
58 1 6.927599476019858 16.066328425355174 3.684688955500062 0 0 0
61 1 8.494359169883552 14.51228138860465 1.9028074334802294 0 0 0
69 1 14.541834733424432 14.236447490239483 1.645384966291903 0 0 0
66 1 12.934896488941707 16.05913061276289 3.108795801558797 0 0 0
241 1 0.7571425692675515 12.729585721049618 6.3323036183643495 0 0 0
75 1 3.3626467310232444 19.28434965091141 3.63080519897939 0 0 0
56 1 5.318459580954992 18.036853509934147 2.092000944125483 0 0 0
83 1 9.989611947541784 19.232535862814174 3.6409682943840145 0 0 0
64 1 11.488796758218074 17.668328599457727 1.681608506981434 0 0 0
194 1 0.5400449471384334 3.550250747122602 9.731818152642209 0 0 0
577 1 0.5366709584796409 0.8500403550364555 19.172959824742293 0 0 0
91 1 16.04050999241118 19.0497743313687 3.7048918076230355 0 0 0
72 1 17.678319383865855 17.672515636000885 2.040996307377066 0 0 0
77 1 2.196508671417341 20.794287211409554 1.7064103763225777 0 0 0
82 1 6.808225327973156 22.594510783590923 3.394434218979693 0 0 0
85 1 8.310577069742482 20.864416062318433 2.045240179651832 0 0 0
88 1 11.46145483509371 23.494761530283153 2.225846204663656 0 0 0
93 1 14.824694957223592 20.714995809274726 2.035223920092307 0 0 0
90 1 12.845736429580265 22.178457381389002 3.6934505740760777 0 0 0
673 1 0.6288414211719775 25.582001322083126 19.1010616900032 0 0 0
99 1 3.098489052644963 25.531202546909952 3.1630131954940897 0 0 0
101 1 1.989225626406068 27.389289567933243 1.5180715492580499 0 0 0
80 1 4.700192816195933 23.894517288439225 2.0837311276969412 0 0 0
289 1 0.4886032328854242 25.395480794251885 6.499185854492272 0 0 0
107 1 10.011591162595401 25.49355636102181 3.3067748106484465 0 0 0
84 1 9.666235079315367 22.389434145735354 0.5668192299176941 0 0 0
96 1 17.64222630052687 24.10886297202625 1.70178151545506 0 0 0
115 1 16.10113857175763 25.442343039152096 3.1512700117387746 0 0 0
457 1 0.8294785515606065 19.27006678748876 12.8156646800729 0 0 0
892 1 3.5757843865112013 34.79299482714862 25.209671141485185 0 0 0
104 1 5.039784533875475 30.14674470421413 1.8633499658755237 0 0 0
109 1 8.425643712693649 26.939496618307437 1.9134580016025207 0 0 0
112 1 11.634644179214874 30.296099271839026 1.6640515659033823 0 0 0
117 1 14.333378023534415 26.933373120081608 1.7657004257800366 0 0 0
114 1 12.761196201211057 28.883823429723016 3.5282207975358113 0 0 0
120 1 17.711862890303834 30.07788967776716 1.5754782729003913 0 0 0
123 1 3.8075879594181474 31.48934329635172 3.7375292269924407 0 0 0
125 1 2.1337256564071874 33.10889023758628 2.3393245035695838 0 0 0
122 1 0.47995066299055134 34.80626878694457 3.7127426824004566 0 0 0
133 1 8.237678107841642 33.114536412530015 1.975781942863739 0 0 0
131 1 10.15656606010976 31.694516188500955 3.298108839878319 0 0 0
141 1 14.791178047733 33.311156973747 1.5786049915107754 0 0 0
74 1 0.5677072100666984 22.550620457191137 3.031391801257588 0 0 0
139 1 16.371446593480556 31.332485208079024 3.318171365385105 0 0 0
2 1 0.5427252060749523 3.716550262207062 3.393587304406795 0 0 0
128 1 5.258189009341419 36.4577552701179 2.062332818564187 0 0 0
130 1 6.843181932789811 34.730866811184 3.406192056337269 0 0 0
136 1 11.247393769233955 36.16629873528403 2.241682035512059 0 0 0
138 1 13.25947469832624 34.916514923403724 3.090987241855004 0 0 0
144 1 17.88185275640602 36.719439042501406 1.7350378614213593 0 0 0
153 1 6.95522151242727 37.92694336485165 0.6619843066595574 0 0 0
149 1 2.2618486226421135 39.36869696023898 1.7209202429740402 0 0 0
147 1 3.7305732101903684 38.25502232627932 3.7049294562884914 0 0 0
157 1 8.381651418501654 39.625568677985626 2.1945483558900576 0 0 0
155 1 9.77902438034921 37.85070392827748 3.626660348459975 0 0 0
165 1 14.939603367598076 39.55508571782005 1.9047401849611114 0 0 0
163 1 16.089036382181124 38.104206647577286 3.5302039145920627 0 0 0
171 1 3.7869954080793784 44.48801032580134 3.471083551632717 0 0 0
921 1 6.782290751830354 38.02417258185285 25.439077294212584 0 0 0
152 1 5.156834491061403 42.84200978706639 1.8878408465896408 0 0 0
154 1 6.705542936150448 41.17917876955903 3.446884537332447 0 0 0
160 1 11.361105822251996 42.85322271850579 2.2183966249149765 0 0 0
179 1 9.84322703383001 44.17897237651917 3.7851940104751374 0 0 0
162 1 13.045551436483137 41.236309968546806 3.5045305400295543 0 0 0
168 1 18.077137581554705 43.097847591217075 1.894562787409807 0 0 0
173 1 1.9262621767411712 45.75852478672796 2.406595532489759 0 0 0
178 1 6.765322166571042 47.65825181280462 3.370217241568621 0 0 0
181 1 8.344593777468994 45.852775992570315 2.337521528344123 0 0 0
189 1 14.543035859204803 46.07352464897568 1.820882540591853 0 0 0
186 1 13.152911499862949 47.27101978097507 3.626310244188459 0 0 0
410 1 0.6597238048685814 9.650770697111023 15.913147410715025 0 0 0
187 1 16.103154467470798 44.23658450787069 3.6771383919941583 0 0 0
674 1 0.5291053901825445 28.943397797411293 22.182663345919124 0 0 0
176 1 5.081434047519536 48.99633486404795 1.8635495710682415 0 0 0
2377 1 19.00301161238354 19.235793443898235 25.409300687596982 0 0 0
11 1 9.906244342964017 50.26743930545716 3.5278947286722993 0 -1 0
184 1 11.293543337846973 48.64147751300716 2.089450304107955 0 0 0
409 1 0.7813678688652994 6.479784847890748 13.264244575310952 0 0 0
192 1 17.75018434469765 49.31736663093446 2.13458460147156 0 0 0
156 1 9.880568513125048 41.39130949611169 0.4975382562044434 0 0 0
804 1 9.788258390548112 9.852719180438365 25.06922553356426 0 0 0
196 1 3.41595554439257 3.713722145414484 6.7387344650118575 0 0 0
7 1 4.9263079632170825 2.0216549996387334 5.26351592710655 0 0 0
204 1 10.095212564579175 3.601947198135665 6.845758392395642 0 0 0
15 1 11.512349277895169 1.7420184294430343 5.226222844703673 0 0 0
23 1 18.032020855694235 2.067034208141545 5.059191499338913 0 0 0
809 1 13.093790063565121 6.7920583002270885 25.086610520829726 0 0 0
841 1 0.6540178678204674 19.071539429614024 25.293381598807837 0 0 0
6 1 2.2229237214007886 5.2529634114718 4.956909881616997 0 0 0
225 1 6.7482059533701015 6.563681554705093 6.96458014341682 0 0 0
14 1 8.18197668304989 5.204014187072362 5.444898301875272 0 0 0
22 1 14.580844982329081 5.196479718749187 5.262698335174126 0 0 0
233 1 13.04554579835944 6.533487988902477 6.598018653125387 0 0 0
212 1 15.960340502115553 3.525132380149197 6.679111835654986 0 0 0
220 1 3.6581908906028833 9.509231821379005 6.863303233685233 0 0 0
31 1 5.521904331545265 8.410727109233664 5.568044871337051 0 0 0
35 1 10.018220205924228 6.957774480521703 3.7893338453322007 0 0 0
228 1 10.051118371756534 9.738404308450928 6.545200336329358 0 0 0
39 1 11.741829426437258 8.377095562192888 5.181823919096478 0 0 0
47 1 17.772876482916736 8.229761862612579 5.016876937544815 0 0 0
236 1 16.215116105550983 9.79164235558477 6.389975792743399 0 0 0
30 1 2.3807862504451403 11.278555490508282 5.0139784217160495 0 0 0
249 1 7.020181974681191 12.51414347382998 6.638638805365463 0 0 0
38 1 8.480888211792827 11.354167460446426 4.663608244085067 0 0 0
46 1 14.668321719527972 11.411501580979863 4.9757800085903225 0 0 0
257 1 12.924700727276537 13.370487033964148 6.394733250470354 0 0 0
766 1 14.689007478427548 49.02253990876274 23.835950894119204 0 0 0
244 1 3.8681735632476184 15.942081537840128 6.579202587990611 0 0 0
55 1 5.384350192098156 14.195863808862114 5.372131536828492 0 0 0
252 1 9.719843711154672 15.842150758465037 6.709214827617819 0 0 0
63 1 11.332855861111414 14.541574221619074 4.698839097443656 0 0 0
71 1 17.798706214683335 14.514980291251085 4.827734350986791 0 0 0
260 1 16.17450336240494 15.919648092422 6.352728909686278 0 0 0
54 1 2.055044576091284 17.575276457374883 5.085130666416779 0 0 0
273 1 6.896030610166641 19.379255850783466 6.440295001050169 0 0 0
62 1 8.471951335098693 17.84720391359815 5.011519387173795 0 0 0
70 1 14.44605419235732 17.43024994465009 5.084537639164986 0 0 0
281 1 13.105581264696864 19.062494563982373 7.013975787687166 0 0 0
268 1 3.7448550260096725 22.205510079730217 6.41213166089107 0 0 0
78 1 1.9981151174142446 23.79425822516459 5.179606915387378 0 0 0
79 1 5.107555161140392 20.6530248122958 4.910284394149918 0 0 0
87 1 11.424184641612637 21.09725257649297 5.693903089533682 0 0 0
276 1 9.83346646151834 22.668622598122464 7.301913936758145 0 0 0
86 1 8.22291106331744 24.366177474625083 5.151831734719138 0 0 0
94 1 14.654098473782316 23.912928190792538 4.7505744049381065 0 0 0
95 1 17.809905807786173 20.87987981759551 5.078779095448253 0 0 0
284 1 16.005295026945596 22.1550305456615 6.463341632149188 0 0 0
762 1 12.857954436931392 47.28929027656294 22.635844058747658 0 0 0
297 1 6.3426742710296145 25.987663771306398 6.389735551329161 0 0 0
103 1 4.714562868881468 27.160658628141267 4.584611146924036 0 0 0
111 1 11.5496304444929 26.866207113203938 4.888587346904501 0 0 0
305 1 12.95754015002887 25.464362421650026 6.4869077069469965 0 0 0
119 1 17.943316794828714 26.72809091760854 4.531510963601155 0 0 0
292 1 3.4224185042988613 28.813191879765263 6.8733806504918 0 0 0
102 1 1.9667531874882107 30.003235860055433 5.14461065980057 0 0 0
106 1 6.956962690702188 28.605728849761242 3.479423999975519 0 0 0
300 1 9.864508077268034 28.566464027314773 6.481337830683509 0 0 0
110 1 8.395367520515798 30.24986168038173 4.996126461883109 0 0 0
118 1 14.75659316367792 30.011061266335858 4.872009397099668 0 0 0
308 1 16.70596994740835 27.842993049854424 6.9361988537464985 0 0 0
313 1 0.5575438253783437 31.670279395696607 6.9930780871204385 0 0 0
321 1 6.578455535694115 31.50432947755443 6.67953514052767 0 0 0
127 1 5.1479225145504115 33.346903860798975 5.135718140949627 0 0 0
135 1 11.875491550145208 33.19191320148286 4.947256656931796 0 0 0
329 1 13.26776801085029 31.616132661271962 6.574684371996264 0 0 0
143 1 17.799833550868623 32.84674154224912 4.905037587400296 0 0 0
697 1 0.5790866189441902 32.196006780716026 19.21686388303688 0 0 0
126 1 2.0708257108706913 36.53857049187938 5.180693077198105 0 0 0
316 1 3.5447719499165276 34.87717288621403 6.730495301170258 0 0 0
134 1 8.729810568022 36.169099112166904 5.130787657234993 0 0 0
324 1 9.951575866127381 34.52131632988964 6.7778364269996905 0 0 0
142 1 14.64739073219437 36.35571291598333 4.718407377943051 0 0 0
332 1 16.31766095030465 34.58689615274784 6.353646330512407 0 0 0
758 1 8.229821108967261 48.90811423747857 23.874997032561033 0 0 0
151 1 5.599979801070406 39.79091132498634 5.015197637559256 0 0 0
345 1 7.171838265724497 38.0375312257127 6.426747411666875 0 0 0
159 1 11.428419145412892 39.55134751541469 4.959836664671189 0 0 0
353 1 13.027459824657104 38.11004374463626 6.287139305551105 0 0 0
167 1 17.964693728197908 39.583908181227144 4.6598196949987685 0 0 0
340 1 3.569239831871518 41.38857638838117 6.23643616000997 0 0 0
150 1 1.8237351419095313 42.725675660186425 4.499634298487902 0 0 0
158 1 8.139374309644003 42.59412530829425 5.355666723001313 0 0 0
348 1 9.748786250678778 40.9162577602892 6.771486648092869 0 0 0
166 1 14.398557512638542 42.40706312005753 5.3888619435476945 0 0 0
356 1 16.290861669436367 40.93049628914193 6.545724008481812 0 0 0
105 1 6.463455213964125 25.399705290763546 0.459959926671865 0 0 0
369 1 6.714806130981764 44.42412730218834 6.5622372359052 0 0 0
175 1 5.097813537510072 46.085352610984955 4.933209702456155 0 0 0
183 1 11.899513955322185 45.90109623380748 5.228344074056543 0 0 0
377 1 12.759042613387097 44.20544901364576 6.872732595976424 0 0 0
191 1 17.74726491492521 45.63432239580047 5.342067454025204 0 0 0
380 1 15.97110201938478 47.08415422483891 6.899790240760933 0 0 0
386 1 0.9750626169901389 3.4759874110258613 16.62286657407894 0 0 0
434 1 0.6494321748392669 15.928498718290307 15.853029067371697 0 0 0
364 1 3.6158236847267897 47.48001769474281 7.22998886207639 0 0 0
174 1 2.144330818707585 48.77712945456001 5.42807547235113 0 0 0
201 1 6.538634079604985 0.4211125800083227 6.938863872065971 0 0 0
372 1 9.837772770260257 47.54424159376575 7.170854840285523 0 0 0
182 1 8.408315282959382 48.905208026926246 5.173045355841223 0 0 0
209 1 12.996845035277117 50.36092615526067 7.108219667977998 0 -1 0
190 1 14.616566437515235 48.98083487524528 5.323075139810391 0 0 0
916 1 3.6390618880517946 41.308922524891514 25.237679883855755 0 0 0
197 1 1.875274431304432 1.8534941584000024 8.199410319446944 0 0 0
202 1 6.416744191920957 3.424780066561557 10.287572198917735 0 0 0
205 1 8.260282243681715 2.1522375519650607 8.310279250917556 0 0 0
213 1 14.725063992923424 1.9017671264026252 8.513629666570797 0 0 0
210 1 12.949888326759245 3.4649779978291417 9.989198961350377 0 0 0
211 1 15.953251091002535 0.6801899396810461 10.041613853880538 0 0 0
219 1 3.689091011885334 6.8080652136654916 10.223659399492506 0 0 0
200 1 5.172131429658711 4.939486919076976 8.40010519577892 0 0 0
227 1 9.901141383706598 6.917435023064558 9.9333454738541 0 0 0
208 1 11.354027111740985 5.084433061281926 8.414349475445324 0 0 0
216 1 17.72637195138658 5.237192330758063 8.263476908823378 0 0 0
235 1 16.15132459421115 6.790027201801427 9.786660127327039 0 0 0
221 1 2.0111844926326006 8.15416764998091 8.456395037460743 0 0 0
226 1 7.096656891673068 9.249106159126299 10.086872836746403 0 0 0
229 1 8.375136057890145 8.118502778039968 8.13439003414625 0 0 0
237 1 14.598655797895889 8.346261897919515 7.865123213894003 0 0 0
234 1 13.07257712107338 9.947020487547269 9.485385515518136 0 0 0
57 1 6.548916458027025 12.845669187794403 0.695769938337091 0 0 0
243 1 3.6203469173725953 12.828686556910323 9.826330068845255 0 0 0
224 1 5.364468377157841 11.10984910193567 8.407816479668233 0 0 0
251 1 10.038059638368715 12.818139113501374 9.870761272616136 0 0 0
232 1 11.113959072323976 11.523341219275046 8.188089548402257 0 0 0
240 1 17.487167060363557 11.622544418481391 7.9852000726705095 0 0 0
259 1 16.054925461428727 12.894339448404763 9.925183988949515 0 0 0
245 1 1.8360705461655291 14.391691265498253 8.244004516046697 0 0 0
828 1 9.788614892426867 16.299869539276468 25.3198706440851 0 0 0
250 1 6.819087529891503 16.0600395240674 9.546544521083957 0 0 0
253 1 8.315424888027248 14.042393353304677 8.398613755745904 0 0 0
261 1 14.81727393578537 14.426525934063545 8.217259487545183 0 0 0
258 1 13.138599082780134 15.930975141335981 9.739703784188372 0 0 0
146 1 0.5453112787182023 41.10499288252417 3.33927942022651 0 0 0
267 1 3.7209891494538314 19.303454909610927 9.725626778554108 0 0 0
269 1 2.1240814872594314 20.87545926670619 8.04839160642738 0 0 0
248 1 5.163951469250588 17.70108896211269 8.168609772060021 0 0 0
275 1 9.856632004444748 19.248736955351454 9.912487430196629 0 0 0
256 1 11.381579935012805 17.381571900052627 8.269695892392274 0 0 0
254 1 8.534378616478689 17.536811821656247 11.13837433228346 0 0 0
283 1 16.338855333570812 19.230723375734268 9.879167268813987 0 0 0
264 1 17.87222951336365 17.214872861212136 7.933988152043523 0 0 0
754 1 6.621054869557503 47.228192676984335 22.565546337410144 0 0 0
274 1 6.589217550068216 22.6012359411185 9.773956581505042 0 0 0
277 1 8.293651500303096 20.563731764444135 8.45168711962444 0 0 0
285 1 14.574941055157977 20.71479696307264 8.311420239986212 0 0 0
282 1 13.400098411733879 22.71622255080251 9.655331971539065 0 0 0
288 1 17.81827435118718 23.886756167694923 7.824244465519699 0 0 0
291 1 3.656027843147863 25.25860113713563 9.686146366479747 0 0 0
293 1 1.8226796367610756 26.758226347898013 8.26465059161265 0 0 0
272 1 5.111565079182539 23.88345577991123 7.9125295792134915 0 0 0
299 1 9.461533484916588 25.3232469734761 9.448453705129664 0 0 0
301 1 8.083561928285363 27.012313522405197 8.095539434286428 0 0 0
280 1 11.42827678267935 24.071262144369243 8.366394261439936 0 0 0
309 1 14.9014673077328 26.460005775947078 8.335542373618186 0 0 0
307 1 16.534176852044464 25.172794245493822 9.814387421921454 0 0 0
298 1 6.774064096757316 28.66722093010141 9.888581246276589 0 0 0
296 1 5.188342186148061 30.27000954335381 8.406979454055705 0 0 0
304 1 11.840438536019228 29.769489233908967 8.12511973634158 0 0 0
306 1 13.421837128274213 28.305100332307372 9.699670307493992 0 0 0
312 1 17.62808091809108 30.166799500153296 8.071627853192766 0 0 0
529 1 0.4877811375846832 38.20221222363445 12.626527936538086 0 0 0
317 1 2.0505935995581908 33.5991897279395 8.353087746661972 0 0 0
315 1 3.8466540964389817 31.842383218217016 9.867462109376527 0 0 0
319 1 5.43590036427356 33.48740119111261 11.316806622182503 0 0 0
325 1 8.600679226968023 32.78267821740441 8.637687438062478 0 0 0
323 1 10.257256494519432 31.148920506299127 10.029103595566662 0 0 0
333 1 14.795035287317575 33.33255042624816 8.00966949132927 0 0 0
331 1 16.16875472006988 31.909554018723 9.531810843258022 0 0 0
1898 1 19.157270062842574 47.326361742707476 9.677834109239724 0 0 0
320 1 5.458708438303494 36.57621220385349 7.990473496987239 0 0 0
322 1 7.026289972550944 34.894768376804066 9.533726461486834 0 0 0
328 1 11.443809048751607 36.18641260195058 7.725682144644322 0 0 0
326 1 8.502376790241835 36.47586819309872 11.578788906722792 0 0 0
330 1 13.128195012196693 34.97507192184047 9.85083265891344 0 0 0
334 1 14.844995382496405 36.06183330030777 11.639747242534021 0 0 0
336 1 17.657683996370515 36.21377555008861 8.097654730895352 0 0 0
341 1 1.8997212090290148 39.77666899920851 7.947767640636698 0 0 0
339 1 3.6934961938379836 38.36232771542717 9.737786294209508 0 0 0
343 1 5.234718661827917 39.81022763602121 11.128321046204217 0 0 0
349 1 8.440211751067054 39.39937696004961 8.433514489748221 0 0 0
347 1 10.070128894833307 37.76327950022983 9.740432060054838 0 0 0
357 1 14.574956496134542 39.38698979991156 8.05895324719068 0 0 0
355 1 16.08728210955674 37.54474372095197 9.802679171161014 0 0 0
719 1 17.86989773076165 33.28102510470809 23.846763671212248 0 0 0
344 1 4.978080908364296 42.83453603412177 7.971490757378245 0 0 0
346 1 7.16703388895628 40.95758163553835 9.680389147461408 0 0 0
352 1 11.072247166996242 42.60075087198619 8.257773744840591 0 0 0
371 1 9.623144820605546 44.40490608501459 10.04205927896013 0 0 0
354 1 12.729274803754354 40.96393182981963 9.757027053009582 0 0 0
360 1 17.665355579000828 42.7179662528207 8.254187843588113 0 0 0
905 1 13.092598809923107 31.697416187216778 25.203324517595625 0 0 0
363 1 3.798999373050051 44.29616296504156 9.676939664270925 0 0 0
365 1 1.654851978965498 45.68878119150132 8.299073619309421 0 0 0
373 1 8.171402239062138 45.987665254975724 8.516753890380794 0 0 0
381 1 14.539995066653338 45.530586411150296 8.655982809054787 0 0 0
378 1 12.780793421371728 47.475379193085274 9.982216292580446 0 0 0
379 1 16.41462235585489 44.139237784035586 10.008961980999223 0 0 0
195 1 3.2990999203930413 50.38776569687042 10.129270324496343 0 -1 0
366 1 1.8600368401728684 49.23432706262406 11.503293412247197 0 0 0
370 1 6.786804803475659 47.39807275114566 10.245249090104453 0 0 0
368 1 5.117533456817542 49.08500878352437 8.918837346276023 0 0 0
203 1 9.579929968475387 0.5372290123755222 10.149503973972541 0 0 0
376 1 11.157058882852267 49.22777923106585 8.783332809735114 0 0 0
384 1 17.304967530446834 49.22498265089865 8.164271960180908 0 0 0
1970 1 19.19031759040511 16.012500829889884 15.520024912828427 0 0 0
389 1 2.0704633588872756 2.0411975049397926 14.794938626263528 0 0 0
388 1 3.3841538484603157 3.1492995153453935 13.241860305665723 0 0 0
199 1 4.954504426293203 1.856898846141376 11.78570885232511 0 0 0
207 1 11.358863112629782 2.062759095420005 11.605620244965682 0 0 0
396 1 9.781009122098384 3.676307301327452 13.332560810638066 0 0 0
405 1 14.623785518422002 1.994218664472413 14.578347696050047 0 0 0
215 1 17.977138960809594 2.133823978234295 11.54485599088143 0 0 0
198 1 2.008923466374564 5.028589338857041 11.238639629448908 0 0 0
417 1 7.074509015438205 6.685861027918627 13.22760363356154 0 0 0
392 1 5.318374764681039 4.782131106117733 14.589330112982424 0 0 0
206 1 8.290318640315382 5.039775239760213 11.35179228048851 0 0 0
400 1 11.679157092003699 5.163135562311028 14.620532847538213 0 0 0
214 1 14.416426607982306 5.253031454606473 11.099742458294093 0 0 0
425 1 13.36513843998512 6.811124214582039 13.052002613166424 0 0 0
404 1 16.074022652718288 4.1006512711876875 13.024279025018378 0 0 0
408 1 17.731634834551198 5.507676673588157 14.410853447734919 0 0 0
412 1 3.9669504443638406 9.945510009348313 12.921801383901784 0 0 0
223 1 5.384413399089631 8.050745679086955 11.895006886447662 0 0 0
420 1 10.44421061729786 9.952972571498377 12.834511539859268 0 0 0
421 1 8.583663684762183 8.2588742730032 14.470489219452519 0 0 0
231 1 12.04229501884947 8.252687703639294 11.35725642908783 0 0 0
429 1 14.54951805332408 8.587559049543882 14.700230500056326 0 0 0
239 1 17.88261016401911 8.471521240582852 10.759661587535565 0 0 0
428 1 16.16596847725988 9.97607761113258 12.536820047202806 0 0 0
711 1 11.356360063104406 33.559033704056475 23.661667360042003 0 0 0
222 1 2.1384686666381034 11.46683607345898 11.473657018872581 0 0 0
441 1 6.771345636671868 12.897208481536493 12.480301269887438 0 0 0
416 1 5.611515013349119 11.714648766110882 14.703445563035071 0 0 0
230 1 8.535231960455729 11.196747404651415 11.371451568249825 0 0 0
424 1 11.65516669614179 11.497797641708916 14.497965465644874 0 0 0
238 1 14.403179838558767 11.352342410638048 11.078832263047545 0 0 0
449 1 13.18382885887637 12.999126672508643 12.893181616077136 0 0 0
432 1 17.704307343348642 11.670608577228812 14.155543411195563 0 0 0
436 1 3.4145738704526547 15.625726022631149 12.660718446653469 0 0 0
437 1 1.788568992692631 14.097789286441241 14.451378672790899 0 0 0
247 1 5.350498390197882 14.433374681144095 11.216519652314252 0 0 0
444 1 9.94630435141625 16.186203928272718 13.148159118049177 0 0 0
445 1 8.357474558168171 14.142418391674163 13.976031114588075 0 0 0
255 1 11.44817851341701 14.385406758458522 11.417197193632873 0 0 0
453 1 14.47132745383713 14.896412337907847 14.660766652861579 0 0 0
263 1 17.436586024499267 14.809135430839191 11.404476193328286 0 0 0
452 1 15.769075443976242 16.40191899327632 12.9091818871091 0 0 0
750 1 1.9003258793610827 48.85245782847278 23.990798577369883 0 0 0
246 1 2.1449739818430564 17.426013516358786 11.19822712783068 0 0 0
465 1 6.934291331815453 18.875270095023794 13.148298210244695 0 0 0
440 1 5.1554843878789045 17.107384152057886 14.323717839753023 0 0 0
271 1 5.298973559714133 20.491273713973683 11.421794844243985 0 0 0
448 1 11.336412740225862 17.72230155166662 14.469403282494724 0 0 0
262 1 14.699587154992804 17.801104404506944 11.12259732529793 0 0 0
473 1 13.030730933092709 19.200620649602918 12.957332905269537 0 0 0
456 1 17.70362113782856 17.91220855211177 14.400925900344125 0 0 0
1994 1 19.173328676481717 22.350419045920134 15.582434325217122 0 0 0
460 1 3.9046077623529665 22.286795238801336 12.886144546310772 0 0 0
461 1 2.5792443535614233 20.319712315592728 14.617053317305682 0 0 0
270 1 2.3019344120140834 23.815993128183305 11.172797380049479 0 0 0
279 1 11.57696657761781 20.943637831985036 11.036588179976537 0 0 0
468 1 9.655034039355446 22.528685051010342 13.006841207892618 0 0 0
278 1 8.399367267548723 23.729807803758334 11.232971643439981 0 0 0
469 1 8.394052372980799 20.505839359922433 14.635841116748646 0 0 0
477 1 14.117066381591787 20.549965620945127 14.77112990403703 0 0 0
287 1 17.683138129886633 20.89746456751023 11.642429393094961 0 0 0
476 1 15.924923156675314 22.29098519082903 13.320705671653306 0 0 0
769 1 0.46831848531176024 0.44572593587582293 25.31991001533382 0 0 0
485 1 1.93017686231121 27.04321374522732 14.86759471499865 0 0 0
464 1 5.338502328697407 23.94148972172051 14.842978527061817 0 0 0
489 1 6.708097518101665 25.283335923821944 12.559172820164811 0 0 0
303 1 11.510380969363153 26.946294501818485 10.663378063077241 0 0 0
493 1 8.44152696356677 26.89109729945342 14.236646293050772 0 0 0
286 1 14.571839737534235 24.154743594704517 11.827673293313595 0 0 0
497 1 12.820349422923163 25.83784131374842 12.99488504054998 0 0 0
501 1 14.088455374516423 27.50073117337112 14.403656514821394 0 0 0
472 1 11.52551197462352 23.83055849345858 14.29756983389045 0 0 0
311 1 17.842377296113266 27.23991259987149 11.540755260021278 0 0 0
294 1 1.864636441685581 30.391196266447853 11.35187280509559 0 0 0
484 1 3.469705153896592 28.51255080873723 13.337279341262743 0 0 0
295 1 5.0862224867892945 26.93640515945629 11.035198989229874 0 0 0
488 1 4.988673409911219 30.399710453928964 14.376205014763608 0 0 0
302 1 8.392299816381536 29.969415310150872 11.585031074361755 0 0 0
492 1 9.882063919408209 28.296566891171874 12.760475817139273 0 0 0
310 1 14.804972270835597 30.28274775147633 11.295454559761968 0 0 0
496 1 11.530539455297301 30.243833053665877 14.227987809325192 0 0 0
500 1 16.197030581343903 28.69464582603563 13.057019562931188 0 0 0
504 1 17.598894200076582 30.379852209649574 14.513276919862692 0 0 0
707 1 10.16603318226461 31.633823863083414 21.819065158809742 0 0 0
509 1 1.804606282582497 33.46573812818529 14.380608594786379 0 0 0
513 1 6.624585664643076 31.810219525350508 12.998164809560596 0 0 0
517 1 8.522880637722189 33.491563365546256 14.336527362980078 0 0 0
327 1 11.527946176648246 33.25655961469026 11.18764246323889 0 0 0
521 1 13.193170098330711 31.787870262133996 12.881157821751861 0 0 0
525 1 14.519050971388706 32.769813057411724 14.794444806645974 0 0 0
335 1 17.241826510989373 33.57841290342857 11.480734903249244 0 0 0
318 1 2.107229173162657 36.14976554886357 11.164416816012576 0 0 0
508 1 3.6273968072816363 34.898994498144944 13.020420626607192 0 0 0
512 1 5.263956654416759 36.39529528628343 14.500904926276368 0 0 0
516 1 10.145785450547736 35.211739585616215 12.748308902318676 0 0 0
520 1 11.519239688625403 36.604919553638595 14.320877241046603 0 0 0
524 1 15.916363961032646 34.85759110390764 13.642686362808439 0 0 0
528 1 17.680283561786062 36.61043894485286 14.630666424547337 0 0 0
703 1 5.44631156011594 33.570400445490364 23.786228188247783 0 0 0
533 1 1.8897920011016947 39.79840631525565 14.3744917793844 0 0 0
537 1 6.779323529048672 37.98491889604486 12.974829168619197 0 0 0
541 1 8.306241067299272 39.77568023675913 14.505027069076176 0 0 0
351 1 11.367378170736801 39.41223761872928 11.293646693732773 0 0 0
545 1 13.400163565481506 38.05509585603592 12.882638465781397 0 0 0
549 1 14.96957320576929 39.56123296559302 14.803483491785043 0 0 0
359 1 17.660848656788318 39.224928813595156 11.071134033790752 0 0 0
532 1 3.4834082155593222 41.243142143234834 12.796637266785106 0 0 0
342 1 2.0170133998229978 42.88163490853415 11.24886440592609 0 0 0
536 1 5.153069787032438 42.65993546710803 14.64907152902002 0 0 0
350 1 8.125574148146555 42.72801241882905 11.41871082811278 0 0 0
540 1 9.987936479214406 41.26427431668587 12.971681499954139 0 0 0
544 1 11.519550209014843 42.3669362397863 14.657425987845834 0 0 0
358 1 14.382378929412154 42.711319645879115 11.550743271342782 0 0 0
569 1 12.814972895923455 44.22836754809978 13.389308276860858 0 0 0
548 1 15.843109511723247 40.848578050510554 12.655741807626425 0 0 0
552 1 17.552432717061027 42.65310380170931 14.362234389430284 0 0 0
367 1 4.8339261449762 45.81836276430418 11.716282797497486 0 0 0
561 1 6.390911659139018 43.98808862573634 12.997512811662503 0 0 0
375 1 11.548092656470917 45.91151517474029 11.595226707250783 0 0 0
565 1 8.16140880045937 45.95492791846142 14.606309466997876 0 0 0
573 1 14.589309138972247 45.73134477962576 14.539347134688725 0 0 0
383 1 17.769518485912062 45.80183182745547 11.472025066236805 0 0 0
730 1 6.82036723104598 41.34720913155547 22.617644067139704 0 0 0