LAMMPS data file via write_data, version 29 Oct 2020, timestep = 200000

4608 atoms
1 atom types

-0.3732409764939142 53.773240976493085 xlo xhi
0.08946477753253745 50.81765522246694 ylo yhi
0.08946477753253745 50.81765522246694 zlo zhi

Masses

1 18.015

Atoms # atomic

54 1 1.7296274041097757 1.2085191084028641 6.223765234349413 -1 0 0
1712 1 6.618374754327255 0.8244727736072829 3.9495170259087082 1 1 -1
900 1 13.897787909151631 0.4220036322820677 0.9909481131914503 0 0 1
3792 1 3.6594697283575 44.7210523752762 0.717613101120636 1 0 1
651 1 16.898795217263547 2.03823754423955 3.071711052900152 0 0 0
4280 1 0.28008228386266965 15.469210309688258 13.64197980364314 0 1 0
2820 1 2.7672396199990374 6.839624449726459 24.98463629744767 1 1 -1
1737 1 1.8312856953039232 2.2503260334744812 3.4126120455299196 0 -1 0
609 1 16.54245908198338 37.701252417214576 24.75837554685591 -1 -1 0
1102 1 0.8395078379472778 45.6447133274374 20.72920286108558 0 -1 0
1207 1 6.470759902263346 1.7543041846575533 1.1143912563974634 0 0 0
2052 1 12.668245680910152 22.00436286277758 3.265060302692337 -1 -1 0
4328 1 13.456764096356052 14.160013413367055 25.253313574735255 0 -1 0
906 1 9.699630819911084 8.564044373326679 1.3572997816776609 -1 0 0
3052 1 13.720994066708665 40.728932489083505 24.408740374978002 1 1 -1
3429 1 6.907232387774639 32.93087506054776 1.766797300471515 1 -1 2
2718 1 15.411111691158013 0.5624552551540267 22.439191449171638 0 0 0
3679 1 5.031085619464753 14.20310521605284 2.0454501607217113 2 0 0
3830 1 9.110522818475435 1.801253062627638 0.45185498686247527 1 0 0
3894 1 0.23551488970785406 14.002723373408065 24.82749038289826 2 2 0
4388 1 14.207241501358467 9.125902361230189 4.124490129973503 2 0 0
4464 1 12.343655436624518 11.822306355522963 5.171575851821361 0 1 0
305 1 6.174790998470264 42.32999646361658 1.8958590807481646 0 -1 1
152 1 7.583161061311103 18.954011761179064 2.579534324161561 -1 -1 0
1173 1 4.739135085523404 12.178339126894402 3.6480752733205426 -1 0 1
2610 1 7.977726780913194 10.369003275803518 2.4775485266973667 0 0 1
2276 1 10.622219407729023 14.690245583858994 7.522689506963789 0 0 -1
2374 1 16.841340434374892 14.54847739710553 25.035311988138062 0 1 0
2729 1 13.372032739227798 13.46571326141021 1.9055628129083972 0 1 0
3076 1 11.049835377072831 37.825925601100195 2.6907410510838394 1 0 0
1375 1 -0.24818568800223773 36.69982921991996 6.086397355986649 0 1 0
2268 1 8.606123750656467 14.575932358986385 2.531887145772293 0 0 0
2118 1 9.948945893540714 17.60450958095351 2.5172704074761705 1 0 0
4203 1 0.45979274697839256 15.243993395697403 17.83414927361563 0 1 -1
484 1 14.658507364924517 17.186137082500423 5.515451878530444 0 -1 0
3794 1 3.1165892682396574 17.427982612769593 3.824520764755142 0 1 0
1646 1 6.469556515935757 15.852101881023094 6.429246544289888 0 1 0
2225 1 15.588732631704323 18.672110337462854 3.341508430387681 0 -1 1
773 1 11.839262725377308 28.357617523644464 0.5738769836492887 0 0 0
4471 1 0.6307328434105821 19.435126871574656 2.448530937447615 1 0 0
3534 1 0.09429619454475319 20.233245847453595 21.052734892073904 1 0 -1
578 1 6.921528983430361 21.78911301070945 2.8692710790479836 0 -2 0
708 1 0.1580277166189159 37.76240102012041 3.4774751848433505 0 0 1
2888 1 2.9609667925723575 22.919988274308015 12.163148100545596 1 0 1
3975 1 13.976369018924899 20.338454988746864 1.48021027988526 1 0 1
886 1 15.757892216422167 25.378360803320355 7.249662597599867 0 1 1
881 1 9.463361600879932 25.666690829351484 4.250251452372983 0 2 1
3255 1 16.482684747993446 43.221699028282615 16.73826780802122 1 -1 0
3497 1 13.436265827722071 26.798233761786626 1.989665077588104 1 -1 1
3488 1 17.120570560559177 29.973417404065582 4.536120015255855 1 1 0
1188 1 17.266189533572792 33.37190343538087 7.374816937925467 0 0 1
1046 1 2.3060911961885338 47.55242421039793 7.540657134097872 0 1 0
1095 1 0.3919390542786523 28.506777605006008 4.365950181680537 -1 0 0
2948 1 7.750362452445179 30.484777402945028 1.873158738440153 1 -1 1
2575 1 15.52334909753146 2.474335947168474 9.643571476247963 0 0 1
1610 1 0.6761126342135566 22.76437045725408 10.840746994166281 1 0 -2
3574 1 4.664324225035043 23.820952045507074 2.6372650531278365 0 -1 0
302 1 2.057591837823078 47.26227693341207 23.652799440803232 0 0 -1
2985 1 2.396478048476972 30.117191115277883 4.243509505365767 0 -1 0
4445 1 -0.21492279988382243 38.35471212488382 13.797245807280781 1 -1 0
115 1 16.530300245491926 32.836476783481444 2.1054115742156068 0 0 1
740 1 4.757060127502742 36.75785994390162 3.8856795999591602 -1 -1 1
1125 1 11.97467007868169 18.45606357788207 0.472478663908928 -1 -1 1
3053 1 10.633950491739027 38.98346955779306 5.06622548555494 0 0 0
1309 1 3.161744330578785 25.005006198735458 21.330432328043663 0 -1 2
1349 1 10.391226432603554 33.3692718780722 3.6813074254800306 1 -1 1
4251 1 13.36499713962381 16.216062528013506 2.0060639245861784 0 -1 1
782 1 12.009556423679166 34.20583457129321 0.8573220633718781 -1 0 0
3399 1 -0.0011899046348360365 19.936063304670526 25.181602485996528 1 1 0
4268 1 3.6015692391701775 41.36480632966038 25.232363947100573 0 0 -2
3611 1 1.772318707210117 36.31459501584489 1.4383831749139893 1 -1 -1
3662 1 3.7564870440619433 43.59871645585531 23.141722988718186 1 -1 0
2223 1 6.536095142543702 42.35509897948074 4.673574313326182 1 0 -1
4098 1 4.290111639961604 3.708087478734526 0.31985549244945766 0 -1 0
4204 1 12.170126122397654 39.72217576511713 1.5710632948905368 0 0 0
1826 1 14.021944807242939 41.3844723786994 3.3117844470391837 0 -1 0
3685 1 0.8747329555520178 34.30797559619499 5.1849134068497005 1 -1 -1
1245 1 8.949828283671032 43.0317456507602 6.00234950814295 1 0 1
386 1 8.229596759191715 39.45130473349977 2.099530713805419 0 0 0
3194 1 16.016416156640776 24.3890889972634 1.679440872980932 -1 0 1
1699 1 15.574876200407266 43.876379071902704 2.133278161520545 1 0 0
3046 1 1.1144440733585728 11.32587338571108 0.8540512025557374 1 0 0
3767 1 3.265995145524745 45.27074050271557 3.317056073257135 1 -1 1
2754 1 5.0956501386555155 44.78082788730629 5.395563972782062 0 0 0
1706 1 6.881314247912905 46.69829227942925 6.049075231008218 1 -2 -1
4510 1 11.681609077177734 46.64080419944324 5.071353215020172 0 0 2
2744 1 -0.3323706758557637 44.510606688071235 14.340639738374534 0 -1 0
4485 1 2.2311578186655585 47.84821669717056 3.313472020381787 2 0 -1
3507 1 10.164702571569714 49.535251723291466 0.8274124482748242 1 -1 -2
4300 1 13.798683174486742 47.36320040728015 1.7684442701639882 0 -1 1
1889 1 12.203502458652528 49.4436784408303 2.577132799904122 -1 0 0
3 1 16.965500385187493 50.56061308038237 1.4296609295477436 0 0 -1
983 1 3.867792502465199 2.494307942835673 7.411024958537238 0 1 1
4189 1 10.414001522904838 2.5190416465376964 2.8715283307039194 1 0 0
2611 1 10.266753883856081 2.391254987177969 6.073258481863679 0 1 0
3756 1 13.018296391220566 2.5007150731859333 2.3476540839387754 2 0 0
2684 1 2.185412032466225 5.373276220282914 6.226812154006121 0 1 1
3274 1 6.412154820001982 2.3595142984734694 6.1837477594304815 0 0 0
2553 1 14.405121027141544 4.9133044979670775 5.427578849675129 -1 1 1
242 1 11.386490769104105 7.6627847097515875 5.505795280719318 0 2 0
875 1 14.63099670453858 34.562609758303864 22.399305482483967 0 0 0
3020 1 1.3018986457210455 17.666307636036404 24.718025897029655 1 0 0
599 1 1.3545356838238085 22.002036063949735 1.277940673243116 1 0 1
569 1 2.457614546187689 4.784233821683295 3.3433172852351243 0 0 1
4364 1 7.830093009026067 4.84477930499912 5.4093635847511266 0 0 1
491 1 10.485424286489232 10.120182672707303 5.936780329187573 0 0 0
3205 1 11.127517355141393 6.831072188382392 2.9834157886286046 0 0 0
4395 1 16.35515380838235 7.6657732584607015 1.7681383742932593 0 1 0
1260 1 0.27223412026688976 8.37419344552878 5.3071902023211805 0 0 1
771 1 3.2944242067072196 8.044180291635923 5.765721617254951 0 0 1
1063 1 6.145426131871514 8.399996391556058 2.060262597845568 0 1 1
2233 1 6.491988936992759 33.763994597666894 25.129517537769544 1 0 0
1465 1 6.775016736866945 13.445746652118281 10.345896066523498 -1 0 0
3928 1 16.26096316332453 6.734293255414224 4.283498982719494 1 -1 2
2893 1 17.656993103929516 10.625625018506636 4.893499967201736 0 1 0
3416 1 1.6584094706757289 9.43351675472958 8.169576900616773 1 -1 1
3847 1 3.342376019217259 9.72354338918899 3.4655158772818466 1 2 -1
2961 1 9.224905824442809 13.17056290216868 9.964957201800223 -1 0 0
3231 1 7.859023751947506 9.620799383216305 4.966933978833863 1 0 0
3935 1 14.9965498653058 12.050102900408907 3.4833333412467335 0 0 1
1442 1 1.482425491279464 40.533122466611104 13.551774925150575 0 -1 1
687 1 3.057069506390256 13.247819986662202 5.6662507535057 0 0 1
2934 1 6.415947561955132 12.110706513698595 5.722292987546953 2 0 1
78 1 11.90268778286728 16.47433224378208 4.417795011999393 1 -2 0
3211 1 10.993225614281734 13.88633578179231 3.8184343612271885 0 0 -1
31 1 16.48612502987977 21.182147864553034 3.8826178214094798 0 0 0
3273 1 17.47657375008246 15.900638875737961 5.158993547916032 -1 0 0
3485 1 9.63437307974898 26.528676517663374 1.525090188492252 1 0 0
714 1 6.607286609492161 37.54774845201463 1.9970275299464213 0 -1 0
1392 1 3.7403336689492495 20.678693742196565 3.159010441452919 -1 0 0
4009 1 7.851938452884012 19.120289097410616 5.545470564093416 2 0 -1
2274 1 10.447200693083749 18.627637676107874 5.78689992526273 1 0 1
2099 1 6.600881930941452 47.47622852378086 0.5735392304794715 0 0 1
3168 1 5.196546170043353 20.77813580064591 6.188661108930913 1 0 0
4506 1 8.64945159754704 23.043749391873003 4.698983895179585 1 0 2
2636 1 10.48665678157991 21.414894077664577 5.4741477663608835 0 2 1
2858 1 13.053458593132872 24.871291623831183 6.145985148139821 0 1 2
3934 1 14.691672363222242 23.561286968623232 3.9449823226762133 1 0 1
1534 1 15.119043877355033 27.813435988525928 6.5664686790221385 1 0 2
2945 1 2.1431945833616903 24.748690892892856 2.155257370683882 -1 0 1
211 1 3.4717177618225876 25.58785645705141 6.172349821891274 0 -1 2
4490 1 12.302204522331586 28.49808466818283 5.746643124693082 0 -1 1
2386 1 12.041213228719117 26.23051798841892 4.304406489114428 1 1 1
2809 1 12.93883582509898 28.577815831831696 8.631251281593897 -1 1 0
2798 1 1.0428887571688752 32.028199044958555 7.0190598749349995 0 0 1
1479 1 8.192665877489535 31.883338189373877 5.431534762487615 1 0 0
4489 1 4.474485926729336 27.908767484295335 3.543755434433577 2 -1 2
4277 1 10.0145750769899 29.43472914631414 2.6924724300027685 0 1 1
466 1 -0.22366926032872603 6.677737305904335 9.412220230931345 1 0 1
1133 1 16.308624822609982 21.158611350239863 14.84016089003629 1 0 1
1800 1 0.7752503011711502 36.90932307309818 16.02811423132702 0 2 1
841 1 3.476110681803241 34.69921116787046 2.712887046965704 1 -1 1
2075 1 16.214901895899885 49.9222438082478 8.43689307486079 0 -1 -1
1086 1 12.306093812065642 31.127650040669664 4.174313137815075 -1 -1 1
2326 1 14.480887956693282 31.41209773815343 5.537022879176765 -1 0 1
3781 1 14.01859901780639 31.08327961006761 1.9438958878821726 2 1 1
3931 1 0.9160554047151965 6.131384132307837 21.957559059745247 1 -1 0
1985 1 1.5824411854328067 15.115444438861969 3.8474869978584167 0 0 1
3188 1 8.775670951486545 35.15462050177128 2.873637198271654 1 -1 1
490 1 6.313327777845642 36.809342799696054 6.213454847510113 -1 -2 0
3150 1 12.352242230354308 35.793090976196055 5.45095917441394 1 0 0
1422 1 15.223146843144956 38.587865796582136 1.4766045691838536 0 0 0
3953 1 3.8056274021069063 39.65227695817056 7.960889820141128 0 -1 0
2528 1 8.42667463661804 40.74947892337936 7.632722980244811 1 -1 1
2047 1 8.043907574738444 39.48676546946271 5.290346190955067 1 0 -1
798 1 12.797743350367156 37.686344081296156 7.272707164816445 -1 0 0
1572 1 0.09922547743788734 8.469213434869204 2.5549292858314234 0 0 0
1336 1 17.105927345048844 2.6372286185097944 14.362364738477556 0 0 2
1052 1 0.19386146266904747 17.15968527793662 7.040405800192292 0 0 1
664 1 3.816484337318597 41.71845567982818 5.965594693589813 1 -1 0
2868 1 14.5152228541953 45.98913732546497 4.147693118329091 1 0 0
101 1 8.511438320571974 43.05108672043163 1.3264835860264255 0 0 -1
3502 1 13.343278788784817 40.41423019716129 6.700545809721428 0 0 0
4384 1 1.5660388430795722 23.14146474359053 17.738296623661824 0 0 0
4600 1 3.7342530961969373 14.81059371289346 24.771566135434966 0 0 0
4153 1 1.2497473288291592 5.948744747563934 1.3568543787599752 1 0 0
1289 1 17.415588903467974 45.417026626421475 12.777396188038091 1 -1 1
4167 1 4.7542457819645225 45.47022639342515 8.234017878227409 -1 -2 0
2476 1 12.921837069706426 43.636323538934874 4.9255952069545526 1 0 0
1472 1 16.72511233288522 49.9596133601827 24.582587954965593 0 0 2
3286 1 9.542645955990713 48.35473470880116 4.7294001848901965 0 0 0
4408 1 16.627602087299575 45.732522696985185 6.71587883836632 0 -1 2
1909 1 8.095525575399751 49.026407846940685 2.4467437828749645 2 0 0
87 1 9.309556581727982 50.28948546909781 6.773978371624443 0 -1 -1
1750 1 12.297981950105713 0.4008312536933711 5.2326511134099825 0 1 -1
70 1 9.432586260855587 6.167571941872847 6.999195079704918 0 1 0
1396 1 13.129263607569994 48.736181358640195 6.554442476026796 0 0 1
790 1 5.818652284992563 49.466031169523006 5.530592078849781 0 0 1
2387 1 2.826363060767385 49.44402337721071 5.768751083523159 0 -2 1
1622 1 1.312422665628007 0.9782533454623221 9.355218113359772 0 0 -1
1767 1 3.4904307201942126 50.25332591059089 10.81314180637782 -1 0 0
2291 1 10.367274533140666 49.50285185580512 9.61755192829744 0 0 0
4439 1 17.229273070480993 2.296984526656918 7.100328527815623 1 1 1
849 1 1.6094756734091444 47.96731198599686 11.813120952226509 1 -1 1
3519 1 4.926086525954456 1.5226718517703322 9.738797632038617 1 1 0
3427 1 14.214553809944432 4.093891441539717 7.9703823681909824 1 1 1
744 1 13.799876186854698 3.9804404961593707 12.255665870335685 -1 -1 -1
357 1 1.4328548052712933 21.003904899050102 5.447215549047147 1 0 1
3193 1 2.5777896762747345 4.912730610732392 8.972568788309937 0 1 1
3973 1 6.6759937834829834 6.188666838373977 8.234555897139995 2 -1 1
4592 1 10.298065890693229 5.431460189724991 9.933172190020963 0 -1 1
346 1 13.831209746859077 7.364568090667769 7.09582649225037 -1 1 1
3669 1 11.896322293239887 9.451812256711245 8.991053616737489 1 0 -1
2631 1 1.2352123753940474 23.801555154513267 24.711394692176267 1 -1 1
59 1 10.250866900890797 17.713999810209344 24.856118275660453 0 0 -1
4312 1 5.249632476189243 5.956603573840139 3.981727063208168 1 0 1
1972 1 5.670698738614907 8.437747472017326 6.611152238073139 0 1 0
1631 1 8.776258821706138 10.76278630675691 8.35328302398972 0 1 0
245 1 14.492301705804577 10.267902007688754 7.005206077124776 0 1 1
1871 1 16.17648123940752 9.801964042355124 9.323418059779296 0 1 1
1765 1 6.247996498490842 11.630718459881603 8.466917146621142 1 1 1
3266 1 3.6681121155646323 15.521451262578681 9.35948227779358 1 1 0
4350 1 12.169901825713406 16.32961513296484 13.56406250314492 1 1 1
2685 1 13.163876448313165 14.556905295552529 6.694949514127715 0 0 0
1965 1 16.22147706039748 13.275950407864437 6.037803767472707 1 -1 1
640 1 3.718333193086772 0.23727054673359113 2.9849523313222446 0 2 0
3562 1 4.106802667350709 20.623136383655932 21.749317909506825 1 1 0
1400 1 4.041548433865596 15.565394665648785 6.856975955304916 1 1 1
1793 1 2.962333096689312 18.290747040604227 6.4804358391449695 0 -1 0
907 1 10.542916370512037 17.387837716917392 8.956290616106438 0 -1 1
2086 1 14.679698284274453 18.66034663495224 7.805615114125002 1 0 1
446 1 17.211773024098534 20.785094288546002 7.312934989612922 -1 1 0
4138 1 15.940785663863423 36.079522596876146 0.37668218925271885 1 0 -1
2541 1 0.5703238495270665 25.967265619136953 22.273693157874515 1 1 0
4290 1 0.923210476239122 49.40899117875543 14.16571771411064 1 -1 0
4499 1 14.004134916921577 44.880424993235806 20.767345956805457 -1 -1 0
4279 1 7.274159744833692 19.87406505117804 10.480286851207621 0 1 1
3581 1 12.13095066926321 19.769105665276076 8.30383244583849 0 1 0
1357 1 6.598386433493781 23.259712776374293 6.302354364804758 0 0 1
1559 1 4.870597691600589 20.67910175888256 8.65324294473773 -1 2 1
465 1 10.173736200731426 22.32437457604767 8.071839894497007 0 -1 1
2398 1 11.402425525754893 24.715663648984076 8.159130197479119 0 0 1
1208 1 12.735157375706079 24.268338499793064 11.113404784016884 -1 0 0
2562 1 14.159078484597691 26.054403644369135 9.574457438723273 -1 0 0
3816 1 3.027121776629825 23.04688430096659 6.313709488584111 1 -1 1
2357 1 1.7114965572738492 29.424613155938204 10.166711401863642 0 -1 1
2539 1 5.953079044229422 25.92914079822918 8.070604965106988 0 0 2
3733 1 7.554887043449984 27.37268944260315 6.018194719664902 0 -1 0
1492 1 9.687626564907502 28.72667881464032 6.975003511643852 0 0 2
1456 1 13.56182606583797 30.36282808601772 11.652326336710342 0 0 2
1853 1 3.696579696733685 28.391855966293882 8.468366246198718 1 -1 -1
684 1 5.749311983567518 28.763554075364095 10.118681019297899 0 0 0
2287 1 3.8949789228297274 30.210530675637713 6.781765989947148 0 -1 1
3164 1 6.407787582738173 29.813436263307093 4.846342779346017 1 -1 1
4515 1 8.986215317917429 31.065838884712573 7.702130701761139 1 1 -1
2032 1 13.405036730463786 31.238098882142395 8.77953872106302 0 -1 0
3650 1 1.1451506586943754 24.483161154431773 15.081205208399014 1 0 0
2885 1 16.388177230790873 11.377603586856024 20.823860299229352 1 1 1
702 1 5.808495682327364 33.63325930420184 5.921784474925846 -1 0 0
2344 1 2.232037136425743 34.15826717321207 13.168223140742125 0 0 0
1038 1 15.030659493974863 33.86321028651433 3.8231082486598527 0 1 1
1116 1 -0.2648602526726234 37.878977434708446 8.30082827472063 1 0 3
1485 1 4.93750076544823 32.48948411419603 8.160047556992504 0 0 2
3728 1 2.297331463460882 35.160862581833456 9.390334546440592 1 -1 0
2314 1 2.596870185744394 32.75372509687884 9.366875605795105 1 1 -1
2420 1 9.423918138114665 36.320213885501815 5.711970005864473 1 -1 0
3621 1 11.373470498272123 37.46476727657296 9.501843473533613 1 0 0
4427 1 12.572393948421668 31.854703986389442 25.139181882786286 1 0 1
414 1 4.216981218374237 36.94469234161471 8.12424554927179 0 -1 -1
114 1 8.544689817474485 39.19641276961798 12.04298036168102 1 -1 1
4055 1 15.390478907551305 39.0351174387891 8.525028425698554 -1 -2 0
3540 1 12.474106474104033 40.73200951721894 9.842433256645531 0 1 0
679 1 1.0046087631534135 40.43670775057558 6.793589587078026 0 1 1
3571 1 10.819564682657155 37.4007711754589 24.769965500599465 1 1 -1
3369 1 6.563751547031091 43.79357946879148 9.640009001702449 2 1 0
814 1 5.72716995062404 39.76425735727689 12.574771316019666 -1 0 0
3121 1 11.446489028415407 42.21353732432753 6.970999021854541 0 -2 -2
1389 1 9.66630328434431 40.00260609858782 10.063901924923645 0 0 0
1235 1 13.367022873181504 8.570816118495069 1.1570919872349041 -1 0 1
3619 1 15.960000455554571 31.329176823139044 8.901568218444385 0 -1 1
3183 1 0.7137070308711482 43.468310928642154 7.890864930990548 0 1 1
1552 1 7.323626369799462 48.742278373493676 9.84676284535982 0 -1 0
2716 1 9.425374309189749 46.47112518980512 10.710065502909778 1 -1 0
1558 1 14.62365983878902 44.29840507592563 7.398037038012704 0 0 0
1238 1 11.488726145177413 45.679138473621535 7.886644047112271 0 -1 1
374 1 4.835712380450253 48.05923700279487 9.92374073904284 -1 0 0
4033 1 6.802815800783415 50.497583771329616 7.898582803354046 2 0 2
1820 1 5.134288399724478 4.131499868299249 11.823987489139963 2 0 1
1191 1 8.784035537115694 45.32929008100838 7.784446169057845 -1 -1 1
1565 1 16.894417903016425 47.94694721418735 10.477672298033275 0 -1 -1
738 1 1.0059979750238668 12.011962651530942 3.656309232633583 0 0 1
1920 1 2.0131813712227844 36.915938587306655 24.054346144067484 2 0 0
2516 1 0.9640813305172589 39.475963243931915 10.462215215324191 1 0 0
58 1 4.932943869899897 6.101446608766621 9.927433991275402 1 0 1
4337 1 5.68599044965719 49.645078118353524 13.98175733601199 1 0 0
604 1 9.059441268356183 3.8069117392403604 11.907046951234822 0 0 0
1181 1 11.42236054622141 3.4105685069609626 8.327346800538345 0 0 2
237 1 11.52472067092357 1.1728092700464399 10.289902563478055 1 2 0
25 1 2.6872864024393914 5.792578176484971 14.73983614986199 0 2 -1
764 1 8.551115680598361 8.411519057225288 9.438300100018878 1 0 0
534 1 8.243726889686116 3.045774283716294 8.869833206205467 0 0 0
870 1 13.212374497561768 8.393084478866372 12.86331146428485 0 1 1
3022 1 15.334840996301475 6.750108683187026 14.133064414430537 1 0 1
3074 1 2.206903593555554 7.19048192677006 10.76962965539255 1 -2 0
130 1 1.1233003371668455 8.873921085642408 13.000346422311246 0 0 -1
2239 1 6.070222457506742 8.557732292105445 10.531844120413522 0 0 1
990 1 13.319809830904095 6.2131233819469 10.412591323872185 0 1 1
228 1 14.919788744754799 10.537031526206745 11.523070560284484 -1 1 0
3402 1 4.155520132941433 10.249095849266837 10.351526850763747 0 2 -1
576 1 10.55697506148755 7.881957556573915 11.90692196027375 0 0 0
1457 1 9.150613931660196 9.965634640875319 13.104964095815506 0 1 1
2014 1 12.803624669954045 11.653886423519516 10.355423822775757 2 0 1
1876 1 14.901925870638062 11.635684755203055 16.269767415534126 0 0 0
4128 1 4.443748121708957 16.69215862944866 21.7741698516673 1 1 1
1269 1 0.604343830711796 18.864852758217545 12.824681967160105 0 -1 2
2665 1 7.610967846613809 18.01569201492941 8.495799219156805 0 1 0
2457 1 6.89053913131933 12.021885919571512 13.437007220739986 1 1 1
3268 1 1.5293606560127384 27.366382744921058 11.926581217351373 2 0 0
3493 1 14.315593587496906 13.454800877289129 8.884360201607407 1 0 1
2843 1 3.632991755767417 20.843261536880114 14.717308098956499 0 0 0
4112 1 8.502657206195057 13.981714395507144 5.720393480628103 0 0 1
3641 1 6.1097805846219515 15.992101818378538 10.48614250768489 1 1 -2
3347 1 10.73976795606584 18.192607220465355 11.693459728845374 1 -1 -1
3032 1 13.301774024081402 19.284884434301066 12.630126228493497 0 0 0
2573 1 16.571097898632722 41.341313644707355 7.110322712322863 0 0 0
3177 1 2.676218949210748 17.701518183745097 10.89207266832646 1 1 -1
257 1 5.253842773191226 18.488161887262535 12.33925204420946 0 0 0
3559 1 12.06127302452702 21.39909404222715 10.500541714012224 1 1 0
963 1 -0.05973355796271296 47.914578321327724 9.222977046527923 0 -1 0
2107 1 4.0016130592055035 23.418956505241113 9.428301994187722 1 0 0
2559 1 6.184957492649132 16.221500368612055 3.6601734096885705 0 0 0
1599 1 6.666158773213259 24.168092499257515 10.868346150989069 0 1 1
3707 1 7.590383371467244 22.314448051280124 8.836872381083923 0 0 0
612 1 10.474148927966489 25.054421102142513 11.89000674955271 -1 -1 0
272 1 12.939609629543446 24.336616866282295 14.231518755664881 0 -1 1
3261 1 15.629637606787803 27.161948743353804 16.094588718040313 0 1 2
1032 1 2.4242394495365063 25.704675524088138 9.77632096068597 1 0 0
842 1 7.936813304167915 26.485471256166505 10.444797393688882 0 -1 0
1077 1 10.613075372930025 27.44623251036703 9.249581737100524 0 1 2
3625 1 10.853391573800941 27.755386025035815 14.105381019585783 1 0 0
3198 1 6.5735460472583656 4.996975832254418 1.6010099663448796 1 1 1
3310 1 2.2498460851624937 29.50802659311713 13.901855005512267 1 1 0
313 1 4.7142616689223615 29.92242823047018 12.457578403600522 1 -1 0
4175 1 9.432070678233666 31.157109970890357 11.533848245425226 0 -1 0
3498 1 11.152558416625231 28.99382491039075 11.579575708781316 1 0 0
3579 1 17.291609198330203 34.528229516992795 12.88491986095259 0 -1 0
2664 1 0.4579386863702831 32.19356909098832 11.638150077867412 -1 2 1
1012 1 0.4333889917425512 3.322515577760433 10.341333435861028 1 2 -1
265 1 4.8625000794308075 32.86456884973106 12.600168714137686 0 -1 0
2965 1 6.951813852166809 31.26078006121364 9.859855312860585 -2 1 0
1379 1 6.987203234184015 33.745962176486515 10.839688254734371 -1 -1 3
1814 1 10.616641180011202 33.71208900464056 12.49755285708782 0 0 0
55 1 13.092237678808974 33.795610247771535 7.632506498052643 -1 0 0
3025 1 7.290342300507645 35.52051993948163 8.88158165547524 1 -1 1
2663 1 9.891286683653036 35.442681722346876 8.468168696736129 0 0 1
2692 1 13.714078958562462 35.52530264126902 9.838384285576732 1 1 1
3854 1 10.628780645679143 33.036387491701575 9.562915288505454 1 0 0
1764 1 16.96183952342535 40.332430857030815 15.384870450459793 0 0 -1
1681 1 5.755091963888945 25.565638241630314 3.931382702993455 1 1 1
4272 1 4.500018012099725 36.28973668591226 13.312262975508283 1 0 0
3319 1 9.472951909061244 38.981117258570805 16.896054536937697 0 0 0
3878 1 15.218423686249878 43.64399510172308 10.125050267124404 0 0 2
3099 1 12.706601401857588 37.64006817967956 12.387016574415727 0 -1 0
1057 1 15.608637573578555 5.185108915809152 0.6668405923309605 0 -1 1
409 1 1.6667594249723185 12.209111418151359 7.643122094131283 0 0 1
246 1 5.408782951274579 41.473919763610596 9.600903814410945 -1 -1 0
3457 1 10.104764786765303 42.61739583173835 11.350925886923278 2 -1 0
3318 1 11.639058694913931 43.41986343710197 13.800805386586193 0 -2 0
3909 1 14.342398816393965 46.49879782222051 11.068349585977046 2 -1 0
1962 1 12.462451075193718 47.834108070288636 9.067789039026158 0 0 0
1605 1 17.084278115364533 5.158381504188069 19.608231814581575 0 0 -1
1292 1 7.284626209762908 46.29936987112082 12.643307325547974 0 -1 -1
2977 1 12.157217970324275 43.42166067916152 9.59901928383165 0 -2 1
319 1 0.41617364642615307 20.60824252771073 9.251027363233511 1 0 0
691 1 0.196925478061044 29.352654176887526 23.00034412045577 0 -1 0
98 1 4.890702194565123 47.39887591972962 12.74660072851596 0 0 2
2033 1 8.30858853059818 46.57148045704861 15.008690484779605 1 -1 0
747 1 7.4634408508760375 49.87253090129467 12.109512047711483 -1 -1 0
505 1 13.42419941153072 49.63781458905575 12.255028813469316 0 -1 0
347 1 11.118680509372188 0.18038226331043825 14.347570660621084 0 0 -1
3189 1 -0.13803543898745624 1.804473518454134 21.414946648547392 0 0 1
1434 1 1.1016318910482739 0.37706997316319946 16.46599026666428 0 1 0
2808 1 3.4051705607158143 0.6732492918913173 13.107256550611211 0 1 0
1250 1 11.3954101820843 2.4719378565018264 12.55243859715389 0 2 1
4099 1 7.055278206874151 2.0131629571485834 12.078964557272926 1 0 1
467 1 9.630799715453003 1.4367710781621652 18.28565413543496 1 0 0
977 1 16.680631753993822 21.634708570665687 1.0628952613925307 -1 2 2
665 1 14.465838808844342 3.5324334551272174 15.000945502538896 -1 2 -1
797 1 3.507071091364269 7.8684479595085435 16.146091013902467 0 2 1
1412 1 1.1725169790456544 3.3799406228457363 15.274091228595266 1 0 -1
762 1 5.642838866728687 5.712915204973797 14.010048048895891 -2 0 0
1404 1 10.34723734398036 2.6244606674173685 15.701727866343564 0 0 0
3511 1 12.229510077060219 8.652408953056021 15.428643336177604 0 0 0
1564 1 13.2713452726885 6.187969790717311 19.31792009708467 0 1 0
2791 1 17.55992439905556 8.1629676645552 17.031031330800346 0 -1 1
1406 1 10.741122906053839 5.047657936625796 15.410225215671186 0 -1 1
3838 1 9.542523276376818 6.640207080528445 17.176050558277165 1 0 1
1428 1 11.576118556718994 9.33883429647799 18.887837959535094 0 0 1
3853 1 14.66368203875276 8.110039518096654 16.88607299559702 0 1 0
720 1 6.675175907239414 26.63613502996603 23.203960817666253 0 0 -1
1214 1 4.084773936615911 12.308718150863651 12.231762902896262 -1 0 1
2364 1 2.29076640668971 11.100088011716645 13.917005702390338 0 1 0
2319 1 8.613882781919232 6.016049074152415 13.444844871055311 -1 -1 2
3714 1 4.865549067055905 11.199494825233073 19.003348142290598 1 -1 0
3647 1 5.064456927851859 9.596359409608874 14.543875211497758 1 -1 0
2429 1 6.970524579207161 8.06422381744228 12.913388199234735 -1 0 0
3382 1 10.63269376892818 12.145512782650638 12.57627491007472 0 0 1
2196 1 17.25825493531108 13.394018921191636 9.02927258790129 0 1 1
2092 1 11.363780548972565 13.003810799273504 16.14391698403252 1 2 0
23 1 15.285124074794414 39.07983283459528 11.490393976450987 1 -1 0
4430 1 2.208817413180221 13.503623683210117 9.974980810553786 1 1 0
1246 1 2.547054898208431 17.97382327821897 14.37958217257254 0 0 0
3308 1 4.843765688270099 14.646391622441605 12.990471805846289 1 0 1
781 1 7.336228252346003 14.695034647746253 14.362194672800435 0 0 0
1881 1 13.628359680196404 15.811294852131955 11.09766781552233 1 0 -1
934 1 17.4480698173003 45.906628812954494 16.3550059113179 -1 0 0
62 1 6.074297909739876 18.274301297301285 15.182090194602734 1 -2 1
1973 1 8.1332024765863 16.834849903878727 13.191333959156653 1 0 0
3234 1 15.362531498529457 18.273670358132637 10.64294969450776 1 0 0
1689 1 12.117653731793562 16.798717841080887 16.497873629140894 0 2 -1
1585 1 14.223968648441401 22.006244896743837 13.584018845079001 0 1 0
3214 1 2.6380193614645617 19.581989398071688 9.079901755895891 1 1 0
1315 1 3.5965567634678135 21.504691552020947 17.647636230804213 1 -1 1
2623 1 5.222116181394059 21.494192381799735 12.42946642585453 1 0 0
4168 1 9.74813722091382 20.96106481391074 12.0495195003165 0 0 1
4150 1 9.387982813796802 18.170333049557847 16.684932473601542 1 0 1
3911 1 15.885171757963022 23.576024230572223 11.449492653549624 2 -1 1
4436 1 0.5558246243113125 24.222536598042293 8.162292982391842 0 0 1
4240 1 17.1270281063675 4.422973683720922 22.30469782976511 0 1 0
2655 1 0.8605040226443978 21.513884142930845 14.055513097759585 1 -1 0
1483 1 6.906047333167651 23.19094685499011 14.266196929959241 0 0 0
3537 1 6.020155196650147 25.698467279887396 13.817615650086037 1 -1 0
2166 1 9.547314435693693 23.30892933826455 13.954555283882257 1 -1 0
94 1 10.638946975759282 25.30423758630462 16.301761802554456 1 0 0
2039 1 12.340762169493624 25.343069929374074 18.890819050207078 1 -1 0
525 1 14.17684720630819 24.583823807793515 16.78467834766635 0 0 1
2388 1 3.11148105267402 25.469971567247455 13.609067323924094 1 1 1
3207 1 6.757564813801562 32.32305906022275 14.635028951238452 1 -1 0
3799 1 8.177584626534506 27.53840729338368 13.331104799018242 1 -1 0
2758 1 10.810120180073499 29.892465833633917 15.795061679532015 0 -1 0
3903 1 14.394535488947133 26.383984540577526 13.560252923407294 0 1 0
3595 1 15.171215804487622 28.003338248244116 11.362691672938508 1 1 0