LAMMPS data file via write_data, version 29 Oct 2020, timestep = 100000

8505 atoms
1 atom types

0.3861476364017662 104.34518388100068 xlo xhi
-0.35383153800276546 50.53488766098946 ylo yhi
-0.35383153800276546 50.53488766098946 zlo zhi

Masses

1 18.015

Atoms # atomic

1997 1 3.778120699545146 0.3231584238221066 0.22012317613309018 0 1 1
1938 1 4.864798811691204 1.96541926906341 1.8913904505540375 0 1 1
1827 1 10.838012039398585 1.9505338459073869 1.7776617517233348 0 1 1
1689 1 17.423756461962185 2.458272583276471 1.3515735515261293 0 1 1
2295 1 19.294009335176437 1.1003043522133107 2.963162302138044 0 1 0
2706 1 23.680032942542354 2.0556707298199557 1.7667676926528548 0 1 1
2785 1 21.7445238213952 1.184189855501279 0.5018728915026269 0 1 1
2428 1 25.217046191439874 0.5763960026947155 3.26664159991428 0 1 0
2529 1 29.814841702977855 2.057701166869025 1.3930480003910481 0 1 1
2501 1 34.684274714319606 0.6515391587478339 0.345593126491487 0 1 1
1605 1 1.8743632697211237 4.932918638368148 1.4947542532183227 0 1 1
1899 1 6.3440117023173555 3.697360244775334 0.26814343926664463 0 1 1
1577 1 7.875565536589779 5.272077148592402 1.7587647668883686 0 1 1
1558 1 12.882534002047427 3.6149361309877492 0.4308894057138468 0 1 1
2139 1 16.157862537721826 4.216902842771177 3.316019262419542 0 1 0
1532 1 14.56211197208962 5.485233282208394 1.481981104733889 0 1 1
2418 1 20.786731442768208 5.516684263611451 1.7176998190229438 0 1 1
1741 1 18.896027188457847 4.196614953560122 0.16329518922565112 0 1 1
2307 1 22.365614913140643 3.814383011486748 3.0159062311302045 0 1 0
2329 1 26.90775374940362 5.3759786775557235 1.8997693977165597 0 1 1
2346 1 25.263982718396978 3.609205972078641 0.2623158597889633 0 1 1
2237 1 28.284939394603978 3.4663295362499933 3.1760217601736653 0 1 0
2246 1 31.467975359624706 3.644856317651794 0.18159035295649473 0 1 1
2842 1 34.5479593590535 4.064655845914656 3.1385094215832976 0 1 0
2322 1 32.803980817012025 5.530851862690803 1.8502559823947693 0 1 1
2135 1 0.6992043986060985 6.802906301802282 3.129696882926872 0 0 0
1598 1 3.3927968480915984 6.721078201453104 0.23906878666777476 0 0 1
2030 1 4.9556829506502105 9.175025519733863 1.7815682024588169 0 0 1
5674 1 6.975122463549687 7.640004104938466 1.7209651940884978 0 -1 2
1571 1 9.625086689702973 7.864422861235969 0.37852261306860124 0 0 1
2032 1 11.437429518375401 9.324811671194238 2.117450600796065 0 0 1
2035 1 16.904670345543888 9.416042497682929 1.1413647409666345 0 0 1
1592 1 19.087190393478227 7.663914732023061 2.9979090189539 0 0 0
2780 1 23.915154575954457 8.984646239139423 1.9101764405058446 0 0 1
2782 1 29.823917948065294 9.348512480579956 1.9744910788094643 0 0 1
2781 1 28.591760567589812 7.826905447860041 0.23574101537828984 0 0 1
2784 1 34.44758762461827 6.6742485454677745 0.3049865357514605 0 0 1
2038 1 1.707230581522107 11.98778979154529 1.5274629670346187 0 0 1
1488 1 3.4952132353373098 10.893090595346415 3.195780179410852 0 0 0
2039 1 8.023010513625984 12.037243982670212 1.4944943072044896 0 0 1
2041 1 14.131111840309492 12.210120932008673 1.7955401554306527 0 0 1
2033 1 12.635823575466194 10.63727571654804 0.26835568663110654 0 0 1
2786 1 20.783308538974588 12.019189073175834 1.8549908838695552 0 0 1
2132 1 18.826041596655617 10.851757657998803 0.14777117127823713 0 0 1
2787 1 26.532100595736274 12.349076063231477 1.4725719664733579 0 0 1
2783 1 31.59033407602371 10.689080735906817 0.16594058448194537 0 0 1
2791 1 33.23907828906737 12.224975287822824 1.8902204277363972 0 0 1
2848 1 34.98792393749675 10.634498280205104 3.2498475117605055 0 0 0
2045 1 4.929243559059149 15.282568164427635 1.6502437055119472 0 0 1
1520 1 6.5541642686449215 13.833546105858808 3.031412184009083 0 0 0
2040 1 9.562702934791215 13.979863902403615 0.18279690355675537 0 0 1
2128 1 12.928045354453197 14.04656257178847 3.287601818244613 0 0 0
2046 1 11.150078919405235 15.611805286628474 1.8175479774523047 0 0 1
2042 1 15.997547715307501 13.731920408406006 0.6438126111206786 0 0 1
2539 1 19.345872213587633 13.722874692258886 3.217179886647521 0 0 0
2050 1 17.84018150613189 15.355898153543757 1.437250823037515 0 0 1
2797 1 23.963633819707553 15.625813296783756 1.9052398480195007 0 0 1
2795 1 22.588490906275265 13.53933677725717 0.3225818182599334 0 0 1
2798 1 30.387739847245673 15.260542048205187 1.6163490521324244 0 0 1
2792 1 34.85664756797769 13.544386269173954 0.1964780791659012 0 0 1
2053 1 1.924831048719472 18.4594654064495 1.6376960258094881 0 0 1
2130 1 18.89076158557476 42.33088782949735 0.11263325478125508 0 0 1
2044 1 6.111937454090732 17.23930030875811 0.4723306258377923 0 0 1
2141 1 9.831149209912803 17.086853414316945 3.08368217665122 0 0 0
2054 1 8.042842661991713 18.764477200566578 2.100935290381647 0 0 1
2048 1 12.78588446001978 17.145424740897344 0.22195626561227189 0 0 1
1627 1 16.037117624341114 16.880047787500708 2.995805358528379 0 0 0
2057 1 14.51363074301401 18.53855118488628 1.511570692858334 0 0 1
2802 1 21.01311990858501 18.90949332842085 1.8221801041673675 0 0 1
2250 1 19.585049101972402 16.916768819375932 0.26643607150515136 0 0 1
2803 1 27.308701650074394 18.27188963421725 1.7453557595761842 0 0 1
2796 1 25.717964794189356 16.946936480424895 0.2539416637277425 0 0 1
2279 1 28.771198097640504 16.62958911392822 3.1454124796424723 0 0 0
2805 1 33.282839825753484 18.835275912123198 1.6924186143672815 0 0 1
2799 1 31.678666496338625 17.114859807840947 0.2898968227322887 0 0 1
2016 1 9.869788902393628 45.390894949705675 -0.3115210994340063 0 0 1
2060 1 5.039316797745339 21.77298540569616 1.6489515546047344 0 0 1
2055 1 9.395245014503757 20.07157436720943 0.4004258708080555 0 0 1
1470 1 12.970499252784128 19.972399238675155 2.8540013496364365 0 0 0
2061 1 11.078988607200808 21.713239870028715 1.786242349663972 0 0 1
1957 1 16.105337899213886 20.455227408882077 0.19546687005404828 0 0 1
2065 1 17.849231249518315 21.590113845000392 1.9947625587803213 0 0 1
2806 1 24.200737899471708 21.718028044943985 1.8003419131549574 0 0 1
2195 1 25.4346371753896 19.89596329476657 3.2439640501732345 0 0 0
2809 1 30.174815788847855 21.856040644752177 1.906522801908448 0 0 1
2804 1 28.752159637332177 20.049260958901215 0.2812394392330875 0 0 1
2143 1 3.6709577487500167 23.590249188230583 3.267401554144832 0 0 0
2068 1 1.9889227485390581 25.150977664977724 1.9246657978206714 0 0 1
2067 1 3.633892662774916 26.544159685927195 0.12169725635283363 0 0 1
1407 1 9.798677216380664 23.575054387088915 3.281020109849846 0 0 0
2070 1 7.667050201429518 24.848939004460078 1.6808463767494746 0 0 1
2063 1 13.000910151278509 23.034625587539573 0.17947365741370913 0 0 1
2072 1 14.400705546759294 24.86100509997404 1.637226102601623 0 0 1
2812 1 20.771584218973913 24.766340505155526 1.49215801398019 0 0 1
2679 1 22.461566102830254 23.188622521887694 3.2704932654596326 0 0 0
2816 1 27.259943114563715 24.611913001213555 1.6706596969570437 0 0 1
2817 1 33.544595486585045 24.66547013326518 1.959034690941174 0 0 1
2077 1 4.993498604021007 28.11869495137269 1.7044321784325556 0 0 1
2071 1 9.747712000749182 26.159439706873428 0.4933704444105832 0 0 1
1442 1 12.957868138796021 26.617650200640753 3.178649168224603 0 0 0
2078 1 10.958244928116862 27.965886479484364 1.945549099027117 0 0 1
2022 1 19.07131491158685 26.48492468871127 3.2675817236803333 0 0 0
2081 1 17.850350835458183 28.083466216389915 1.4276966977464436 0 0 1
2820 1 23.976378461291684 27.760958735697713 1.6233905909225486 0 0 1
2834 1 25.539786611769635 26.430034963747456 3.143721756590926 0 0 0
2822 1 30.50888791521948 27.71881097200337 1.7868607279801179 0 0 1
2815 1 28.875973083767754 26.354940696976758 0.15308349409695676 0 0 1
2125 1 3.413872690909718 29.619296279605337 3.2087067099099094 0 0 0
2082 1 1.8705236930412616 31.1446161779372 1.4514352100511403 0 0 1
2076 1 6.637996908351467 29.721970345018136 0.15810810380516416 0 0 1
2084 1 8.15159370202199 31.27686203305528 1.8200099733191202 0 0 1
2080 1 12.677960324278393 29.062147891063482 0.22339270660343302 0 0 1
1589 1 15.961706637170547 29.436129668827675 3.2903143128183947 0 0 0
2086 1 14.32304973806227 30.815140981520432 1.375867028891623 0 0 1
2827 1 20.98376218036938 30.722038587890317 2.1435491173848753 0 0 1
2828 1 26.869969412157925 30.867426614634418 1.5998834655060898 0 0 1
2285 1 28.540228629775182 29.437659488437518 2.8835238646470676 0 0 0
2824 1 33.26981634957674 31.02354439524075 1.8704537892232018 0 0 1
2823 1 31.601706579600307 29.060439520723467 0.203398529531986 0 0 1
2685 1 28.17839005676256 45.336909697128874 0.08126461174908067 0 0 1
2091 1 4.96432264172335 34.36605281284116 1.6675312294661873 0 0 1
2085 1 10.007490110800605 32.64307401203868 0.3298229010783681 0 0 1
2142 1 12.680136009005748 32.45137926483963 2.7303501374520915 0 0 0
2094 1 11.318745226905978 34.52430228263271 1.7427258735150075 0 0 1
2271 1 19.432358973680802 32.51397321525537 3.1257067918410453 0 0 0
2088 1 17.76656394098815 34.24700083746195 1.3626306472328285 0 0 1
2788 1 23.68590325563587 34.3202272326907 1.2237695750478628 0 0 1
2826 1 22.204401077063736 32.19505033047583 0.3911446286378668 0 0 1
2837 1 25.59474597160717 32.79667985144116 2.859532330033877 0 0 0
2830 1 30.028534328355352 34.14797380675775 2.428779325199869 0 0 1
2829 1 28.62167945929263 32.69203266685631 0.43446447348210404 0 0 1
2794 1 34.88610524631916 32.53741842315057 0.5367240969071703 0 0 1
1484 1 3.5214575516594344 36.06894614309537 3.0404723986564774 0 0 0
2090 1 1.784576191468618 37.68403601732534 1.6366079680686312 0 0 1
2092 1 6.802884961206976 35.801800205121154 0.2110448339378047 0 0 1
2095 1 8.088452862210463 37.25835759354976 2.002398882729805 0 0 1
2096 1 12.737861883631647 36.07857298534529 0.21579766618035445 0 0 1
1440 1 16.26126239550106 35.66739962494543 2.933179733479006 0 0 0
2097 1 14.573156397300282 37.38854916051297 1.5866256186464243 0 0 1
2811 1 20.694466439922675 37.480188027955954 1.7071251644251637 0 0 1
2274 1 22.415851695622983 35.98238545702306 3.094692558913686 0 0 0
2772 1 27.404263033351736 37.49344855452442 1.6069941902329223 0 0 1
2793 1 25.771300664420686 35.706035342319886 0.21593236493133527 0 0 1
2749 1 33.63010136141618 37.345576371367606 1.9303070869561578 0 0 1
2590 1 31.90351695203867 35.37856817470941 0.5549953320186294 0 0 1
6713 1 1.2497911638155799 45.008418813420846 3.6462472754434803 1 -2 -1
2100 1 5.095181919030159 40.61920228179524 1.7047292432815913 0 0 1
2101 1 9.60750575536864 39.082073936619956 0.3467686373377049 0 0 1
1473 1 12.980441122467608 38.95538974644063 2.853424872416814 0 0 0
2102 1 11.05978381251176 40.44398762209866 1.6954232278003545 0 0 1
2103 1 17.359465876934635 40.61782977373392 1.3867613639416 0 0 1
2043 1 19.022902115234885 39.24846548527383 2.927356632753695 0 0 0
2818 1 23.764853434620946 40.48173573133102 1.7312708007662523 0 0 1
2825 1 22.15249245268479 38.941116918445736 0.30063712907010376 0 0 1
2291 1 25.592851543776778 38.96749589925018 3.2324868624973697 0 0 0
2790 1 30.409353792835578 40.541019525404714 2.443429344957552 0 0 1
2800 1 28.95892053120093 38.75115272958818 0.5417215608574562 0 0 1
2771 1 34.98750449862485 38.66161008477583 0.27179293467199495 0 0 1
2106 1 1.914776342271491 43.48726968815374 1.7931028158046525 0 0 1
1296 1 34.6617946737418 48.30720190667333 22.859378685833356 0 0 0
1676 1 9.459923791636745 41.948896931305086 3.271740548605605 0 0 0
2109 1 8.201695106257581 43.63477013028342 1.5815042952724443 0 0 1
2123 1 15.89719283710166 42.35378577237155 3.0895534695243563 0 0 0
2111 1 14.38531896515093 43.690524883665276 1.3487916493508882 0 0 1
2701 1 20.91405922498141 43.736763642220325 1.966028001542158 0 0 1
2808 1 26.906005238979592 43.71795815021935 1.887872417499287 0 0 1
2693 1 25.55322246417687 41.858379049503135 0.18622901834924765 0 0 1
2836 1 28.462707524522912 41.95675082400784 2.9814556482787506 0 0 0
2219 1 34.66615164864901 42.31594320066959 3.2900057433333196 0 0 0
2576 1 33.435867088583315 44.145938166847266 1.9503203948473513 0 0 1
2819 1 31.83069636464686 42.16050254372524 0.9191219088926386 0 0 1
2435 1 25.07826208646633 48.22343692011868 0.11236257891864032 0 0 1
2074 1 5.30621474626948 46.60018801437061 1.7933446931620698 0 0 1
2113 1 3.978494791324986 44.80297493892536 0.428353134572269 0 0 1
1970 1 11.617407259445505 46.740897658697996 1.7390034368164606 0 0 1
2474 1 19.37417633517024 45.3972590010705 3.267843762499361 0 0 0
2112 1 17.93890918999551 46.79430446564783 1.41842178640917 0 0 1
2755 1 23.46381655302948 46.827841421192666 1.7863799265068798 0 0 1
2835 1 25.170832885537287 44.89411874088979 3.067063148907761 0 0 0
2841 1 31.425191372466955 45.43313221414955 3.0708262032126497 0 0 0
2738 1 29.578941002095902 46.870847071848004 1.57361445039625 0 0 1
2655 1 34.27611684249963 45.47162772637304 0.2082291698566383 0 0 1
2108 1 1.9872077754478301 49.99295131444173 1.844260916338535 0 0 1
1715 1 0.6232626604712701 48.119813745842016 0.2723241954712905 0 0 1
2098 1 6.938284848038924 48.04395198854488 0.4477127993419462 0 0 1
2036 1 8.18958578556784 50.18945477768339 1.8863259729594026 0 0 1
2089 1 13.302785045012312 48.25081224407968 0.2177661437010442 0 0 1
2066 1 16.615375979843474 48.24039306590907 3.203727345511894 0 0 0
2058 1 15.201293107718424 49.988146418550706 1.8330174173035712 0 0 1
2599 1 20.934688259163668 49.86156080993042 2.0408560101068405 0 0 1
2242 1 19.426103338841063 48.70428025276236 0.1451629051718471 0 0 1
2634 1 26.62767289532779 49.84414572852329 1.5952555165781592 0 0 1
2832 1 28.242129536973604 48.341909266568734 2.75173690104926 0 0 0
2673 1 31.297445141167014 48.51545851881361 0.26442550878855375 0 0 1
2394 1 34.07860741449418 48.25121474554235 3.1035176939930587 0 0 0
2648 1 32.7090789655728 50.22584434763756 1.9490427381202369 0 0 1
101 1 1.8099907460788893 2.1523834432601845 6.051468400199541 0 1 0
34 1 6.659242736236744 0.900319272823477 4.289457671415315 0 1 0
103 1 8.237297813387361 2.246766451040769 5.982297802194219 0 1 0
3 1 13.072964528795698 0.5721877404944223 4.210600743716209 0 1 0
104 1 14.444407865746106 2.467823804832992 5.464936340712478 0 1 0
826 1 20.587276909748148 2.719238079130054 5.348739772218263 0 1 0
830 1 26.319860657453496 2.233726377761781 5.825518874265986 0 1 0
1384 1 31.106692160851143 0.6520789336821808 4.279026049449615 0 1 0
832 1 33.127073215360795 2.330825451733291 5.3648613405311805 0 1 0
35 1 3.1568405147957783 3.6744311940928247 4.264743057904444 0 1 0
2801 1 22.513898962788538 20.343941432188966 0.11019291424656674 0 0 1
109 1 4.9695748444338275 5.3947213103475855 5.507663037241027 0 1 0
383 1 9.520375641788853 3.7888422126674124 4.166828473270076 0 1 0
112 1 11.190371217760413 5.039367722824873 5.733879672388582 0 1 0
114 1 17.65604126349372 5.716202011641633 5.779077086056854 0 1 0
836 1 23.600554528902496 5.352996129240091 5.6233360684107465 0 1 0
838 1 29.59008643364498 5.536241160873561 5.3835364730341935 0 1 0
1 1 1.9363562233590381 9.049168324584194 5.523248841619 0 0 0
243 1 6.508736612248619 7.639618987644805 4.286436409687117 0 0 0
5 1 8.20344778359527 9.053839046355051 5.684563345648888 0 0 0
670 1 13.077959072827118 6.715597071465048 4.115789877220193 0 0 0
6 1 14.244253361105715 9.051849832493971 5.980848256179742 0 0 0
742 1 20.737464158819847 9.091078557302346 5.453083096815416 0 0 0
1251 1 25.08809859963532 6.68444980211785 4.366592502182893 0 0 0
743 1 26.939295949498483 9.06628717626778 5.686812666737851 0 0 0
771 1 31.38550323811679 7.834105747962209 4.139777088343142 0 0 0
744 1 32.981266559231194 9.338754530413588 5.683939440105 0 0 0
12 1 5.156241442673354 12.272604844861933 5.698817447282978 0 0 0
735 1 9.663504733504903 10.804169664217405 4.17060825565077 0 0 0
15 1 11.41180592577186 12.580227996531747 5.784545767171852 0 0 0
729 1 15.755815110028866 10.44296606954377 4.24868198052005 0 0 0
16 1 17.311862936514316 12.541706739539608 5.607787188933638 0 0 0
1374 1 22.279478470797024 10.590111937203663 4.3237791923842614 0 0 0
750 1 24.12434483635772 12.181701460964865 5.814782103891144 0 0 0
1375 1 28.211560778216548 11.06763151917395 4.231300008935724 0 0 0
752 1 29.881263000223512 12.39251194008339 5.72041160685645 0 0 0
18 1 2.1159586192866553 15.4910468800454 5.8619677271204536 0 0 0
21 1 8.251475343948327 15.472788415829621 5.407121803268032 0 0 0
22 1 14.59909541866334 15.456026420592877 5.584236972014826 0 0 0
755 1 20.769597386365316 15.167607438201102 5.69681003645893 0 0 0
782 1 25.8170010076717 14.096018507749223 4.332541961023442 0 0 0
760 1 27.369551181565708 15.568194748551338 6.009810405990397 0 0 0
839 1 31.78505010875889 13.959497892146587 4.384745996362778 0 0 0
761 1 33.13738348624784 15.494234434787389 5.885436927858936 0 0 0
65 1 3.4912068786121195 17.09166381225568 4.158124684526095 0 0 0
26 1 5.13486979502672 18.50724260980932 5.901325127593329 0 0 0
29 1 11.4156581186421 18.62113486533529 5.426222850974757 0 0 0
30 1 17.65298874097805 18.47681306758228 5.3987421222185015 0 0 0
1383 1 22.381588101810905 17.060088146255644 4.301149671799409 0 0 0
765 1 23.82863983251272 18.403836979868817 5.84362034384417 0 0 0
768 1 30.1978537297379 18.48235775731106 5.473329015119849 0 0 0
1386 1 34.66583135813314 16.91970344469964 4.125127118006799 0 0 0
33 1 1.9269686844336653 21.774874604876242 5.578418731747274 0 0 0
235 1 6.439109398730905 20.082221338523926 4.338250368431907 0 0 0
37 1 8.387272639399503 21.751164148447256 5.546975798285622 0 0 0
38 1 14.443205060297782 21.47494452087807 5.289193348644781 0 0 0
1203 1 19.327315813009886 20.153303136719135 4.261776634854932 0 0 0
770 1 20.91738101450949 21.571843746108648 5.288514722390228 0 0 0
773 1 27.197838837456114 21.291264802437002 5.407515456932128 0 0 0
757 1 31.85462844945352 20.01324498372692 4.128525947793361 0 0 0
774 1 33.567428857345476 21.640325996360744 5.799020883347739 0 0 0
2810 1 32.112357326873195 22.978547919563162 0.05865234304447742 0 0 1
42 1 5.206931837021781 25.28066507078751 5.736433879249116 0 0 0
44 1 11.385897682695344 24.91162481096103 5.325467544736801 0 0 0
494 1 16.231440557341767 23.34292018360627 4.152361810760508 0 0 0
48 1 17.584075805898923 24.915817702703304 5.685357917046474 0 0 0
778 1 24.09132158088164 24.705452365343223 5.630179097931831 0 0 0
1376 1 28.722665035297883 23.720757548083228 4.317409793569375 0 0 0
780 1 30.593337910306474 24.968327073766652 5.86856818122293 0 0 0
49 1 2.080615156470917 28.041954798342857 5.350304097289786 0 0 0
2073 1 16.4816279508435 26.37613279132077 0.10584401475928945 0 0 1
94 1 6.5689165078906475 26.602553144386835 4.136685805024932 0 0 0
51 1 8.203233536317743 28.11218171821965 5.689607724001798 0 0 0
53 1 14.726460838992638 27.962552514225635 5.679577457592387 0 0 0
781 1 20.772891014612476 27.997494428039918 5.816007449451435 0 0 0
785 1 27.17562567139685 27.82626980027955 5.006777959315891 0 0 0
1328 1 32.292157054772844 26.330106268095335 4.3110544557075094 0 0 0
787 1 33.4516307533286 27.837867354673477 6.0435815063009075 0 0 0
58 1 4.587800481115031 31.14652027173123 5.72815249821643 0 0 0
61 1 9.560787313188731 29.639332403953475 4.209119333901335 0 0 0
52 1 11.358517524320014 30.746205490658003 5.870466310495433 0 0 0
62 1 17.547932249587777 31.361165698714156 5.345668763373247 0 0 0
1379 1 22.456381176672117 29.05321854200818 4.109172102983438 0 0 0
784 1 24.151971691233662 31.081678599471424 5.1869948329321725 0 0 0
795 1 29.751093584248206 31.195961454420168 5.577842083852679 0 0 0
1381 1 34.877176395485336 29.56661978374709 4.60054976122372 0 0 0
57 1 1.8730422445349113 34.64617967980144 5.1617018951060105 0 0 0
201 1 6.353528644709786 32.65381314576232 4.102110597413012 0 0 0
67 1 8.318461089747455 34.195757734692506 5.557641260281277 0 0 0
69 1 14.2344568422173 34.189625673302835 5.409677058615889 0 0 0
791 1 20.89433373273254 34.059774867837056 5.463031124657494 0 0 0
794 1 27.082189765832762 34.804803633956475 5.645168357235527 0 0 0
1141 1 31.776387594453418 32.476064100246155 4.404140596702311 0 0 0
796 1 33.53023422428941 34.09003839567957 6.103630213067013 0 0 0
66 1 4.927867087644618 37.40749087213702 5.507463152918107 0 0 0
730 1 9.76929427178804 35.95840082192051 4.1769590309172555 0 0 0
68 1 11.531949058353861 37.557054298858574 5.307886051837835 0 0 0
71 1 17.61766621995028 37.3385395580566 5.219188896954215 0 0 0
799 1 24.01164646151057 37.30468989460684 5.298408242632129 0 0 0
981 1 28.65024296283266 36.23634376319822 4.2622928074353075 0 0 0
800 1 30.326927760448076 37.61918132069875 5.854365690427517 0 0 0
73 1 2.01774434499151 40.37377870289973 5.9841032987206235 0 0 0
739 1 6.6233361470793755 39.07611951459357 4.1279561286868995 0 0 0
75 1 8.130232631693723 40.37943277351815 5.620052356039062 0 0 0
77 1 14.692897059081352 40.576328291125684 5.222319988001135 0 0 0
803 1 20.682138523568383 40.48425930000854 5.698984213870638 0 0 0
805 1 26.843992048989932 40.78676994315346 5.5071454587472255 0 0 0
823 1 32.18009130226585 38.86570902117812 4.260181452672823 0 0 0
807 1 33.379931257466275 40.94346785960757 5.670388523424444 0 0 0
602 1 3.3675357290761467 42.087604074645824 4.288881198025532 0 0 0
81 1 5.14657698236825 43.727326825690824 5.706724265449767 0 0 0
83 1 11.144157113075394 43.43546271478425 5.886324286345496 0 0 0
85 1 17.78789380178061 43.98937653958352 5.37897161538392 0 0 0
898 1 22.37178793157382 41.8347652765252 4.1043632911530725 0 0 0
808 1 23.86009868273629 43.59192127960801 5.558723606865719 0 0 0
810 1 29.93187996933569 43.734091482946994 5.10491457038743 0 0 0
87 1 2.1460464798131733 46.64233920917631 5.364834254701457 0 0 0
86 1 6.84598263465605 45.19856944946226 4.304417490548617 0 0 0
89 1 8.274407276239316 46.899570139201955 5.839124694460511 0 0 0
306 1 12.834044824069936 45.107176948831395 4.147154785247831 0 0 0
91 1 14.84152993857158 46.82898861487925 5.548911252548685 0 0 0
812 1 21.02615896238115 46.61188294040071 5.475894193157169 0 0 0
815 1 26.837605229327313 46.58988826285828 5.707309838877679 0 0 0
817 1 32.37244151108088 47.16733352999653 5.300867481185174 0 0 0
110 1 3.401486147643817 48.56808966054034 4.142167395843009 0 0 0
95 1 5.045080728797596 50.12050915544449 5.531988281953357 0 0 0
115 1 9.775420473265843 48.6677801890055 4.139741476900323 0 0 0
97 1 11.25802818229776 50.131737767174315 5.8630063131709615 0 0 0
100 1 17.983451715408343 50.376704726040174 5.53871962281194 0 0 0
1385 1 22.27300340737157 48.19356398349807 4.107249553342683 0 0 0
820 1 24.107043233396396 49.527802448878795 5.613184140552736 0 0 0
822 1 29.26520241130542 49.8607613639326 5.178266601388201 0 0 0
93 1 3.6733260475457996 0.8800922807230076 7.117445011274626 0 1 0
203 1 4.98597723968596 2.4796683071969423 8.58161581563406 0 1 0
98 1 9.738026775228844 0.5706221693226098 7.431994725690207 0 1 0
204 1 11.797189231313679 2.2951542638440054 8.87716290643558 0 1 0
107 1 16.006708161295215 0.6283148661222039 7.32378800102598 0 1 0
206 1 17.653117751157346 2.0280073663230245 8.991045318448663 0 1 0
827 1 22.273526400574397 0.9463974342142727 6.823861887358197 0 1 0
915 1 24.23894942150088 1.9743598679483876 8.694475224683169 0 1 0
831 1 28.419515989846747 0.6864778968451788 7.0947889387399155 0 1 0
916 1 30.1976172230816 2.2772049606176354 8.757934120618781 0 1 0
834 1 34.64906687975702 0.9054359008026274 6.880262452588672 0 1 0
211 1 2.0283643376692755 5.175209361567004 9.077173611347634 0 1 0
102 1 6.655817731434036 4.054767068821529 7.016437648636389 0 1 0
214 1 8.301108427743227 5.303467040439418 8.821786857875052 0 1 0
105 1 13.052339540977098 3.66699352739606 7.272888774570635 0 1 0
216 1 14.51804127003868 5.379199646188716 8.972026445169602 0 1 0
726 1 18.962151117746888 3.9071716317518614 7.755839775281091 0 1 0
919 1 20.85732273724687 5.417692585496852 9.141474945531309 0 1 0
835 1 24.917481080795504 4.208123233213827 7.373998302481862 0 1 0
920 1 26.66510711194376 5.179123135911511 8.77406446314114 0 1 0
840 1 31.33558855800911 3.9592274467300337 7.1822059060402665 0 1 0
922 1 33.08647385347391 5.553482050525115 8.978356907277538 0 1 0
2 1 3.5483036128451553 7.6497537822357256 7.423624710126837 0 0 0
118 1 4.814231830082596 9.243070728060665 8.91238394419754 0 0 0
111 1 9.801132208471673 6.667603278400766 7.174335633698502 0 0 0
120 1 11.409483138478492 8.9630431109631 8.875038710731506 0 0 0
8 1 16.159984417130296 7.984397809452739 7.46344548047188 0 0 0
121 1 17.938271897814573 9.288513395355182 8.707773786868255 0 0 0
843 1 22.158606325440324 6.782494170426141 7.2159653804565265 0 0 0
845 1 23.998139074122342 9.4236959726246 8.395311161130651 0 0 0
837 1 28.696564353875342 7.680329654903423 7.513409367031534 0 0 0
847 1 30.134939916351 9.14273222951719 9.327842548017806 0 0 0
745 1 34.40388528142043 7.6737025329916335 7.112087830372347 0 0 0
124 1 2.1070671455553196 12.478897837659186 8.605349137390162 0 0 0
2864 1 35.02862304630856 13.819065302602398 7.5150214015195305 0 0 0
4 1 6.5552938369143385 10.684184168014953 7.388212651931509 0 0 0
126 1 8.074453313407659 12.42988016211725 9.094019966104323 0 0 0
7 1 12.710490767129908 10.91419339636277 7.679132423084811 0 0 0
127 1 14.482269861570686 12.422335157510258 8.911565208935833 0 0 0
1378 1 19.267210928263836 10.941906292633762 7.0378288966372144 0 0 0
851 1 20.963296241270204 12.310416676010048 8.71353158811557 0 0 0
749 1 25.583949758392976 10.80812506981549 7.076059580544022 0 0 0
854 1 27.0785380217634 12.430565178283922 8.637233768399145 0 0 0
753 1 31.320096101007667 10.715843741507555 7.099802651733095 0 0 0
855 1 33.16200838439316 12.02349211901325 8.956456285956289 0 0 0
11 1 3.7752921070476595 14.078366427173941 7.4783724318944085 0 0 0
131 1 5.410661087023133 15.641077387438923 9.217338745104245 0 0 0
132 1 9.913264659729283 14.186092933545071 7.436140349738506 0 0 0
134 1 11.639284194623052 15.607398809666568 8.830577697171172 0 0 0
17 1 15.937164583288189 13.934786836361301 7.068848345054486 0 0 0
135 1 17.678765134653098 15.459859076994762 8.66540005191848 0 0 0
746 1 22.489419477627102 13.668270903749605 6.954929936791207 0 0 0
858 1 23.982776629363652 15.193652305886374 8.714679768754253 0 0 0
751 1 28.884648087110765 13.946703992957115 7.473388380475757 0 0 0
860 1 30.275227222228178 15.25901531035205 9.253360773439601 0 0 0
2622 1 28.104683776116424 0.41710012793466944 -0.1352324155079652 0 1 1
137 1 2.265150431322949 18.512916171943946 8.662497482772705 0 0 0
482 1 0.4770299531762846 16.943325433091765 7.2336860611278775 0 0 0
20 1 6.937592578550979 16.77848162484313 7.279334355041979 0 0 0
139 1 8.37378284337139 18.58863387850539 8.31163734357343 0 0 0
23 1 13.319281096699607 17.161911170282615 7.011241257590177 0 0 0
140 1 14.569868927215072 18.646048175713922 8.62424565255995 0 0 0
123 1 19.137156802256143 16.63138127318848 6.989805477822468 0 0 0
861 1 20.389241480454153 18.243170945867863 8.807332514073451 0 0 0
758 1 25.519591731033913 16.917444557047506 7.3344415668434015 0 0 0
863 1 27.26534604909385 17.98031474664981 8.724217295608709 0 0 0
762 1 31.2582142170347 16.89726382713107 7.462373110552369 0 0 0
864 1 33.01853822214224 18.497308061530944 8.948827363497838 0 0 0
24 1 3.6144577356571688 20.31185917128222 7.0360379029535585 0 0 0
144 1 5.272914590331446 21.434304086826504 9.021151443201074 0 0 0
28 1 9.939079593724573 20.312253891133054 6.82789618086191 0 0 0
146 1 11.22973871609698 21.780497944885514 8.346917464150492 0 0 0
31 1 16.09098293458447 20.233307391008974 6.682155637087582 0 0 0
147 1 17.704630987005057 21.753866825268656 8.475992966255534 0 0 0
764 1 22.0758249544601 19.74483279034251 7.251445181873509 0 0 0
867 1 24.197881699483375 21.2675183137183 8.818814197800696 0 0 0
767 1 28.687390120740602 19.653968521027558 7.312575776162415 0 0 0
869 1 30.469258330783134 21.32796805376148 8.621310331814671 0 0 0
769 1 34.85640407592317 19.934036819696328 7.453098982333409 0 0 0
149 1 1.938953236174373 24.81844254372341 8.733749227567257 0 0 0
36 1 6.818321971284815 23.307384381926354 7.331349123324123 0 0 0
151 1 8.364833469247635 25.090750266338084 8.660035009489672 0 0 0
39 1 12.83401965543001 23.30017650383279 6.754650633965715 0 0 0
152 1 14.347290578652792 24.673213224305 8.733155371019441 0 0 0
727 1 19.11143145259085 23.024988817788245 6.801343335578857 0 0 0
870 1 21.169974758222825 24.613102345166734 8.891490255397805 0 0 0
772 1 25.745754941425517 22.75522737564088 7.306404989198061 0 0 0
874 1 27.143470980407205 24.774378008341245 8.437372193247775 0 0 0
775 1 31.870350655885954 23.043591107802516 7.418971270748989 0 0 0
875 1 33.22078466599717 24.56242586782823 9.12038913697591 0 0 0
41 1 3.2483839565611676 26.52990572430008 7.277390015156418 0 0 0
156 1 4.995732486111678 27.900494856311653 8.5586584483208 0 0 0
43 1 9.884616395238254 26.47801947922032 7.287567322747002 0 0 0
157 1 11.32119521178414 28.345343833576873 9.343372964838633 0 0 0
47 1 15.943976083501711 26.295002372010075 7.351580227341162 0 0 0
161 1 17.715846241743144 28.12766709818552 8.727388774491175 0 0 0
777 1 22.40027924394083 26.42117894587111 7.257052737657594 0 0 0
873 1 24.096900389479867 28.00346854465199 8.431801042686464 0 0 0
779 1 28.497565226869686 26.58644796976412 6.885471370616585 0 0 0
878 1 29.83817488040541 27.996791085781208 8.878712736389376 0 0 0
155 1 1.8819441667065726 31.046121005061057 8.82835759317947 0 0 0
78 1 0.44953596096911486 29.800744120145367 6.677138391046653 0 0 0
50 1 6.698780889096369 29.84469582326879 7.040688491338924 0 0 0
159 1 8.115444936770714 31.618840032786643 8.800543571388374 0 0 0
54 1 12.744734913646555 29.428060607343763 7.340122994245267 0 0 0
160 1 14.555625791524124 31.164956920093275 8.398725118876841 0 0 0
748 1 19.227908655491778 29.725072691479905 6.805816781088347 0 0 0
883 1 20.97567554378277 31.067592834255873 8.43529429208373 0 0 0
783 1 25.608218886180214 29.463843684937487 6.808017914622726 0 0 0
880 1 26.739583004271037 31.103225492398135 8.640618478467536 0 0 0
788 1 31.291437371997503 29.34271872144256 7.08994662558444 0 0 0