
# Import phase coexistance setup
#
read_data           data.coexist_${TEMP}K_${PRES}atm_mW
read_data           data.coexist_277K_${PRES}atm_mW
read_data           data.coexist_277K_-500atm_mW
Reading data file ...
  orthogonal box = (0.38614764 -0.35383154 -0.35383154) to (104.34518 50.534888 50.534888)
  3 by 1 by 2 MPI processor grid
  reading atoms ...
  8505 atoms
  reading velocities ...
  8505 velocities
  read_data CPU = 0.030 seconds

# Define potential
#
pair_style 	    sw
pair_coeff	    * * /data/emrosky-sim/Freezing_Simulations/Melting/mW_fancy/mW.sw mW
Reading sw potential file /data/emrosky-sim/Freezing_Simulations/Melting/mW_fancy/mW.sw with DATE: 2019-02-27

# Reset velocity/set timestep
#
velocity	    all create ${TEMP} 120598 rot yes dist gaussian
velocity	    all create 277 120598 rot yes dist gaussian
timestep	    10.0

# Define output
#
compute	            1 all msd
compute             2 all orientorder/atom nnn NULL degrees 2 4 12
thermo              1000
thermo_style        custom step temp press vol etotal ke pe c_1[4]

# Neighbor lists
#
neigh_modify        delay 0 every 1 check yes

# Set fixes
#
fix                 1 all momentum 10 linear 1 1 1 rescale
fix                 2 all nph iso ${PRES} ${PRES} ${PCOUPL}
fix                 2 all nph iso -500 ${PRES} ${PCOUPL}
fix                 2 all nph iso -500 -500 ${PCOUPL}
fix                 2 all nph iso -500 -500 10000.0
fix                 3 all temp/csvr ${TEMP} ${TEMP} ${TCOUPL} 837492
fix                 3 all temp/csvr 277 ${TEMP} ${TCOUPL} 837492
fix                 3 all temp/csvr 277 277 ${TCOUPL} 837492
fix                 3 all temp/csvr 277 277 5000.0 837492

# Run very short equilibration
#
dump		    1 all atom 50 eq.${NAME}.dump
dump		    1 all atom 50 eq.melt_277K_-500atm_mW.dump
run	            500
Neighbor list info ...
  update every 1 steps, delay 0 steps, check yes
  max neighbors/atom: 2000, page size: 100000
  master list distance cutoff = 6.3065
  ghost atom cutoff = 6.3065
  binsize = 3.15325, bins = 33 17 17
  2 neighbor lists, perpetual/occasional/extra = 1 1 0
  (1) pair sw, perpetual
      attributes: full, newton on
      pair build: full/bin/atomonly
      stencil: full/bin/3d
      bin: standard
  (2) compute orientorder/atom, occasional, copy from (1)
      attributes: full, newton on
      pair build: copy
      stencil: none
      bin: none
Per MPI rank memory allocation (min/avg/max) = 4.603 | 4.604 | 4.604 Mbytes
Step Temp Press Volume TotEng KinEng PotEng c_1[4] 
       0          277    -525.3938    269218.74   -79133.872      7021.62   -86155.492            0 
     500     330.7578   -553.58825    263205.02   -80965.743    8384.3162   -89350.059    17.175803 
Loop time of 1.77485 on 6 procs for 500 steps with 8505 atoms

Performance: 243.401 ns/day, 0.099 hours/ns, 281.714 timesteps/s
99.3% CPU use with 6 MPI tasks x no OpenMP threads

MPI task timing breakdown:
Section |  min time  |  avg time  |  max time  |%varavg| %total
---------------------------------------------------------------
Pair    | 0.94012    | 1.215      | 1.5439     |  21.2 | 68.46
Neigh   | 0.11343    | 0.14601    | 0.16799    |   5.9 |  8.23
Comm    | 0.025087   | 0.37587    | 0.6833     |  41.3 | 21.18
Output  | 0.0078001  | 0.0083391  | 0.00885    |   0.4 |  0.47
Modify  | 0.023445   | 0.024315   | 0.024933   |   0.3 |  1.37
Other   |            | 0.005319   |            |       |  0.30

Nlocal:        1417.50 ave        1440 max        1403 min
Histogram: 1 2 0 1 0 0 1 0 0 1
Nghost:        2215.00 ave        2227 max        2193 min
Histogram: 1 0 1 0 0 0 0 0 2 2
Neighs:        0.00000 ave           0 max           0 min
Histogram: 6 0 0 0 0 0 0 0 0 0
FullNghs:      45431.0 ave       46108 max       44747 min
Histogram: 1 0 1 0 0 2 0 1 0 1

Total # of neighbors = 272586
Ave neighs/atom = 32.050088
Neighbor list builds = 83
Dangerous builds = 0

reset_timestep      0
undump              1
unfix               2
unfix               3


################################################
#######         Run Simulation         #########
################################################

log                 log.run_${NAME}
log                 log.run_melt_277K_-500atm_mW
