

read_data data.ice_${TEMP}K_${PRES}atm_mW group ice
read_data data.ice_277K_${PRES}atm_mW group ice
read_data data.ice_277K_-500atm_mW group ice
Reading data file ...
  orthogonal box = (0.45873487 0.40776433 0.40776433) to (56.811775 50.499356 50.499356)
  3 by 1 by 2 MPI processor grid
  reading atoms ...
  4608 atoms
  reading velocities ...
  4608 velocities
  read_data CPU = 0.009 seconds
read_data data.liq_${TEMP}K_${PRES}atm_mW add append shift ${X_HI} ${YZ_LO} ${YZ_LO} group water
read_data data.liq_277K_${PRES}atm_mW add append shift ${X_HI} ${YZ_LO} ${YZ_LO} group water
read_data data.liq_277K_-500atm_mW add append shift ${X_HI} ${YZ_LO} ${YZ_LO} group water
read_data data.liq_277K_-500atm_mW add append shift 50.4993556727273 ${YZ_LO} ${YZ_LO} group water
read_data data.liq_277K_-500atm_mW add append shift 50.4993556727273 -0.407764327273814 ${YZ_LO} group water
read_data data.liq_277K_-500atm_mW add append shift 50.4993556727273 -0.407764327273814 -0.407764327273814 group water
Reading data file ...
  orthogonal box = (0.45873487 -0.31829955 -0.31829955) to (104.27260 50.499356 50.499356)
  3 by 1 by 2 MPI processor grid
  reading atoms ...
  4608 atoms
  reading velocities ...
  4608 velocities
  read_data CPU = 0.024 seconds

write_data data.icewater_test
System init for write_data ...
WARNING: Communication cutoff is 0.0. No ghost atoms will be generated. Atoms may get lost. (../comm_brick.cpp:167)

# Define potential
#
pair_style sw
pair_coeff * * /data/emrosky-sim/Freezing_Simulations/Melting/mW_fancy/mW.sw mW
Reading sw potential file /data/emrosky-sim/Freezing_Simulations/Melting/mW_fancy/mW.sw with DATE: 2019-02-27

# Delete water and ice atoms that are overlapping
#
delete_atoms overlap 2.5 water ice
System init for delete_atoms ...
Neighbor list info ...
  update every 1 steps, delay 10 steps, check yes
  max neighbors/atom: 2000, page size: 100000
  master list distance cutoff = 6.3065
  ghost atom cutoff = 6.3065
  binsize = 3.15325, bins = 33 17 17
  2 neighbor lists, perpetual/occasional/extra = 1 1 0
  (1) command delete_atoms, occasional, copy from (2)
      attributes: full, newton on
      pair build: copy
      stencil: none
      bin: none
  (2) pair sw, perpetual
      attributes: full, newton on
      pair build: full/bin/atomonly
      stencil: full/bin/3d
      bin: standard
Deleted 711 atoms, new total = 8505

# set timestep
#
timestep 10.0

# Define output
#
compute 1 all msd
thermo 50
thermo_style custom step temp press vol etotal ke pe c_1[4]

# Neighbor lists
#
neigh_modify delay 0 every 1 check yes

# Set fixes
#
fix 1 all momentum 10 linear 1 1 1 rescale
fix 2 all nph iso ${PRES} ${PRES} ${PCOUPL}
fix 2 all nph iso -500 ${PRES} ${PCOUPL}
fix 2 all nph iso -500 -500 ${PCOUPL}
fix 2 all nph iso -500 -500 10000.0
fix 3 all temp/csvr ${TEMP} ${TEMP} ${TCOUPL} 837492
fix 3 all temp/csvr 277 ${TEMP} ${TCOUPL} 837492
fix 3 all temp/csvr 277 277 ${TCOUPL} 837492
fix 3 all temp/csvr 277 277 5000.0 837492


# Fix ice atoms in place
#
velocity ice set 0.0 0.0 0.0
fix 4 ice setforce 0.0 0.0 0.0

# Run 1.0 ns equilibration of water
#
dump 1 all atom 1000 eq.all.${NAME}.dump
dump 1 all atom 1000 eq.all.coexist_277K_-500atm_mW.dump
run 100000
Neighbor list info ...
  update every 1 steps, delay 0 steps, check yes
  max neighbors/atom: 2000, page size: 100000
  master list distance cutoff = 6.3065
  ghost atom cutoff = 6.3065
  binsize = 3.15325, bins = 33 17 17
  1 neighbor lists, perpetual/occasional/extra = 1 0 0
  (1) pair sw, perpetual
      attributes: full, newton on
      pair build: full/bin/atomonly
      stencil: full/bin/3d
      bin: standard
Per MPI rank memory allocation (min/avg/max) = 4.599 | 4.605 | 4.612 Mbytes
Step Temp Press Volume TotEng KinEng PotEng c_1[4] 
       0    126.45899    -1901.783    268092.45   -85890.292    3205.5848   -89095.876            0 
      50    150.71564   -1078.1982    265685.11   -85622.748     3820.462    -89443.21   0.97587099 
     100     161.9599   -349.14865    261994.34   -85330.452    4105.4906   -89435.943    2.2641463 
     150    171.43314   -63.883491    260372.42   -85021.679    4345.6258   -89367.304    3.5514484 
     200    171.82272    128.11567     260468.7   -84813.223    4355.5013   -89168.725    4.7251892 
     250    175.89428   -197.21764    261576.93   -84546.456    4458.7104   -89005.167    5.8522319 
     300    176.79683    -504.3133     262742.7   -84227.395    4481.5891   -88708.985    7.2003533 
     350    187.83462   -686.91917    263317.06   -84032.361    4761.3838   -88793.745    8.6311497 
     400    188.96581   -503.42341     263059.5   -83835.649    4790.0582   -88625.707    10.299963 
     450     192.4688   -346.00557    262803.18   -83592.923    4878.8548   -88471.778      11.9072 
     500    198.25912   -421.81548    263127.61   -83414.767    5025.6325     -88440.4    13.594106 
     550     202.6308   -369.94082    263524.41   -83233.933    5136.4495   -88370.382     15.43379 
     600    202.07767   -477.23135    263988.32   -83058.292    5122.4282   -88180.721    17.293141 
     650    206.55336   -629.63619    264220.43   -82874.389    5235.8815   -88110.271    19.267262 
     700    212.09579   -542.87569    264320.21   -82700.791    5376.3755   -88077.166    21.197117 
     750    213.83096    -531.8954     264407.6   -82560.305    5420.3602   -87980.665    23.245926 
     800    215.63603   -454.76758    264548.12   -82392.158    5466.1165   -87858.275    25.623022 
     850    219.66816   -532.41713    264929.59    -82217.37     5568.326   -87785.696    28.018198 
     900    223.91849   -533.71649    265304.07   -82066.555     5676.067   -87742.622    30.640234 
     950    226.53817     -616.971    265530.28   -81918.333    5742.4727   -87660.806    33.063809 
    1000    226.98937   -361.65621    265562.75   -81795.793    5753.9101   -87549.703    35.418264 
    1050    232.61324   -581.56638    265637.96   -81693.837    5896.4685   -87590.305    38.198419 
    1100    228.53022   -346.83359    265770.66   -81594.707    5792.9687   -87387.676     40.73447 
    1150    237.05437   -615.81463    266046.06   -81492.124    6009.0458   -87501.169    43.508801 
    1200    233.86147   -534.49654    266111.67   -81401.832    5928.1096   -87329.941    46.041744 
    1250    236.37537   -328.40685    266322.45   -81311.574     5991.834   -87303.408    48.520142 
    1300    238.55256   -964.50419    266686.72   -81233.832    6047.0233   -87280.855    51.394043 
    1350     236.3764   -443.45534    266240.31   -81160.062    5991.8602   -87151.923    54.652542 
    1400      245.184   -278.17106    265732.42   -81054.047    6215.1224    -87269.17    57.675344 
    1450    247.71362   -91.211672    265684.34   -80961.885     6279.245    -87241.13    60.400103 
    1500    245.25196   -472.47149    266479.28   -80897.221    6216.8449   -87114.066    63.198402 
    1550    242.70141   -529.54981    267317.85   -80820.931    6152.1917   -86973.123    66.214347 
    1600    249.15058   -703.45651    267544.96   -80743.879    6315.6703    -87059.55    69.273086 
    1650    248.38354   -695.48238    267233.78   -80687.276    6296.2269   -86983.503    71.780462 
    1700    251.22035   -436.75278    266879.04   -80602.141    6368.1367   -86970.277    74.852531 
    1750    249.20297   -437.30397    266875.58   -80555.213    6316.9984   -86872.211    77.753514 
    1800    250.63951   -375.73884    267262.98   -80469.327     6353.413    -86822.74     80.84568 
    1850     256.5121   -545.49134    267741.59   -80392.276    6502.2761   -86894.552    84.268651 
    1900     256.9415   -498.00956    267848.46   -80311.578    6513.1608   -86824.739    87.006263 
    1950    257.37824   -398.03238     267682.6    -80249.09    6524.2318   -86773.322    89.569063 
    2000    262.80321   -399.01131    267487.67   -80170.969    6661.7483   -86832.717    92.344006 
    2050    257.47266   -306.94784    267573.24   -80167.441    6526.6252   -86694.066    95.613161 
    2100    258.52675   -596.50425     267948.7   -80137.743    6553.3452   -86691.088    99.095612 
    2150    257.20986   -461.57143    268105.17   -80080.776    6519.9634    -86600.74    102.33354 
    2200     263.5146   -824.91246    268219.32   -80019.841    6679.7811   -86699.622    105.52037 
    2250    263.37334   -417.75768    268199.09   -79990.757    6676.2004   -86666.958     108.2619 
    2300    260.97698    -338.9003    268305.72   -79905.621    6615.4555   -86521.076    111.20548 
    2350    268.08067   -579.97303    268376.59   -79827.577    6795.5256   -86623.103    114.54452 
    2400    265.78929   -353.95019    268238.94   -79811.802    6737.4418   -86549.244    118.21082 
    2450    267.12353   -459.92879    268271.66   -79768.613    6771.2632   -86539.876    121.21565 
    2500    266.41032    -658.8808    268540.56   -79696.253    6753.1841   -86449.438    124.79251 
    2550    270.32087    -499.7626    268726.44   -79676.047     6852.312   -86528.359    128.34549 
    2600    267.70715   -521.60054    268674.07   -79657.272    6786.0572   -86443.329    132.35161 
    2650     275.9997   -357.43324    268515.83   -79590.389    6996.2635   -86586.653    135.40017 
    2700    274.10537   -533.62343     268634.9   -79563.932    6948.2445   -86512.176    138.76032 
    2750    269.38586   -680.53153    268913.64   -79579.748    6828.6107   -86408.358    142.51597 
    2800    272.79612   -454.17478    268875.97   -79558.275    6915.0567   -86473.332    145.93584 
    2850    269.12395   -396.04898    268748.85   -79574.168    6821.9714    -86396.14    149.23053 
    2900    270.17841   -508.55283    268881.83   -79582.804    6848.7008   -86431.504     151.8265 
    2950    268.75303   -375.11887    269061.73   -79576.374    6812.5692   -86388.944    155.03585 
    3000    271.39563   -605.34906     268994.5   -79533.718    6879.5559   -86413.274    157.91618 
    3050    269.85542   -559.38749    268674.46   -79542.431    6840.5134   -86382.944       160.54 
    3100    271.96437   -417.78981    268413.32   -79534.228    6893.9728   -86428.201    164.06586 
    3150    272.90592   -450.40029    268430.86   -79541.841    6917.8401   -86459.681     166.9692 
    3200    268.69169   -240.23741     268659.2   -79504.031    6811.0142   -86315.045    170.53858 
    3250    273.36639   -702.93563    269030.96   -79476.445    6929.5123   -86405.957    174.49066 
    3300    269.74827   -650.99551    269070.92   -79427.065    6837.7973   -86264.862    178.00181 
    3350    275.23481   -491.09504    269039.04   -79333.592    6976.8745   -86310.467    181.15646 
    3400    272.48093   -410.52756     268988.7   -79383.887    6907.0669   -86290.954    184.25335 
    3450    273.59668    -407.9811    268774.11   -79407.659    6935.3498   -86343.009    187.53016 
    3500    271.76588   -365.73438    268774.97    -79397.44    6888.9412   -86286.381    190.86869 
    3550    275.04885   -570.40799    269054.62   -79355.868    6972.1606   -86328.029    194.53969 
    3600    273.38845   -668.99052    269160.07   -79362.131    6930.0714   -86292.202    197.55113 
    3650    278.38469   -442.81591    268832.09   -79376.817    7056.7202   -86433.537    201.20604 
    3700    275.20888   -360.67998    268708.61     -79370.2    6976.2172   -86346.417    204.52275 
    3750      277.323   -626.52955    269055.43   -79386.922    7029.8077    -86416.73    207.28497 
    3800    275.49265   -546.46995    269383.79   -79383.337    6983.4105   -86366.748    210.32261 
    3850    273.28303   -433.10486     269403.3    -79370.92    6927.3993   -86298.319    213.28251 
    3900    275.05575   -445.83097    269166.57   -79386.506    6972.3356   -86358.842    216.47565 
    3950    273.35738   -540.89907    269114.61   -79337.818    6929.2839   -86267.102    219.78291 
    4000    276.41889   -356.16303    269060.45   -79350.089    7006.8895   -86356.978    222.50924 
    4050    273.04105   -584.44668    269494.02   -79330.778    6921.2652   -86252.043    226.18838 
    4100    270.06903   -629.56371    269668.27   -79321.856    6845.9282   -86167.784    230.08301 
    4150    279.45583   -455.87569    269427.64   -79288.123    7083.8725   -86371.996    232.54084 
    4200    279.46322   -408.00998    269275.32   -79288.772    7084.0598   -86372.832    235.43201 
    4250    279.25894   -613.93857     269138.2   -79267.447    7078.8814   -86346.329    239.12024 
    4300    272.83952   -562.19678    268962.85   -79280.427    6916.1567   -86196.584    242.83476 
    4350    275.87839   -574.45284    268997.41   -79298.591    6993.1884   -86291.779    246.37435 
    4400    274.96075   -468.40845    269233.96   -79288.721    6969.9275   -86258.648    250.22416 
    4450     280.0177   -498.93333    269582.59   -79230.116    7098.1151   -86328.231    253.60348 
    4500    277.47401   -763.15385    269799.76   -79178.788    7033.6356   -86212.423     257.4317 
    4550     277.3121    -598.4502    269496.49   -79132.884    7029.5315   -86162.415    261.55702 
    4600    281.72251   -721.62988    269095.02   -79140.302    7141.3299   -86281.632    264.61599 
    4650    278.17387   -505.19643    268993.13   -79081.932    7051.3761   -86133.308    268.10944 
    4700    281.86844   -363.57679    269142.29   -79071.955    7145.0292   -86216.985    272.11841 
    4750    280.11393   -370.53664     269409.9   -79086.083    7100.5543   -86186.637    276.77598 
    4800    278.40418   -631.87262    269578.03   -79088.134    7057.2143   -86145.348    280.50664 
    4850    278.68289   -323.07329    269371.89   -79099.272    7064.2792   -86163.551    284.24983 
    4900    281.79516   -248.77406    269130.72   -79100.743    7143.1716   -86243.915    288.28443 
    4950    278.17477   -235.47538    269312.95   -79109.924     7051.399   -86161.323    292.29837 
    5000    275.65755   -219.94416    269738.97   -79120.928    6987.5906   -86108.518    295.94245 
    5050     277.9907   -686.92183    270330.54   -79128.376    7046.7331   -86175.109    300.63216 
    5100     277.6021    -767.2859    270256.28   -79138.234    7036.8824   -86175.116    305.08122 
    5150    278.93111   -458.41272    269489.87   -79166.466    7070.5712   -86237.037    308.41286 
    5200    274.99468   -277.10105    268792.79   -79172.714    6970.7875   -86143.501    311.06886 
    5250    280.18597   -304.08013    268906.78   -79155.285    7102.3806   -86257.665    313.89151 
    5300    280.67001   -615.93285    269445.75   -79139.872    7114.6503   -86254.522    317.83286 
    5350    279.54252   -677.06726    269720.51   -79103.002    7086.0699   -86189.072    321.60004 
    5400    279.65534   -549.70922    269528.13   -79158.237    7088.9297   -86247.167    324.48739 
    5450    279.57182   -512.65955    269196.65   -79146.033    7086.8127   -86232.846    327.85898 
    5500    277.95265   -542.55138    269139.29   -79143.857    7045.7685   -86189.626    330.35627 
    5550    278.76825     -455.019    269169.21   -79193.862     7066.443   -86260.305    332.40497 
    5600    276.67324   -540.65082    269209.85    -79249.73     7013.337   -86263.067    335.55131 
    5650    278.68101   -536.38272    269240.47   -79329.648    7064.2315    -86393.88    339.90302 
    5700    272.01067   -532.48107    269297.83   -79302.745    6895.1464   -86197.891    343.56902 
    5750    270.98469   -283.30416    269208.03   -79282.665    6869.1391   -86151.804    346.52916 
    5800    275.93445    -473.5563    269079.02   -79284.245    6994.6096   -86278.855    349.85744 
    5850    281.09593   -596.94374    268722.98   -79224.822    7125.4469   -86350.269    353.60702 
    5900     278.8421   -425.33978    268707.11   -79257.327    7068.3151   -86325.642     356.7703 
    5950    275.58495   -370.27198    269144.48   -79262.372    6985.7503   -86248.123    359.89466 
    6000    275.63482   -525.46738    269518.96   -79260.334    6987.0144   -86247.348    364.42173 
    6050    274.70658    -335.1482    269291.53   -79200.385    6963.4844    -86163.87    367.51159 
    6100    277.11399   -277.40606    269167.52   -79210.032    7024.5094   -86234.541    369.71352 
    6150    277.01034   -284.94312    269464.91   -79194.748    7021.8821    -86216.63    373.04414 
    6200    276.13437   -684.64393     269763.1   -79212.643    6999.6774   -86212.321    376.46888 
    6250    281.12801   -354.24589    269340.23   -79195.137    7126.2601   -86321.397    378.97112 
    6300    278.89618   -258.70061    268956.06   -79165.469    7069.6859   -86235.155     381.2373 
    6350     274.6203   -212.74518    269032.05   -79141.048    6961.2974   -86102.346    384.66983 
    6400    269.92529   -386.09199    269543.18   -79193.295    6842.2844   -86035.579     388.9932 
    6450    279.05701   -408.56997    269883.91   -79201.347    7073.7627   -86275.109    391.93864 
    6500    274.73453   -697.18959    269988.63   -79147.035    6964.1929   -86111.228    394.47698 
    6550    283.77226   -661.87781    269690.95   -79134.146    7193.2887   -86327.435    397.28723 
    6600    277.14469   -530.45512    269383.53   -79149.817    7025.2878   -86175.105    400.16033 
    6650    275.64893   -351.91073    269294.53   -79190.324     6987.372   -86177.696    403.25486 
    6700    280.57796   -339.20358    269185.24   -79208.622    7112.3169   -86320.939    405.77096 
    6750    279.73139   -587.58669    269277.21   -79230.939    7090.8576   -86321.797    409.81053 
    6800    274.52285   -501.84546    269264.92   -79199.602    6958.8272   -86158.429    412.74625 
    6850    279.86048   -574.69697    269576.56   -79196.807    7094.1299   -86290.937    415.75427 
    6900    275.87115   -573.93063     269778.5   -79156.939    6993.0051   -86149.944    418.09522 
    6950    277.50302   -292.02026     269607.4   -79154.349    7034.3711    -86188.72    421.10883 
    7000    274.84426   -661.40312    269689.34   -79125.124    6966.9747   -86092.099     424.2532 
    7050    275.05624   -713.34035    269462.75   -79106.534    6972.3481   -86078.882    426.65043 
    7100    280.01743   -470.72445    269042.12     -79110.5    7098.1083   -86208.608     429.7187 
    7150    276.14316   -107.01435     268925.8   -79164.091       6999.9   -86163.991    432.71416 
    7200    280.67143   -731.47952     269429.4   -79205.407    7114.6863   -86320.094    436.54804 
    7250    280.41805   -804.20703     269776.1   -79158.439    7108.2635   -86266.703    440.17741 
    7300    280.43382   -448.69308    269676.76   -79137.918    7108.6633   -86246.581    442.22891 
    7350    279.95704   -505.49183    269487.77   -79128.481    7096.5774   -86225.058    444.19079 
    7400    283.79391   -383.67853    269295.42   -79094.361    7193.8376   -86288.199    447.70942 
    7450    286.81893   -709.52061    269313.16   -79070.592    7270.5181    -86341.11    450.59348 
    7500    281.52226   -322.98442    269320.14   -79137.427    7136.2539   -86273.681     453.6799 
    7550    276.74966   -670.73762     269372.5   -79171.672    7015.2743   -86186.946    458.04452 
    7600    279.87979   -343.76211    269242.71    -79123.46    7094.6192   -86218.079    461.14427 
    7650    280.43159   -386.58375    269282.04   -79131.906    7108.6067   -86240.513     464.8066 
    7700    282.76818   -414.35902    269368.12   -79125.771    7167.8365   -86293.608    468.87447 
    7750     277.9664   -441.11109    269737.02   -79092.731    7046.1171   -86138.848    473.52911 
    7800    277.07973   -628.01443    270014.27   -79125.593    7023.6411   -86149.234    476.81605 
    7850    280.38448   -586.05245     269792.5   -79104.257    7107.4124   -86211.669    479.33165 
    7900    276.68565   -388.35676    269492.81   -79137.424    7013.6515   -86151.075    481.70978 
    7950    281.03347   -416.86159    269496.48   -79186.105    7123.8636   -86309.969    485.02074 
    8000    274.77834   -381.90157    269645.92   -79166.284    6965.3036   -86131.588    488.71338 
    8050    279.66527   -510.09228    269930.38   -79150.084    7089.1814   -86239.265    491.13932 
    8100     275.8402   -869.19195    270026.95   -79188.477    6992.2205   -86180.698    495.64902 
    8150    280.58363   -507.97563    269446.59   -79141.197    7112.4608   -86253.658    497.31552 
    8200    278.86345   -436.98818    268962.07    -79171.08    7068.8563   -86239.936    499.08102 
    8250    278.85965   -454.16155    268982.04    -79169.66      7068.76    -86238.42    502.22068 
    8300    280.18959   -467.92166    269242.44   -79150.874    7102.4724   -86253.346    505.53552 
    8350    279.95952   -518.20276    269572.22   -79208.652    7096.6403   -86305.292    509.35013 
    8400    280.87153   -669.21494    269809.03   -79215.565    7119.7587   -86335.323    512.29579 
    8450    279.31189   -575.65691    269757.11   -79215.504    7080.2236   -86295.728     516.4608 
    8500    273.12982   -326.70522     269519.4   -79198.053    6923.5157   -86121.569    519.55379 
    8550    274.51505   -511.59663    269318.87   -79225.721    6958.6295    -86184.35    521.45552 
    8600    273.78382   -347.89344    269243.58   -79221.857    6940.0937   -86161.951    524.35417 
    8650    275.22988    -492.0419    269451.17   -79218.156    6976.7495   -86194.906    527.53505 
    8700    279.81771   -787.96968    269770.63   -79211.954    7093.0455   -86304.999    530.81093 
    8750    280.05939   -696.40198    269495.14   -79182.904    7099.1719   -86282.075     532.2389 
    8800    280.79585   -362.71254     269007.9   -79202.674    7117.8404   -86320.514    535.41456 
    8850    277.37904   -463.12627    269094.93   -79235.001    7031.2281   -86266.229    540.42414 
    8900    273.16245   -178.57373    269468.56   -79253.267    6924.3426   -86177.609    544.56789 
    8950    276.99907   -665.34609    269984.38   -79226.587    7021.5965   -86248.183    547.96749 
    9000    275.80006   -685.84604    269974.26   -79213.209    6991.2031   -86204.412    551.01514 
    9050    279.27352   -512.67106     269539.7    -79210.22     7079.251   -86289.471    554.06479 
    9100    274.15324   -237.77895    269164.44   -79265.954    6949.4579   -86215.412    556.30762 
    9150    279.06992   -499.92579    269100.06   -79233.311    7074.0901   -86307.401    559.00783 
    9200    273.38017   -503.78192    269250.05    -79237.79    6929.8616   -86167.651    561.80136 
    9250    276.49608    -443.6366     269387.5   -79271.343    7008.8463   -86280.189    564.50577 
    9300    271.30663   -585.60369    269501.88   -79313.117    6877.2998   -86190.417    568.17695 
    9350    274.09251   -742.35927    269127.89   -79295.517    6947.9187   -86243.436    570.99768 
    9400    276.98132   -401.89237    268689.07   -79287.695    7021.1466   -86308.841    573.59744 
    9450    282.21745   -534.22405    268817.31   -79250.721     7153.876   -86404.597    575.78929 
    9500    275.85857   -442.49499    269374.87   -79264.467    6992.6861   -86257.153    579.43461 
    9550    277.07951   -676.34414    269872.54   -79244.998    7023.6355   -86268.633    582.94575 
    9600    276.36925    -657.1966    269721.11   -79224.022    7005.6311   -86229.653     585.9087 
    9650    279.43812   -445.36181    269101.79   -79263.755    7083.4234   -86347.179    587.56455 
    9700    279.92345   -537.62991    268616.13   -79271.546    7095.7259   -86367.272    588.51807 
    9750    276.93868   -105.16171    268571.91   -79276.263    7020.0656   -86296.328    590.86506 
    9800    274.83822   -603.72907    269398.37   -79277.334    6966.8215   -86244.155    595.41939 
    9850    275.57203   -874.68385    269878.12   -79268.289    6985.4228   -86253.712    598.49318 
    9900    272.62338   -474.45388    269843.69   -79269.129     6910.678   -86179.807    600.38055 
    9950     279.8182   -397.27657     269484.9   -79255.723     7093.058   -86348.781    601.98386 
   10000    278.68614   -734.92633    269196.17   -79252.423    7064.3615   -86316.784    604.53266 
   10050    275.76664   -339.80825    268802.32   -79254.906    6990.3559   -86245.262    607.59523 
   10100     275.1178   -426.91696    268853.63   -79226.498    6973.9085   -86200.407    610.65501 
   10150    278.05612    -376.3214    269289.96    -79210.17    7048.3913   -86258.562     613.1095 
   10200    273.53456   -497.44116    269632.88   -79193.161    6933.7751   -86126.936    617.30313 
   10250    276.24564   -631.52336    269776.05   -79195.453    7002.4977   -86197.951    621.01348 
   10300    275.98956   -536.59281    269708.63   -79173.679    6996.0065   -86169.685    623.77722 
   10350    275.09283   -487.02992    269515.83   -79171.102    6973.2756   -86144.377    626.00998 
   10400    276.10103   -432.40504    269348.18    -79233.98    6998.8322   -86232.812    630.12702 
   10450    276.88386   -551.12061    269443.51     -79208.2    7018.6761   -86226.876    632.40666 
   10500    275.43935   -606.25133    269480.81   -79202.667    6982.0595   -86184.727    634.58047 
   10550    277.63407    -577.5224    269348.58   -79186.003     7037.693   -86223.696    638.18004 
   10600    274.15816   -443.37136    269017.22   -79181.836    6949.5828   -86131.419    640.04801 
   10650    275.19074   -338.88326    269062.08   -79165.451    6975.7573   -86141.208    643.11442 
   10700    274.72432   -472.90083    269478.77   -79186.023    6963.9342   -86149.957    646.35984 
   10750    274.24581   -728.03829    269789.84    -79153.42    6951.8046   -86105.225     649.9002 
   10800    275.30431   -455.82089    269877.42    -79166.98    6978.6363   -86145.616    654.28166 
   10850    284.59692   -575.46037    269820.12    -79117.38    7214.1929   -86331.573    657.78193 
   10900    282.23701   -482.26658    269541.73   -79123.338     7154.372    -86277.71    661.84895 
   10950    281.46132   -318.64639    269154.57   -79138.536    7134.7091   -86273.245    665.00764 
   11000    273.34717   -381.79885    269193.25   -79172.142     6929.025   -86101.167    669.70232 
   11050     277.9344   -472.04348    269414.35   -79202.941    7045.3059   -86248.247    673.31195 
   11100      277.204   -645.08436    269821.22   -79183.414    7026.7912   -86210.205    676.09058 
   11150    279.29584   -783.65348    269810.18   -79187.379    7079.8169   -86267.196    679.24418 
   11200     276.2122   -406.22824    269213.08   -79181.158    7001.6503   -86182.808    682.12066 
   11250    279.02836   -635.67921    268902.68    -79217.34    7073.0365   -86290.377    684.70168 
   11300    280.23597   -301.88804    268746.13    -79210.83    7103.6479   -86314.478    688.55984 
   11350    274.06235   -358.76982    269139.28   -79240.624    6947.1541   -86187.778    694.11691 
   11400    271.82597   -483.52392    269598.01   -79235.496    6890.4644   -86125.961    698.87916 
   11450    277.30724   -860.18332    269775.34   -79282.893    7029.4081   -86312.301    701.46439 
   11500    270.96532   -542.15479    269309.09   -79275.441    6868.6482   -86144.089    704.27807 
   11550    271.05573   -345.08884    268769.76   -79302.064    6870.9398   -86173.004    706.43538 
   11600    275.37309   -316.88861    268791.86   -79287.407    6980.3799   -86267.787     709.7135 
   11650    274.46054   -454.86976    269189.62   -79267.239    6957.2476   -86224.486    713.49572 
   11700    278.54238    -526.8722     269762.7   -79230.289    7060.7174   -86291.006     719.4342 
   11750    276.43725   -651.59598     269958.6   -79245.064    7007.3549   -86252.419    722.81794 
   11800     276.2966   -462.89121    269550.19   -79264.072    7003.7897   -86267.862     724.2753 
   11850    276.91109   -321.59402    269208.69   -79197.809    7019.3663   -86217.176    727.08242 
   11900    277.14406   -448.96157     268983.8   -79281.881    7025.2717   -86307.153    729.78066 
   11950    276.60133   -403.49251    268677.57   -79274.683    7011.5141   -86286.197     731.2975 
   12000    277.49361   -455.08088    268695.47   -79284.684    7034.1325   -86318.817    733.22592 
   12050    273.33562    -520.0339    269286.68   -79266.777    6928.7324   -86195.509    738.15683 
   12100    278.87159   -634.53356     269815.3   -79231.431    7069.0627   -86300.493    741.47697 
   12150    280.02442   -827.76768    269869.22   -79221.474    7098.2854    -86319.76     743.9341 
   12200    276.24638   -350.10411    269562.49   -79218.136    7002.5166   -86220.652    746.27262 
   12250    274.94745   -520.29566    269570.97   -79180.952    6969.5903   -86150.542    749.83792 
   12300    279.27787   -529.09972    269496.82   -79196.842    7079.3613   -86276.204    752.32868 
   12350    277.13333   -293.30303    269315.75   -79231.849    7024.9998   -86256.849    755.68631 
   12400     277.3623   -488.88418     269258.4   -79266.267    7030.8039   -86297.071     758.8589 
   12450    277.24923   -385.66657    269322.85   -79241.872    7027.9376   -86269.809    761.41338 
   12500    276.47188   -370.56958     269480.6   -79210.749    7008.2328   -86218.982    764.28868 
   12550    274.61023   -680.75011    269596.04   -79258.958    6961.0421       -86220    766.78079 
   12600    278.41352   -505.96157     269618.6   -79206.732    7057.4509   -86264.183     767.9739 
   12650    276.48244   -244.74561    269409.36   -79223.018    7008.5005   -86231.518    769.84022 
   12700    279.39252   -515.16312    269128.47   -79201.291    7082.2677   -86283.558    772.51348 
   12750    275.15922   -226.23847    268644.52   -79256.417    6974.9584   -86231.376    775.06228 
   12800    276.28466   -516.89957    268795.85   -79275.626    7003.4871   -86279.113    777.68641 
   12850    275.05652   -457.35403    269250.63   -79263.514     6972.355   -86235.869    780.02864 
   12900    275.11717   -653.65847    269648.52   -79241.766    6973.8925   -86215.658     783.4004 
   12950    279.94006   -456.87374    269740.67    -79251.29     7096.147   -86347.437    785.87067 
   13000    279.32962   -779.59774     269754.3   -79228.195    7080.6731   -86308.868    788.82244 
   13050    277.91726   -577.37742    269319.63   -79218.832    7044.8715   -86263.703    790.10562 
   13100    279.90884   -485.99647    268756.07   -79198.813    7095.3557   -86294.169    792.04623 
   13150    279.50211   -381.33426    268670.25    -79228.54    7085.0456   -86313.585    794.78613 
   13200    279.49454   -493.39347    269155.82    -79245.39    7084.8537   -86330.244    797.87132 
   13250    274.59541   -422.76272    269850.05   -79287.629    6960.6664   -86248.295    801.89456 
   13300    273.04384   -734.31721    270164.55   -79275.682    6921.3362   -86197.018    805.45805 
   13350    269.73662   -487.91461    269644.47   -79247.508    6837.5019    -86085.01    806.67266 
   13400    273.15531   -257.97119     269093.2   -79277.097    6924.1617   -86201.259    807.07851 
   13450    273.48035    -310.6087    268887.67   -79301.602     6932.401   -86234.003     808.1584 
   13500    278.20376   -114.74558    269028.52   -79275.084    7052.1339   -86327.218    811.46515 
   13550    271.81719    -624.2242    269670.35    -79344.84    6890.2419   -86235.082    815.58576 
   13600     275.4349   -731.04691    269887.48    -79348.52    6981.9465   -86330.466    819.35008 
   13650    268.07665   -467.48418    269537.76   -79352.917    6795.4238   -86148.341    820.02913 
   13700    271.52268   -324.99143    269033.87   -79351.798    6882.7765   -86234.574      820.069 
   13750    273.06851   -290.41174     268839.1    -79335.88    6921.9615   -86257.842    821.88194 
   13800    271.55719   -482.08396    268887.16    -79378.26    6883.6512   -86261.911    824.42249 
   13850    273.33076   -655.63113    269090.97    -79369.52    6928.6092    -86298.13    827.78289 
   13900    272.90871   -375.14253    269186.88   -79339.873    6917.9108   -86257.784    830.49079 
   13950    273.30745   -515.86863    269241.47   -79353.557    6928.0184   -86281.576    832.68238 
   14000    274.48677   -320.94087    269046.13   -79308.631    6957.9127   -86266.543    833.91776 
   14050    277.90695     -445.381    269182.44   -79302.077      7044.61   -86346.687    837.16223 
   14100    272.10523   -427.64884    269398.74   -79288.902    6897.5435   -86186.446    841.05973 
   14150    276.94217   -473.74388    269464.28   -79289.255     7020.154   -86309.409    843.64726 
   14200    275.21504   -523.71951    269499.15   -79277.832    6976.3733   -86254.206    846.57959 
   14250    275.94278   -336.96737    269478.64   -79204.896    6994.8208   -86199.716    850.85739 
   14300    279.44812   -550.30526    269615.19   -79231.662    7083.6769   -86315.339    852.42181 
   14350    278.25309   -544.57377    269702.34   -79228.811    7053.3843   -86282.195    854.89652 
   14400    275.60796   -413.40626    269412.85   -79210.677    6986.3334   -86197.011    856.88969 
   14450    272.68766   -419.08722    269347.82   -79253.993    6912.3074     -86166.3    858.61938 
   14500      275.155   -702.54539    269416.52   -79255.353    6974.8515   -86230.204    860.27903 
   14550    274.96831   -391.76092    269182.45   -79304.928     6970.119   -86275.047    860.48845 
   14600    274.36017   -681.47516    269357.13   -79288.765    6954.7036   -86243.469    861.71656 
   14650    276.98246   -655.23499    269389.28   -79300.383    7021.1755   -86321.559    865.22863 
   14700    269.86104   -414.29535    269167.88   -79267.382    6840.6558   -86108.038    866.63954 
   14750    277.43856   -440.60344    269083.55   -79277.035     7032.737   -86309.772    868.31995 
   14800    274.04567   -534.37735    269195.35   -79327.498    6946.7313   -86274.229    871.10904 
   14850    270.74023    -321.0261    269132.55    -79341.46    6862.9423   -86204.403    874.60668 
   14900    275.82542   -388.81381     269009.5   -79347.037    6991.8458   -86338.883    877.68904 
   14950    271.60414   -790.09718    269118.55   -79417.177    6884.8413   -86302.018    880.75053 
   15000    271.47013   -229.45661    269100.96   -79408.864    6881.4444   -86290.309    883.05693 
   15050    273.33384   -500.12218    269634.29   -79404.409    6928.6873   -86333.096    886.91781 
   15100    269.05254   -582.58052    269866.97   -79371.529    6820.1615    -86191.69    891.35873 
   15150    271.78182   -645.58872    269464.16   -79384.678    6889.3453   -86274.023    892.99631 
   15200    274.21271   -356.48467    268820.86   -79379.327    6950.9655   -86330.292    895.19071 
   15250    273.97325   -268.05817    268775.05   -79390.134    6944.8955    -86335.03    897.86162 
   15300    278.30337   -550.32174     269100.5   -79350.948    7054.6589   -86405.607    902.11616 
   15350    275.57374   -553.89547    269357.42   -79349.627    6985.4659   -86335.093    904.84345 
   15400    277.10185   -476.65781     269280.2    -79317.98    7024.2018   -86342.182     907.0789 
   15450    274.76194     -484.873    269254.75    -79323.83    6964.8878   -86288.717    908.60271 
   15500    277.82276   -671.73532    269392.05     -79310.3    7042.4761   -86352.776    912.02352 
   15550    272.19397   -526.30708    269311.63   -79310.452    6899.7928   -86210.244    914.95077 
   15600    272.55763   -264.75688    269117.18   -79310.354    6909.0112   -86219.365    917.31085 
   15650    278.31253   -588.47509    269123.45   -79322.008    7054.8911   -86376.899    920.34054 
   15700    275.89083   -507.52115    269200.19   -79293.785    6993.5039   -86287.288    923.84195 
   15750    276.99014   -435.17547    269327.12   -79299.221      7021.37   -86320.591    927.24743 
   15800    275.98994   -249.00035     269198.8   -79298.454    6996.0161    -86294.47     930.3222 
   15850    273.11637   -513.61888     269233.8   -79277.083    6923.1747   -86200.257     931.6651 
   15900    277.05944   -326.70582    269238.82   -79284.565    7023.1266   -86307.691    934.89014 
   15950    275.30501   -684.73862    269529.31   -79252.216     6978.654    -86230.87    938.55148 
   16000    278.46101     -579.623    269732.15   -79220.961    7058.6549   -86279.616    939.65626 
   16050    279.34102   -516.45538    269621.56   -79184.335    7080.9621   -86265.297    942.31976 
   16100    276.13276   -539.80394    269270.69   -79174.815    6999.6366   -86174.452    943.59078 
   16150    277.29139   -507.58839    269191.91   -79171.562    7029.0065   -86200.569    943.20128 
   16200    283.27909   -508.86554    269445.55   -79128.694    7180.7875   -86309.482    946.61257 
   16250    278.75995   -547.48685    269571.88   -79109.438    7066.2327    -86175.67    949.90598 
   16300    278.75364    -257.5512    269674.12   -79131.162    7066.0726   -86197.234    953.32604 
   16350     279.7855   -638.78615    270009.25   -79152.802    7092.2292   -86245.031    956.78103 
   16400    276.89539    -737.6758    269901.56   -79134.952    7018.9683   -86153.921    959.23166 
   16450    280.01574   -612.42419    269426.21   -79175.594    7098.0654   -86273.659    960.12878 
   16500    278.03131    -322.5661    268954.46   -79152.035    7047.7625   -86199.797    962.63896 
   16550    281.64489   -322.81235    268792.01   -79121.097    7139.3623   -86260.459    965.90913 
   16600    276.87268   -365.06341    269246.59   -79099.239    7018.3927   -86117.632    970.40325 
   16650    280.74189   -663.16404    270009.22   -79043.251    7116.4724   -86159.723    975.03231 
   16700     276.8604   -755.34472    270030.77    -79119.53    7018.0813   -86137.611    977.10685 
   16750    276.53422   -384.97554    269224.72   -79145.871     7009.813   -86155.684    978.64048 
   16800     279.8957   -479.11467    268798.67   -79171.462    7095.0226   -86266.485     979.3411 
   16850    278.61168   -295.21017    268994.72   -79207.709    7062.4743   -86270.183    980.84721 
   16900    279.86026   -695.27184    269701.38   -79199.199    7094.1242   -86293.323    985.06197 
   16950    279.69348   -553.05508    269919.79   -79155.945    7089.8966   -86245.842     987.7546 
   17000    276.55688   -435.24718    269665.44   -79188.512    7010.3875     -86198.9    989.16178 
   17050    280.02982   -368.36761     269181.4    -79168.55    7098.4224   -86266.972    994.03737 
   17100    279.12404   -380.96704    268989.21   -79170.754    7075.4619   -86246.215    996.96863 
   17150    276.60809   -435.16491    269259.13   -79117.658    7011.6856   -86129.344    1001.2196 
   17200    278.56282    -532.7873     269681.6   -79079.496    7061.2357   -86140.732    1005.5568 
   17250    277.81196    -562.4687    270119.23   -79077.526    7042.2023   -86119.729    1010.1638 
   17300    279.56268   -581.69178    270249.26   -79028.049     7086.581    -86114.63    1012.8835 
   17350    281.45422   -607.33564    270177.69   -79073.213    7134.5291   -86207.742    1016.1453 
   17400    278.54042   -643.79182    270045.05   -79095.602    7060.6677    -86156.27    1018.8036 
   17450     280.8217   -621.62673    269661.89   -79062.295    7118.4955   -86180.791    1021.9196 
   17500    279.57759   -612.03063    269260.91   -79122.024    7086.9589   -86208.983    1023.3054 
   17550    275.95291   -244.39924    268832.05   -79161.456    6995.0775   -86156.533    1023.6859 
   17600    274.43521   -421.57609     268893.2    -79138.93    6956.6055   -86095.535     1027.137 
   17650    280.92702    -544.5607    269255.93   -79093.376    7121.1653   -86214.541    1030.7213 
   17700    278.59804   -640.07256    269815.86   -79068.844    7062.1284   -86130.972    1033.2545 
   17750    282.01938   -479.24215    269764.15   -79066.627    7148.8552   -86215.482    1036.3199 
   17800    281.14679   -565.36951    269568.75   -79062.602    7126.7362   -86189.338    1040.4052 
   17850    281.88933   -311.66704    269381.37   -79097.517    7145.5586   -86243.075    1043.3548 
   17900    279.38659   -587.49344    269318.27   -79130.277    7082.1173   -86212.394    1046.8075 
   17950     278.0161   -448.16211    269349.07   -79146.949     7047.377   -86194.326    1050.4068 
   18000    276.31346   -643.36925    269410.78   -79200.139    7004.2169   -86204.356    1053.0292 
   18050    278.22217   -675.78788    269369.46   -79234.045    7052.6005   -86286.645    1055.5761 
   18100    276.33925   -553.62254    269136.62   -79266.416    7004.8707   -86271.287    1058.1135 
   18150    279.60633   -235.87792    268776.53   -79296.948    7087.6873   -86384.635    1059.0177 
   18200    278.73432     -517.111       268926   -79242.812    7065.5831   -86308.395    1062.5681 
   18250    277.98859   -448.26734    269310.54   -79194.001    7046.6797    -86240.68    1068.0252 
   18300    281.13045   -507.62594    269551.66    -79174.15    7126.3221   -86300.472     1071.729 
   18350    277.26348   -491.77242    269681.71   -79166.707     7028.299   -86195.006    1075.5643 
   18400    276.64852   -419.10355    269508.16    -79169.64    7012.7105    -86182.35    1077.8219 
   18450    281.76522   -483.05895    269519.57   -79195.955    7142.4128   -86338.367    1081.4549 
   18500     278.1643    -593.6754    270001.26   -79160.795    7051.1336   -86211.928    1085.8721 
   18550    275.31523   -274.40047    269992.34   -79132.716    6978.9131   -86111.629    1087.4074 
   18600    279.13926   -725.67205    269891.67   -79101.872    7075.8478    -86177.72    1089.6458 
   18650    278.30286   -510.64304    269395.82   -79127.097     7054.646   -86181.743    1091.7658 
   18700    275.00176   -530.86162     269005.4   -79139.991    6970.9669   -86110.958    1093.9723 
   18750    280.33968   -249.46739     268694.7   -79076.881    7106.2769   -86183.158    1096.3899 
   18800    284.28299   -427.31148    268951.53   -79095.438     7206.235   -86301.673     1100.555 
   18850    281.38981   -689.66842    269703.94   -79123.294    7132.8966   -86256.191    1106.1205 
   18900     277.2856   -557.00379    269909.49   -79130.854    7028.8595   -86159.713    1111.2073 
   18950    278.02057   -339.30636     269743.3   -79164.764    7047.4903   -86212.254     1115.553 
   19000    277.71137   -470.74347    269390.07   -79139.018    7039.6523   -86178.671    1119.1203 
   19050    276.52803   -458.44772    269069.45   -79113.712     7009.656   -86123.368     1121.939 
   19100    282.56077   -420.17244    269110.28   -79162.085    7162.5789   -86324.664    1127.4788 
   19150    276.55944   -514.27494     269360.5   -79127.834    7010.4523   -86138.287    1131.7574 
   19200    277.37443   -736.14519    269544.19   -79147.888    7031.1114       -86179    1136.5787 
   19250    279.82454   -514.56262    269325.41   -79136.465    7093.2187   -86229.683    1140.9414 
   19300    277.82614   -186.96699    269137.71   -79158.656    7042.5616   -86201.218    1143.2044 
   19350    277.03455   -180.01763    269237.85   -79193.585    7022.4959   -86216.081    1148.0161 
   19400    279.82249    -603.5836    269462.96   -79204.202    7093.1667   -86297.369     1150.567 
   19450    275.34502    -713.0444    269596.46   -79220.553    6979.6681   -86200.221    1154.3271 
   19500    278.15814   -668.11089    269507.86   -79285.538    7050.9775   -86336.516    1157.8291 
   19550    277.43927    -413.2945    269217.69   -79222.147     7032.755   -86254.902    1159.0363 
   19600    284.44309   -518.83356    269388.56   -79212.095    7210.2935   -86422.389    1164.0156 
   19650    275.76882   -478.71479     269902.6   -79168.152    6990.4111   -86158.563    1170.0796 
   19700    275.24923   -492.04665    270108.99   -79114.433    6977.2402   -86091.674    1173.7639 
   19750    276.23378   -482.96055    269909.24   -79131.487    7002.1973   -86133.684    1175.1169 
   19800    277.10785   -688.92439    269368.42   -79156.471    7024.3539   -86180.825    1177.7838 
   19850    283.08424    -239.3334    268661.92   -79147.807    7175.8482   -86323.655    1179.0291 
   19900    277.93459   -327.18927    268537.57   -79090.828    7045.3107   -86136.138    1181.1673 
   19950     283.1188   -575.06872    269083.09   -79096.703    7176.7244   -86273.427    1185.9152 
   20000    276.53336   -479.16184    269843.21   -79060.665    7009.7912   -86070.457    1191.0894 
   20050    278.83366   -756.21464    270388.57   -79089.877    7068.1011   -86157.978    1195.4624 
   20100     276.6387   -485.60482    270450.51   -79113.031    7012.4616   -86125.493    1198.6063 
   20150    272.76653   -648.17305    270326.24   -79138.496    6914.3067   -86052.803     1201.406 
   20200    280.59594   -688.27638    269805.53   -79136.972    7112.7728   -86249.744    1203.5666 
   20250    277.53027   -363.39539    269087.78   -79160.819    7035.0617    -86195.88    1204.2031 
   20300    279.63726   -202.55144    268746.41   -79146.414    7088.4714   -86234.885    1205.9518 
   20350    279.88745   -530.90484    269296.15   -79136.522    7094.8135   -86231.336    1212.6799 
   20400    280.84672   -721.48544     269676.7   -79106.637    7119.1298   -86225.767    1217.1797 
   20450     283.5104    -765.8316     269648.1   -79063.919    7186.6509   -86250.569    1220.2641 
   20500    281.59184   -423.99172     269228.2   -79064.936    7138.0178   -86202.954    1221.7264 
   20550    279.93953   -442.03762    269036.13   -79055.916    7096.1335    -86152.05    1224.6599 
   20600    280.86248   -483.74885    269293.65   -79046.834    7119.5294   -86166.363    1228.4596 
   20650    277.68252   -348.81373     269669.2    -79007.19     7038.921   -86046.111    1231.6975 
   20700    275.56869   -421.18405    270094.93   -79078.502     6985.338    -86063.84    1236.3112 
   20750    275.84058   -508.49406    270173.35   -79066.362    6992.2301   -86058.592    1241.9859 
   20800    274.48932   -476.22179    269920.77   -79046.215    6957.9771   -86004.192    1245.6439 
   20850    276.68574    -436.1868    269574.58   -79052.077    7013.6539   -86065.731    1247.9133 
   20900    279.93467   -435.38409    269306.89   -78983.005    7096.0103   -86079.015    1249.5866 
   20950    278.69672   -340.88073    269326.42   -79037.257    7064.6299   -86101.887    1252.2406 
   21000    276.04324   -519.47047    269643.44   -79062.352    6997.3674   -86059.719     1257.581 
   21050    280.76002   -585.85286    269961.11   -79015.843     7116.932   -86132.775    1264.3557 
   21100      279.159   -545.05072    269735.57    -78999.09    7076.3481   -86075.438    1268.3342 
   21150    280.74203   -529.56706    269202.75   -79042.007     7116.476   -86158.483    1269.7262 
   21200    282.98107   -378.69202    268906.46     -79067.1    7173.2331   -86240.333    1273.0426 
   21250    276.76914   -341.31505    268872.79   -79106.503    7015.7681   -86122.271    1275.9169 
   21300    280.91709    -536.4912     269219.3   -79100.776    7120.9136   -86221.689    1280.9412 
   21350    275.10655   -648.58769    269530.97   -79158.664    6973.6233   -86132.287    1285.4752 
   21400    274.71931    -318.1557    269518.32   -79151.531    6963.8071   -86115.338    1288.1765 
   21450    278.04422   -510.79937    269447.12   -79136.035    7048.0897   -86184.125    1291.9306 
   21500    278.57387    -423.1624    269357.89   -79107.062    7061.5158   -86168.578    1294.7167 
   21550    277.32834   -562.91645    269427.02    -79114.74     7029.943   -86144.683    1296.9224 
   21600    280.32759   -707.55418    269646.61    -79164.69    7105.9704    -86270.66    1301.5338 
   21650    277.21221   -543.04237    269713.01   -79175.986    7026.9992   -86202.986    1305.1825 
   21700    277.71187   -389.46088    269229.15   -79146.846    7039.6651   -86186.512    1306.6515 
   21750     276.5181   -266.89676    269054.04   -79155.741    7009.4044   -86165.146    1310.2191 
   21800    275.85728   -451.85074    269353.33    -79163.65    6992.6534   -86156.304    1315.6305 
   21850    280.65772   -749.96224    269673.86   -79165.152    7114.3389   -86279.491    1321.2109 
   21900    277.83319   -518.12229     269775.9   -79149.402    7042.7404   -86192.142    1324.5662 
   21950    275.24398   -425.94016    269648.28   -79158.398    6977.1069   -86135.505    1327.3628 
   22000    281.33521   -479.63521    269299.14   -79118.607    7131.5125   -86250.119    1330.2872 
   22050    280.88102   -502.05571    269064.27   -79112.761    7119.9991    -86232.76    1332.8839 
   22100    274.55688   -313.21955    269258.41   -79089.825    6959.6899   -86049.515    1335.4312 
   22150    279.22767   -510.12239    269578.94   -79078.281    7078.0889   -86156.369    1339.9482 
   22200    283.15092    -579.0896    269821.33   -79066.927    7177.5385   -86244.466    1342.5035 
   22250    278.09267   -603.79027     269955.1   -79083.048    7049.3178   -86132.366    1348.1915 
   22300    282.06138   -760.69999    269697.25   -79111.823      7149.92   -86261.743    1351.0363 
   22350    276.32788   -235.69668    269212.93    -79123.35    7004.5826   -86127.932    1351.8522 
   22400     280.2245   -560.18552    269145.25   -79146.128    7103.3573   -86249.485    1354.2851 
   22450    282.50931    -737.3466    269149.19   -79119.167    7161.2744   -86280.442    1356.5494 
   22500    277.06683   -315.12141    269165.67   -79048.753    7023.3141   -86072.067    1359.4508 
   22550    281.63829   -598.80216    269601.29   -79082.054    7139.1952   -86221.249    1364.0322 
   22600     282.0587   -665.40714    269911.32   -79108.198     7149.852    -86258.05    1368.9777 
   22650    279.06965   -626.77162    269914.88   -79090.844    7074.0833   -86164.927    1371.0895 
   22700    277.97996   -393.36968    269697.02   -79106.699    7046.4607    -86153.16    1373.8727 
   22750    283.44484   -596.56923    269483.42   -79080.028    7184.9891   -86265.017    1376.9598 
   22800    276.93684   -264.75079    269377.37   -79095.686    7020.0189   -86115.705    1379.6524 
   22850     282.1899   -502.66949    269459.25   -79084.868    7153.1779   -86238.046    1382.9318 
   22900    287.40009   -518.10934     269588.8    -79038.42    7285.2498    -86323.67    1386.4008 
   22950     282.4717   -743.19854    269773.57   -79053.184    7160.3211   -86213.505    1389.6668 
   23000    277.97258   -638.80736    269991.65   -79108.618    7046.2738   -86154.891    1394.5586 
   23050    277.04881   -680.94552    269915.32   -79093.804    7022.8573   -86116.662    1398.8336 
   23100    276.85465   -416.40608    269363.39   -79143.596    7017.9355   -86161.532    1401.1177 
   23150    281.91186   -473.50632    268887.97   -79151.519    7146.1298   -86297.649    1404.0766 
   23200    280.83403    -447.1409    268704.73    -79114.56    7118.8082   -86233.368    1406.0418 
   23250    283.00581   -570.12075    269093.82   -79102.236    7173.8601   -86276.096    1410.3693 
   23300    279.16866   -394.47709    269713.46    -79114.78     7076.593   -86191.373    1415.7929 
   23350    274.83747   -690.32051    270451.68   -79121.919    6966.8025   -86088.721    1421.9805 
   23400    273.56097   -566.05148    270502.67   -79095.443    6934.4446   -86029.888    1427.5161 
   23450    280.70175   -496.51219    269741.19   -79124.142     7115.455   -86239.597    1426.7817 
   23500    280.04541   -451.97703    268917.31   -79155.486    7098.8175   -86254.304    1425.7809 
   23550    275.39162   -354.06162    268754.97    -79155.35    6980.8494     -86136.2    1428.3784 
   23600    276.52486   -636.01101    269149.81   -79163.837    7009.5759   -86173.413    1433.6075 
   23650    278.79259   -684.75043    269610.56   -79189.584      7067.06   -86256.644    1439.7251 
   23700     279.9082   -667.95455    269818.95   -79202.387    7095.3393   -86297.726    1444.8034 
   23750    279.59572   -533.87574    269569.04    -79202.82    7087.4184   -86290.238    1448.2601 
   23800    276.47268   -150.01261    269083.32   -79181.162     7008.253   -86189.415    1449.9455 
   23850    280.24215   -392.36204    269023.74   -79146.106    7103.8047   -86249.911    1452.1415 
   23900    278.57106   -518.31397    269391.86   -79160.625    7061.4445   -86222.069    1456.9274 
   23950    277.56676   -728.58785    269692.04   -79196.349    7035.9866   -86232.336    1461.3137 
   24000    276.02061   -483.16228     269377.5   -79182.789    6996.7937   -86179.583    1463.3821 
   24050    276.08153    -335.6814    268932.26   -79175.696     6998.338   -86174.034    1468.9872 
   24100    277.56873    -307.3371    269003.03   -79183.881    7036.0366   -86219.918    1473.5081 
   24150    278.75312   -538.84733    269548.46   -79152.476    7066.0595   -86218.536    1479.2819 
   24200    277.82899   -523.54066    270072.33   -79146.876    7042.6339    -86189.51    1483.4023 
   24250    280.42557   -810.52106    270390.99   -79083.155    7108.4541   -86191.609    1487.9312 
   24300    280.91202   -647.93425    269972.51   -79115.717     7120.785   -86236.502    1486.4957 
   24350    276.46326    -511.0187    269258.01   -79153.889    7008.0143   -86161.903    1487.9919 
   24400    280.01166   -209.40145    268712.04   -79172.858    7097.9621    -86270.82     1491.494 
   24450    277.53271   -353.91643    268995.44   -79182.874    7035.1234   -86217.998    1497.8596 
   24500    280.59046    -529.1218    269548.34    -79180.96    7112.6339   -86293.594    1503.7189 
   24550    277.34532    -564.6317     269804.6   -79206.285    7030.3735   -86236.658    1506.7582 
   24600    277.01156   -720.66284    269596.37   -79230.727     7021.913    -86252.64    1509.7818 
   24650    277.40397   -422.26101     269041.6    -79229.78    7031.8603    -86261.64    1510.1856 
   24700    278.60249   -451.03707    268784.77   -79236.968    7062.2412   -86299.209    1512.0918 
   24750    276.06041   -659.39059    269089.45   -79219.884    6997.8025   -86217.686    1517.3891 
   24800    276.08326   -241.68339     269577.2   -79237.125    6998.3817   -86235.507    1522.3709 
   24850    274.27364    -710.2261    270082.85   -79224.577    6952.5099   -86177.087    1527.5141 
   24900    275.48941    -611.3072    269838.74   -79259.643    6983.3283   -86242.972    1528.9974 
   24950    278.94417   -424.62695    269176.51   -79267.267    7070.9023   -86338.169    1528.1285 
   25000    278.40622   -314.08606    268741.53   -79244.984    7057.2661    -86302.25     1527.884 
   25050    276.01014   -300.87274     269010.6   -79227.287    6996.5281   -86223.815    1531.8383 
   25100    278.04703   -594.33354    269713.05   -79243.204     7048.161   -86291.365    1538.3092 
   25150    274.96444   -811.49381    270248.29   -79209.867     6970.021   -86179.888    1544.2117 
   25200    278.28183   -657.10745    270013.91   -79172.478    7054.1128   -86226.591    1545.8124 
   25250    276.80004   -294.69479    269084.36   -79165.687    7016.5513   -86182.238    1546.5246 
   25300    276.83716   -143.61041    268559.54   -79140.022    7017.4923   -86157.515    1547.1324 
   25350    279.79219   -399.94497    268960.96   -79147.037    7092.3987   -86239.436    1552.9955 
   25400    275.01241   -748.48143    269795.47   -79165.466     6971.237   -86136.704     1557.595 
   25450    278.00995   -773.60106    270129.08   -79185.712    7047.2211   -86232.934    1561.7028 
   25500    271.38932   -763.40603    269926.54   -79200.812     6879.396   -86080.208    1561.8037 
   25550    277.92434   -448.04707    269314.04   -79210.683    7045.0509   -86255.734    1560.5836 
   25600    280.94866   -412.83655    268758.18   -79228.868    7121.7138   -86350.582    1560.9041 
   25650    280.59535   -254.34524    268625.91    -79218.58    7112.7578   -86331.337    1563.6947 
   25700    278.68475   -621.28989    269241.48   -79184.318    7064.3263   -86248.644    1568.6551 
   25750    277.65785   -631.66889    269846.79   -79193.704    7038.2957       -86232    1574.1179 
   25800    276.76274   -557.82714    269924.25    -79171.68    7015.6056   -86187.285    1577.9483 
   25850    277.28012   -532.24828    269715.16   -79170.878    7028.7206   -86199.599    1579.9217 
   25900     279.4336   -555.35929    269590.96   -79203.066    7083.3089   -86286.375    1581.5693 
   25950    276.40133   -410.46515    269168.64   -79227.603    7006.4444   -86234.047    1582.0238 
   26000    279.28159   -400.81357    268878.26   -79260.972    7079.4556   -86340.428    1584.4978 
   26050    274.25541    -420.6134    268767.01   -79259.056     6952.048   -86211.104    1586.4275 
   26100    274.74837    -537.2264    269045.15   -79274.315    6964.5439   -86238.859    1590.5616 
   26150    277.06728   -424.18118    269497.59   -79211.678    7023.3254   -86235.003    1596.0278 
   26200    274.56126   -634.61508     269828.3   -79199.237    6959.8009   -86159.038     1599.044 
   26250    273.65559    -396.5017    269876.48   -79163.129    6936.8431   -86099.972    1601.4876 
   26300    273.73681   -620.26535    269595.29   -79165.127    6938.9021   -86104.029     1602.018 
   26350    279.85185   -356.28627    269043.67   -79122.843    7093.9111   -86216.754     1603.397 
   26400    278.50397   -388.86487    269042.02   -79126.831    7059.7439   -86186.575    1607.5816 
   26450    281.81865   -787.53793     269402.1   -79167.899     7143.767   -86311.666     1612.386 
   26500     275.5918   -475.96378    269529.07   -79138.585    6985.9238   -86124.509    1615.5226 
   26550    279.33028   -470.71346    269561.71   -79182.777    7080.6898   -86263.466    1616.4478 
   26600    275.04529   -451.02368    269568.08   -79162.335    6972.0706   -86134.406    1619.0076 
   26650    275.99617    -366.9466     269372.8   -79197.047    6996.1742   -86193.221    1620.8139 
   26700    275.46582   -406.67074    269416.99   -79242.871    6982.7304   -86225.602    1622.1863 
   26750    277.25468   -571.26492    269584.54   -79271.392    7028.0759   -86299.468    1621.8347 
   26800    273.63238   -517.00958    269584.88   -79271.632    6936.2549   -86207.887    1623.1779 
   26850    274.57194   -712.92884    269366.41   -79305.422    6960.0715   -86265.493    1625.6175 
   26900    273.22804   -244.58028    268952.41   -79331.756    6926.0053   -86257.762    1625.2397 
   26950    275.30738   -406.61978    268897.16   -79327.306     6978.714    -86306.02    1627.0417 
   27000     274.9242   -525.29543    269226.58   -79342.434    6969.0009   -86311.434     1631.155 
   27050    273.15662   -844.40174     269548.1   -79332.852    6924.1949   -86257.047    1634.8513 
   27100    272.61227   -357.47134    269187.42   -79368.432    6910.3962   -86278.829    1634.9577 
   27150    274.05657   -477.20713    268950.48   -79279.476    6947.0075   -86226.483    1636.3973 
   27200     274.9331   -480.85299    268737.83   -79280.902    6969.2266   -86250.129    1638.8477 
   27250    275.90266   -161.00076    268818.34   -79285.608    6993.8037   -86279.411    1641.7427 
   27300    279.38999   -498.59796    269338.35   -79269.408    7082.2034   -86351.611    1645.9742 
   27350    272.86107   -573.95877    269577.25   -79268.104     6916.703   -86184.807    1650.4132 
   27400    276.44167   -648.61597    269573.17   -79232.918    7007.4671   -86240.385    1654.6443 
   27450    277.67602   -619.47073    269325.51   -79197.357    7038.7563   -86236.113    1658.0767 
   27500    277.07402   -393.67952       269005   -79165.112    7023.4964   -86188.608    1661.2657 
   27550    276.22444   -444.29353    268919.69   -79152.669    7001.9606    -86154.63    1663.2851 
   27600    281.02022   -601.51449    268925.32   -79137.975    7123.5278   -86261.503    1665.8271 
   27650    275.28328   -419.58966    269078.66   -79165.759    6978.1033   -86143.862    1668.3995 
   27700    276.16292   -364.51404     269319.7   -79174.554    7000.4011   -86174.955    1672.5511 
   27750     279.1108   -575.66021    269511.13   -79143.077    7075.1263   -86218.204    1677.1338 
   27800    276.92533   -598.78679    269299.31   -79198.227    7019.7273   -86217.954    1676.3118 
   27850    281.17381   -474.96383    268870.14   -79174.805    7127.4212   -86302.226    1676.1197 
   27900    280.01024   -327.39061    268845.41   -79104.005    7097.9261   -86201.931    1677.5259 
   27950    275.51538   -331.38301    269588.66   -79109.023    6983.9866   -86093.009    1682.4332 
   28000    275.12787   -585.85643    270400.43   -79104.079    6974.1637   -86078.243    1687.8552 
   28050    278.49989   -716.05099    270481.11   -79085.931    7059.6405   -86145.571    1690.3993 
   28100     280.9756   -460.55237    269876.83   -79084.415    7122.3967   -86206.812    1689.6711 
   28150    277.46022   -517.47421    269231.45   -79113.632    7033.2861   -86146.918    1689.7932 
   28200    279.80462   -493.51596    268857.98   -79144.909    7092.7137   -86237.622     1690.771 
   28250     278.5391    -454.1782    268992.44   -79090.423    7060.6343   -86151.057    1693.6112 
   28300    278.97884   -541.07341    269510.83   -79096.249    7071.7812   -86168.031    1697.0094 
   28350    276.16469    -511.5918     270035.9   -79119.185    7000.4458    -86119.63     1702.009 
   28400    275.72263   -716.27031    269962.04   -79108.481    6989.2402   -86097.722    1704.0743 
   28450    281.07474     -423.487    269290.84   -79109.304    7124.9098   -86234.214    1703.9284 
   28500    284.08157   -171.47884     268851.6   -79067.137    7201.1295   -86268.267    1704.0888 
   28550    285.01893   -468.15813    269357.49   -79034.487    7224.8902   -86259.378    1708.2721 
   28600    277.85392    -549.5019    270199.84   -78988.801    7043.2658   -86032.066    1713.8484 
   28650    279.77529   -1003.9942    270663.67   -78990.791    7091.9703   -86082.761    1717.1086 
   28700    278.77555    -630.4528     270200.1   -78944.386    7066.6281   -86011.014    1717.6496 
   28750    277.69482   -412.14698    269329.23    -78980.67    7039.2329   -86019.903    1718.8847 
   28800    284.87654   -294.93143    268745.74   -79065.546    7221.2809   -86286.827    1719.2297 
   28850    279.10012   -429.43046    268811.31   -79078.241    7074.8556   -86153.097     1723.804 
   28900    277.68317   -271.20934    269294.19   -79080.283    7038.9375    -86119.22    1729.0909 
   28950    278.59279   -740.29806    269907.17   -79087.739    7061.9953   -86149.735    1734.0152 
   29000    274.45161   -414.83231    270016.11   -79121.497    6957.0213   -86078.518    1736.7994 
   29050    273.78677   -600.47169     269913.5   -79121.872    6940.1683    -86062.04    1739.2799 
   29100     282.0106   -352.31267    269622.08   -79113.298    7148.6328   -86261.931     1741.723 
   29150    279.62216   -437.77068    269578.86   -79119.876    7088.0885   -86207.965    1744.3688 
   29200    278.58148   -657.77752    269596.85   -79111.903    7061.7087   -86173.612    1746.3887 
   29250    284.41917   -641.05495    269475.74    -79072.47     7209.687   -86282.157    1747.3816 
   29300    280.87037   -410.23337    269550.32   -79116.463    7119.7293   -86236.192    1750.1174 
   29350    280.05723   -448.30688    269733.76   -79145.313    7099.1171    -86244.43    1753.1325 
   29400    279.18981   -733.57967    269922.93   -79162.884    7077.1291   -86240.013    1757.1122 
   29450    274.41413   -808.42191    269794.16   -79164.973    6956.0714   -86121.044     1760.664 
   29500    280.37484    -538.7355    269352.74   -79176.647    7107.1681   -86283.815      1762.06 
   29550    279.50124   -342.90829    269084.12   -79145.616    7085.0234   -86230.639    1760.4086 
   29600    274.90888    -461.3604    269552.43    -79118.68    6968.6125   -86087.292    1762.8754 
   29650    279.23346   -520.19885    269951.55   -79100.892    7078.2356   -86179.128    1768.9617 
   29700    277.08233    -598.5144    269782.02   -79135.942    7023.7069   -86159.649      1770.89 
   29750    275.99967   -440.20516     269346.3   -79118.888    6996.2629   -86115.151    1770.6387 
   29800    278.76712   -376.63506    269064.46   -79098.016    7066.4144   -86164.431    1771.1517 
   29850    281.46408   -299.83387    269065.12   -79093.245    7134.7792   -86228.024    1774.8547 
   29900    275.35311   -403.74574    269343.01   -79052.737    6979.8733   -86032.611    1780.2825 
   29950    283.91782    -732.0426    269764.78   -79047.956    7196.9784   -86244.935    1784.7132 
   30000     278.6869   -870.53974    269805.84   -79077.099    7064.3809    -86141.48    1786.5446 
   30050    280.28046     -477.468    269366.57   -79109.639    7104.7758   -86214.415    1786.1173 
   30100    283.02035   -434.27683    269033.77   -79074.143    7174.2287   -86248.372    1784.4264 
   30150    280.67939   -482.86631    269167.76   -79073.792    7114.8883    -86188.68    1784.1361 
   30200    277.24896     -400.073    269667.36   -79069.066    7027.9308   -86096.997    1790.3873 
   30250    276.92002   -335.39796    270188.65   -79069.727    7019.5926    -86089.32    1795.1157 
   30300    283.15635   -919.99844    270629.71   -79046.705    7177.6761   -86224.381    1800.1845 
   30350    276.43634   -601.69922    270206.55   -79064.573     7007.332   -86071.905    1800.5757 
   30400    277.97538   -360.10627    269274.85    -79134.44    7046.3448   -86180.785    1797.3223 
   30450    279.95282   -428.38911    268896.17   -79159.088    7096.4704   -86255.558    1797.6072 
   30500    284.18373   -485.64263    268836.53   -79116.286     7203.719   -86320.005    1799.9818 
   30550    279.65908   -584.10194    269140.69   -79107.696    7089.0246   -86196.721    1801.9754 
   30600    278.59009   -339.61959    269495.86   -79140.139    7061.9268   -86202.066    1803.9663 
   30650    280.88378    -492.8774    269860.61   -79165.447    7120.0693   -86285.517    1806.4244 
   30700    277.48417   -1007.3518    270000.36   -79156.647    7033.8932    -86190.54    1806.9741 
   30750    277.71086   -602.02895    269483.68   -79195.783    7039.6395   -86235.422    1805.5908 
   30800      277.007   -439.89737    268934.45    -79246.19    7021.7976   -86267.988    1803.1731 
   30850    277.25771   -309.41835    268850.72   -79266.903    7028.1526   -86295.056    1803.5034 
   30900    273.49167   -346.28289    269086.33   -79249.626    6932.6881   -86182.314    1806.3111 
   30950    274.39592   -555.00419    269482.08   -79258.112    6955.6096   -86213.721    1811.4522 
   31000     276.6696   -713.82306    269807.15   -79258.734    7013.2448   -86271.979    1812.9483 
   31050    274.45767   -648.90269     269621.5   -79245.508    6957.1751   -86202.683    1813.8956 
   31100    273.70833    -603.3475    269001.96   -79229.543      6938.18   -86167.723    1811.8431 
   31150    278.85832   -328.22418     268537.8    -79206.08    7068.7263   -86274.806    1812.8683 
   31200    279.83148   -518.86268    268753.07   -79191.078    7093.3947   -86284.473    1815.0634 
   31250    280.05035   -599.35768    269098.93   -79186.343    7098.9427   -86285.285    1820.2849 
   31300     273.3783   -680.57869    269583.87   -79177.016    6929.8141    -86106.83    1823.6949 
   31350    275.35288   -736.42014    269799.69   -79194.865    6979.8674   -86174.732    1825.1267 
   31400    273.89667   -314.34058    269502.44   -79220.365    6942.9542   -86163.319    1823.3004 
   31450    274.08984   -518.19367    269240.37   -79204.389    6947.8508    -86152.24    1824.7662 
   31500    274.71047    -307.9699    268964.45   -79197.218    6963.5831   -86160.801     1824.329 
   31550    276.49286   -466.47572    269204.41   -79211.177    7008.7646   -86219.941    1826.0703 
   31600    282.20556   -481.45966    269485.26   -79223.887    7153.5747   -86377.461    1828.5315 
   31650    280.82168   -504.02871    269659.48   -79164.271    7118.4952   -86282.766    1829.3065 
   31700    277.61869   -557.82461    269857.29   -79177.796    7037.3031   -86215.099    1830.9398 
   31750    276.48196   -707.52627    269744.38   -79174.607    7008.4883   -86183.095    1832.3138 
   31800     275.1429   -301.82477    269319.77    -79175.45    6974.5447   -86149.995    1832.1155 
   31850    277.52791   -514.50627    269219.51    -79215.51    7035.0018   -86250.511    1831.8075 
   31900    276.35862   -650.07787    269319.34   -79240.642    7005.3619   -86246.004    1832.2869 
   31950    275.73756   -257.97317    269243.87   -79206.609    6989.6186   -86196.228    1834.1961 
   32000    278.61791   -465.43656    269278.75   -79235.657    7062.6322   -86298.289     1835.689 
   32050    276.00753   -486.68793    269440.38   -79246.681    6996.4621   -86243.143     1838.837 
   32100    275.04945   -492.27886    269576.29   -79229.896    6972.1759   -86202.072    1840.9613 
   32150     280.2015   -548.85436    269373.26   -79273.859    7102.7741   -86376.634    1843.7765 
   32200    274.76113   -474.77579    269333.42   -79239.848    6964.8673   -86204.715    1848.1307 
   32250    276.13357   -321.44173    269449.96   -79222.358     6999.657   -86222.015    1851.0674 
   32300    276.59262   -590.84487    269700.66   -79239.784    7011.2934   -86251.077    1852.1299 
   32350    276.31315   -717.01409    269648.25   -79229.646    7004.2091   -86233.855    1852.2092 
   32400    275.81711    -291.8526    269068.11   -79239.083    6991.6352   -86230.718    1851.2614 
   32450    279.13191   -460.61319    268857.61   -79280.269    7075.6615   -86355.931     1854.623 
   32500    280.11297   -523.48813    269123.04   -79257.424    7100.5301   -86357.954    1859.3277 
   32550    274.29615   -453.99801    269511.48   -79262.436    6953.0807   -86215.516    1861.9365 
   32600    274.41702   -443.80359    269805.73   -79207.531    6956.1446   -86163.676    1864.3739 
   32650    277.62366   -733.13865    269797.26   -79206.042    7037.4291   -86243.471    1868.5162 
   32700    272.73057   -614.07578    269404.86   -79212.316    6913.3951   -86125.711    1869.2731 
   32750    276.14769   -203.47843    269212.44    -79198.76    7000.0151   -86198.775    1870.5532 
   32800     274.5618   -515.51692    269489.69   -79222.047    6959.8144   -86181.861    1875.5699 
   32850    278.61357   -577.30331    269584.21   -79209.093    7062.5222   -86271.615    1875.7301 
   32900    279.38725   -497.44356    269441.88   -79233.119    7082.1339   -86315.253    1878.4144 
   32950    272.84545   -446.33198    269367.61    -79265.75    6916.3071   -86182.057    1880.7693 
   33000     275.4656   -633.16768    269341.81   -79216.892    6982.7249   -86199.617    1882.5875 
   33050    275.60427   -531.41679    269273.26   -79213.685      6986.24   -86199.925    1884.2978 
   33100    274.50543   -409.31098    269244.24   -79227.231    6958.3857   -86185.617    1883.2449 
   33150    274.37736   -511.68786    269123.12   -79234.008    6955.1392   -86189.148    1885.0387 
   33200    275.95694   -227.75681    269113.68   -79265.818    6995.1796   -86260.997    1887.5128 
   33250    273.92401   -496.26126    269254.62   -79270.204    6943.6473   -86213.852    1888.2463 
   33300    274.74378   -529.00785    269178.04   -79258.269    6964.4276   -86222.697    1888.2977 
   33350    279.77561   -384.54829    269309.21   -79298.767    7091.9784   -86390.746    1890.3021 
   33400    273.09829   -660.20398    269727.23   -79257.411    6922.7162   -86180.127    1893.3226 
   33450    275.38394   -551.84014    270002.54   -79231.947    6980.6547   -86212.602    1898.5433 
   33500    276.15389   -689.92489     269722.8   -79263.819    7000.1721   -86263.991    1899.8424 
   33550    276.53056   -371.52854    268878.11   -79245.157    7009.7201   -86254.877    1897.7694 
   33600    278.12801   -289.23697    268477.08   -79264.127    7050.2138   -86314.341      1899.77 
   33650    271.28068   -271.59596    268862.47   -79266.397    6876.6421   -86143.039    1906.4113 
   33700    277.74274   -557.17728    269818.53   -79229.581    7040.4475   -86270.028    1913.3931 
   33750    279.19472   -772.16334    270457.37   -79200.255    7077.2536   -86277.508     1920.134 
   33800    271.95613   -674.37044    270155.69    -79208.12    6893.7638   -86101.884    1922.2852 
   33850    274.76875   -195.04246    269311.89   -79218.113    6965.0606   -86183.174    1922.9274 
   33900    280.68567   -480.08399    268785.47   -79240.392    7115.0474   -86355.439    1922.7018 
   33950    276.48089   -508.07366    268756.81   -79257.044    7008.4611   -86265.505    1925.3383 
   34000    280.24364    -372.4321    268912.95   -79224.098    7103.8423    -86327.94    1932.4286 
   34050    274.02636   -527.83158    269322.27    -79235.17    6946.2418   -86181.412    1935.8452 
   34100    273.19445   -380.19556    269720.73   -79248.794    6925.1539   -86173.948    1939.7937 
   34150    279.52628    -809.0949    269974.06   -79250.987    7085.6582   -86336.645    1942.9032 
   34200    277.03254   -602.59473    269748.14   -79261.112    7022.4448   -86283.557      1943.48 
   34250    277.13854   -619.00589    269200.85   -79258.037    7025.1318   -86283.169    1944.1936 
   34300    278.26758   -407.60663    268638.72   -79212.766    7053.7517   -86266.518    1944.3166 
   34350    278.95962   -572.15502    268716.03   -79232.548     7071.294   -86303.842    1944.5835 
   34400     276.3726   -622.95172    269215.83   -79272.378    7005.7162   -86278.094    1949.5054 
   34450    276.82118   -758.51795    269692.47   -79223.274    7017.0871   -86240.361    1953.7298 
   34500    273.48206     -591.839    269707.71   -79260.081    6932.4445   -86192.525    1957.4372 
   34550    277.16345   -533.48023    269244.45   -79310.239    7025.7633   -86336.002     1956.753 
   34600    273.50799   -396.13557    268656.57   -79340.516    6933.1017   -86273.617    1955.5185 
   34650     279.1286   -407.22324    268495.22   -79322.947    7075.5775   -86398.524    1954.3038 
   34700    278.61724    -593.8727    268951.02   -79290.074    7062.6151   -86352.689    1956.9176 
   34750    275.23393    -681.2185    269656.84    -79306.34    6976.8523   -86283.192    1963.6714 
   34800    274.66971   -214.78073    269916.32   -79271.233      6962.55   -86233.783    1968.1159 
   34850    276.26741    -851.3157    269918.34   -79297.761    7003.0497    -86300.81    1968.3751 
   34900    276.86034   -359.06309    269073.39   -79307.842    7018.0797   -86325.921    1966.6135 
   34950    277.31312   -146.89791    268274.54   -79276.212    7029.5571    -86305.77     1965.783 
   35000    275.34409   -123.77801    267946.41   -79285.281    6979.6447   -86264.926    1965.7037 
   35050    277.53055   -423.63218    268663.16   -79277.429    7035.0688   -86312.497    1972.1741 
   35100    271.05778   -517.77276    269690.53   -79299.462    6870.9917   -86170.454    1980.8847 
   35150    275.38853   -818.63704    270193.53   -79306.073    6980.7712   -86286.844    1986.6784 
   35200    273.96855   -504.62474    269532.59   -79307.061    6944.7763   -86251.837    1985.0011 
   35250    279.08866   -525.28969     268704.6   -79278.537    7074.5652   -86353.102    1984.9737 
   35300    276.49933    -287.5566    268172.74    -79252.18    7008.9287   -86261.108    1983.6322 
   35350    278.72083    -71.84489    268371.96   -79239.362    7065.2411   -86304.603    1986.3984 
   35400    273.12318   -463.82137    269325.51   -79272.876    6923.3471   -86196.223    1993.6076 
   35450    276.30162   -808.51354     270070.5   -79245.109    7003.9169   -86249.025     1998.244 
   35500    275.92089   -491.66383    270037.82   -79213.615    6994.2658   -86207.881    1999.6954 
   35550    276.37273   -452.75491    269714.34   -79257.061    7005.7195    -86262.78    1999.0831 
   35600    276.11736   -477.95371    269515.93   -79170.644    6999.2461    -86169.89    1999.5223 
   35650     281.6359   -437.47031    269376.14   -79165.988    7139.1345   -86305.122    1999.8781 
   35700    276.49532    -509.4572    269180.36    -79212.52     7008.827   -86221.347    2001.3458 
   35750     278.3922   -386.64934    268809.56   -79219.225    7056.9107   -86276.136    2000.5367 
   35800    275.39542   -413.34328    268856.72   -79231.387    6980.9457   -86212.333    2005.0167 
   35850    273.70101   -413.25311     269348.4   -79187.838    6937.9946   -86125.833    2008.4587 
   35900     279.0352   -503.50367    269816.28   -79189.322      7073.21   -86262.532    2015.0589 
   35950    275.53486   -756.02102    269974.04   -79194.754    6984.4804   -86179.235    2017.0286 
   36000     277.1834   -713.38759    269658.15   -79219.237    7026.2689   -86245.506    2019.3124 
   36050    273.75462    -500.3611    269098.73   -79257.128    6939.3534   -86196.482    2017.9545 
   36100    274.71775    -367.8198    268735.66   -79226.872    6963.7677    -86190.64    2018.8504 
   36150    274.51888   -352.24632     268903.5   -79219.775    6958.7266   -86178.502     2021.986 
   36200    278.61955   -465.32552    269143.44   -79223.173    7062.6736   -86285.846    2024.7813 
   36250    274.89405   -674.57964    269392.27   -79201.314    6968.2368   -86169.551    2027.8062 
   36300    275.97348   -584.90985    269390.06   -79243.881    6995.5989    -86239.48    2027.9924 
   36350    275.00941   -235.99845    269211.39   -79176.145     6971.161   -86147.306    2027.7312 
   36400    273.77387   -309.77926    269343.11   -79223.028    6939.8414   -86162.869    2031.6394 
   36450    277.27684   -481.44642    269494.83   -79199.512    7028.6374   -86228.149    2035.2157 
   36500    278.91578   -355.77534    269387.68   -79204.895    7070.1828   -86275.077    2035.8705 
   36550    278.07798   -326.67605    269284.92    -79171.19    7048.9455   -86220.136    2036.9757 
   36600     281.6938   -734.24816    269467.26   -79149.687    7140.6023    -86290.29    2041.2296 
   36650    279.98976   -554.15418    269484.22   -79171.148    7097.4069   -86268.555    2043.2166 
   36700    276.12658   -565.48273     269449.1   -79163.675    6999.4798   -86163.155    2045.9864 
   36750    273.93173   -381.01105    269496.99    -79191.66    6943.8429   -86135.503    2047.1403 
   36800    280.95444   -707.30485    269795.06   -79150.212    7121.8602   -86272.072    2051.7318 
   36850    277.30969   -668.23915       269831    -79159.83    7029.4704     -86189.3     2054.172 
   36900      281.239   -716.40672    269769.64   -79167.452    7129.0736   -86296.526    2055.7482 
   36950    278.87807    -532.8852    269530.65    -79202.39    7069.2269   -86271.617    2057.8036 
   37000    275.90367   -541.97735    269453.88   -79227.798    6993.8293   -86221.627    2058.4457 
   37050    278.39604   -368.80363     269533.7   -79239.428    7057.0079   -86296.435    2060.8975 
   37100    277.15722   -731.40936     269744.4   -79197.981    7025.6055   -86223.586    2062.6627 
   37150    276.57336   -589.56727    269552.87   -79208.427    7010.8052   -86219.232     2064.904 
   37200    274.45328   -400.19698    269193.61   -79220.089    6957.0637   -86177.153    2067.2303 
   37250    272.49417   -579.63892    269162.42   -79214.413    6907.4026   -86121.815    2071.3798 
   37300    279.20735    -604.5018    269145.54   -79231.434    7077.5738   -86309.008    2073.8213 
   37350    281.55702   -358.69265    269238.65   -79226.007    7137.1349   -86363.142    2078.1003 
   37400    278.02524   -573.64923    269677.59   -79207.489    7047.6086   -86255.098    2085.6567 
   37450     272.5244   -737.90855    269931.74    -79203.45    6908.1688   -86111.619    2090.4528 
   37500    277.95678   -596.33372     269446.3   -79209.883    7045.8733   -86255.756    2089.5569 
   37550    278.97025   -343.00987    268537.97   -79214.891    7071.5636   -86286.454    2085.8748 
   37600    278.59833   -332.46482    268367.41   -79231.135    7062.1356   -86293.271    2088.2839 
   37650    276.88406   -639.78871    268822.61   -79220.532    7018.6811   -86239.213    2093.9053 
[...]
   90850    278.56817   -303.01268    269240.44   -79030.416    7061.3713   -86091.787    4867.7764 
   90900    278.09185   -255.30475    269290.07    -79035.12    7049.2971   -86084.417     4874.401 
   90950     278.7289   -494.69946    269590.79   -79071.514    7065.4457    -86136.96     4881.079 
   91000    281.51545   -621.48588    269905.33    -79046.67    7136.0814   -86182.752     4886.922 
   91050    279.67548   -658.92414    269948.06    -79072.26    7089.4402   -86161.701    4891.1775 
   91100    279.16003   -517.12858    269689.98   -79029.643    7076.3742   -86106.017    4890.6277 
   91150    284.23079   -562.67848    269344.22   -79044.481    7204.9119   -86249.393    4890.8065 
   91200    280.64623   -528.31785    269057.12   -79077.225    7114.0475   -86191.273    4888.9003 
   91250    277.70683   -642.88116    269164.35   -79088.703    7039.5374   -86128.241    4895.8006 
   91300    275.99499   -421.63959    269648.97   -79086.047    6996.1442   -86082.191    4906.4309 
   91350    280.46143   -619.82429     270143.6   -79090.859    7109.3631   -86200.222    4917.2368 
   91400    275.40032   -471.52926    270090.86   -79121.084      6981.07   -86102.154    4923.9425 
   91450    278.62656   -551.80807     269615.2   -79147.714    7062.8513   -86210.565    4918.5263 
   91500    278.72131   -410.93778    269193.87   -79157.249    7065.2532   -86222.502    4916.7887 
   91550    279.32484   -312.97552    269178.67   -79146.069     7080.552   -86226.621    4922.8715 
   91600    277.26511   -404.13615    269577.38   -79166.317    7028.3403   -86194.657    4932.8088 
   91650    275.02289   -608.88252    269924.99     -79217.4    6971.5025   -86188.903     4938.507 
   91700    275.12794   -476.56926    269769.39   -79235.841    6974.1656   -86210.007    4940.0136 
   91750    277.80565   -345.67907    269405.95   -79193.641    7042.0423   -86235.683    4936.0086 
   91800    275.81535   -221.22807    269071.03   -79193.091    6991.5905   -86184.681     4935.312 
   91850    276.49399   -344.95121    269153.14   -79222.785    7008.7932   -86231.578    4940.2933 
   91900     274.6402   -561.58975     269403.7   -79211.014    6961.8018   -86172.816    4945.8992 
   91950     274.6424   -626.53366    269413.75   -79258.121    6961.8576   -86219.979    4948.0197 
   92000    276.71578   -315.08173    269333.36    -79220.19    7014.4155   -86234.606    4948.2669 
   92050    273.89274   -411.43327    269441.31   -79261.716    6942.8547   -86204.571    4951.3415 
   92100    275.95354   -519.65495    269645.45    -79199.11    6995.0936   -86194.203    4957.3591 
   92150    276.90191   -518.20396    269611.47   -79190.618    7019.1336   -86209.752     4955.881 
   92200    276.24575   -584.62676    269414.66   -79184.037    7002.5006   -86186.538    4955.8531 
   92250    277.08668   -461.35245     269343.8     -79165.3    7023.8172   -86189.117    4957.4604 
   92300    276.72426   -316.10356    269298.88   -79176.466    7014.6303   -86191.097    4959.1832 
   92350    279.11653   -492.74593     269552.8   -79187.012    7075.2715   -86262.284    4966.3207 
   92400    281.73243   -437.92351    269676.56   -79190.644    7141.5814   -86332.226    4970.8113 
   92450    277.44336   -414.08388    269633.01   -79185.081    7032.8587   -86217.939     4974.869 
   92500    282.49412   -682.14624     269555.8   -79204.122    7160.8894   -86365.012    4976.6762 
   92550    278.46444   -354.93274    269476.96   -79215.509    7058.7419   -86274.251    4979.2477 
   92600    277.07751   -631.87856     269714.8   -79245.827    7023.5847   -86269.412    4984.2946 
   92650    277.35024   -519.36288    269698.54   -79229.754    7030.4982   -86260.252    4984.7805 
   92700    274.56145     -497.184    269589.93    -79221.67    6959.8056   -86181.476    4987.1687 
   92750    274.30172   -615.19084     269323.4   -79274.911    6953.2218   -86228.132    4985.7726 
   92800    277.67087   -365.64995    268869.87    -79275.86    7038.6257   -86314.486    4979.4113 
   92850    277.99666   -339.75431    268738.23   -79260.458    7046.8842   -86307.343    4979.1699 
   92900    277.58248   -407.45182    268834.97   -79276.298    7036.3851   -86312.683    4979.7851 
   92950    277.85798   -642.45011    269093.25   -79269.523    7043.3688   -86312.892    4983.8151 
   93000     275.9218   -523.25677    269397.86   -79231.143    6994.2888   -86225.432    4989.1912 
   93050    276.00278   -685.04709    269783.72   -79203.188    6996.3418    -86199.53    4994.7974 
   93100    274.65956    -844.8164     269744.4   -79165.731    6962.2925   -86128.024     4996.696 
   93150    280.33505   -281.93826    269365.61   -79192.199    7106.1596   -86298.359    4994.8669 
   93200    280.62461   -578.94494    269518.13    -79167.53    7113.4995    -86281.03    5002.0076 
   93250    279.80759   -533.99003    269598.04   -79142.286    7092.7891   -86235.075     5008.554 
   93300    277.61632   -537.73804    269678.52    -79165.62    7037.2429   -86202.863    5013.0573 
   93350    274.21719   -611.56915     269733.4   -79197.858    6951.0791   -86148.937    5019.0954 
   93400     276.8629   -717.76106    269735.61   -79209.577    7018.1447   -86227.722    5021.3355 
   93450    282.02524    -268.9776    269465.49   -79208.951    7149.0038   -86357.955    5019.1498 
   93500    276.77991   -576.79634    269356.83   -79198.448    7016.0409   -86214.489    5017.0725 
   93550    278.19353   -405.12436    269064.36   -79188.984    7051.8746   -86240.858    5014.4069 
   93600    278.62001   -287.62838    268983.87    -79161.53    7062.6852   -86224.216    5013.7742 
   93650    281.03591   -571.39488    269400.89   -79172.431    7123.9255   -86296.356    5021.5847 
   93700    275.07641   -427.00072    269588.76   -79161.164    6972.8592   -86134.023    5028.5439 
   93750    276.64472   -334.86713    269552.55   -79149.186     7012.614     -86161.8    5028.8726 
   93800    282.47533    -751.1855    269678.16    -79146.13    7160.4132   -86306.543    5032.1946 
   93850    277.58532   -338.80324       269470   -79153.287    7036.4571   -86189.745    5032.9186 
   93900     276.5063   -391.12686    269368.08   -79141.712    7009.1053   -86150.817    5037.9423 
   93950    281.46889   -269.27675    269411.23   -79145.659    7134.9009    -86280.56    5038.2658 
   94000    279.75026   -410.65285    269631.05   -79129.754    7091.3358   -86221.089    5044.7697 
   94050    280.85391   -521.53135     269863.2   -79089.686    7119.3119   -86208.998    5050.9181 
   94100    279.07028   -674.09338    270065.49   -79101.378    7074.0991   -86175.477    5057.3879 
   94150    276.56747   -285.22383    269751.43   -79099.234    7010.6559    -86109.89    5055.6254 
   94200    281.71532   -239.06627    269342.59   -79096.349    7141.1479   -86237.497    5049.4612 
   94250     281.6626   -306.54904    269204.25    -79074.67    7139.8115   -86214.481    5050.1426 
   94300    281.23717   -615.39178    269482.22   -79059.172    7129.0271   -86188.199     5059.509 
   94350    281.97192   -514.22015    269989.04   -79067.377    7147.6522   -86215.029    5067.6498 
   94400    275.20724   -589.73958     270305.4   -79083.133    6976.1757   -86059.308    5073.0842 
   94450     279.6523   -487.38867    270117.67   -79083.968    7088.8525   -86172.821    5077.6061 
   94500     279.2116   -591.35547    269909.48    -79060.51    7077.6815   -86138.192     5076.887 
   94550    278.35492   -385.15369     269810.4    -79094.97    7055.9657   -86150.935    5082.6271 
   94600    280.29693   -424.92382    269779.86   -79079.977    7105.1934    -86185.17    5083.4939 
   94650    280.10876   -538.65362    269536.45    -79051.98    7100.4235   -86152.403    5081.8436 
   94700    283.88971   -397.22015    269331.26   -79014.347    7196.2659   -86210.613     5078.985 
   94750    278.92234   -452.19871    269427.45   -79058.029     7070.349   -86128.378    5082.0979 
   94800    281.29976   -725.88621    269605.27   -79073.727    7130.6139   -86204.341    5086.7175 
   94850    276.55297   -485.68188     269441.2   -79089.462    7010.2884   -86099.751    5088.1739 
   94900    275.51084   -315.51335    269218.83   -79091.104    6983.8715   -86074.976    5090.6238 
   94950    280.77159   -585.19194    269273.15   -79134.441    7117.2254   -86251.666    5096.2555 
   95000    277.73992    -470.8841    269512.59   -79144.515    7040.3761   -86184.891    5101.2771 
   95050    281.29848    -488.5374    269729.05    -79106.47    7130.5813   -86237.052    5104.4725 
   95100    278.06893   -747.25985    269759.98   -79123.979    7048.7161   -86172.695     5110.112 
   95150    279.37541   -345.29484    269420.89   -79139.722    7081.8338   -86221.556    5109.7369 
   95200    278.55973   -392.91489    269343.88   -79147.743    7061.1573   -86208.901    5116.7566 
   95250    277.73937   -573.48804    269544.22   -79134.407    7040.3621   -86174.769    5125.8341 
   95300    274.01309   -465.38083    269608.21   -79173.899    6945.9054   -86119.804    5131.6309 
   95350    282.18058   -811.91834    269639.65   -79197.485    7152.9414   -86350.427    5133.7855 
   95400    282.39824   -589.65999    269317.47   -79156.731     7158.459    -86315.19    5130.5621 
   95450    277.30591   -583.25192     269070.3   -79171.196    7029.3744    -86200.57    5126.8288 
   95500    280.97347   -466.59807    269084.99   -79167.254    7122.3426   -86289.597    5129.1363 
   95550    279.69292   -598.95036    269347.18   -79176.669    7089.8824   -86266.552    5137.4247 
   95600    275.41118   -585.24322    269633.41   -79168.692    6981.3453   -86150.038    5147.6073 
   95650    280.28093   -585.24915    269730.41   -79202.001    7104.7875   -86306.789    5152.2909 
   95700    277.27785   -505.23721    269509.47   -79184.126    7028.6631   -86212.789    5155.8126 
   95750    278.57414   -399.27136    268958.99   -79182.686    7061.5226   -86244.209    5154.2155 
   95800    281.02893   -330.79546    268759.73   -79207.354    7123.7486   -86331.103     5154.382 
   95850    280.23187   -439.56931    269033.19   -79196.842     7103.544   -86300.386    5157.0014 
   95900    275.16879   -672.71273    269689.89   -79193.468     6975.201   -86168.669    5165.6145 
   95950    274.16069   -621.22562    270010.27   -79183.277    6949.6468   -86132.924    5173.1867 
   96000    279.37047   -884.92932    269879.63   -79181.702    7081.7085   -86263.411    5172.9189 
   96050    277.48751   -401.51701    269116.21   -79168.661    7033.9777   -86202.639     5164.067 
   96100    280.97165   -193.55613    268472.53   -79109.946    7122.2965   -86232.242    5156.0068 
   96150    279.08776   -446.74969    268583.77   -79137.075    7074.5422   -86211.617    5163.8973 
   96200      281.315   -473.61538    269398.67   -79093.766    7131.0001   -86224.766    5181.5358 
   96250    277.78667   -711.82359    270402.52   -79074.231     7041.561   -86115.792    5194.8186 
   96300    277.60387   -718.54112    270525.03   -79074.251    7036.9273   -86111.178    5198.2594 
   96350    278.72386   -692.41776    269892.97   -79089.985    7065.3178   -86155.302    5189.8639 
   96400    280.73079    -338.5622    269103.25   -79125.248     7116.191   -86241.439    5182.2947 
   96450    283.43984   -281.27921    268703.78   -79100.769    7184.8623   -86285.631    5178.4768 
   96500    283.13363   -294.71382    269029.24   -79101.223    7177.1003   -86278.323    5183.4861 
   96550    281.03047   -631.07948    269788.41   -79088.415    7123.7877   -86212.202    5192.6434 
   96600    275.63662   -559.85975    270346.56   -79080.452      6987.06   -86067.512    5202.9853 
   96650    278.82989   -611.36057    270175.35   -79121.314    7068.0056   -86189.319     5203.738 
   96700    276.09889    -525.8389    269484.08   -79133.702    6998.7779    -86132.48    5195.1012 
   96750    276.56118   -255.42211    269051.96   -79119.456    7010.4965   -86129.952    5191.5049 
   96800    280.16851   -584.01636    269457.12   -79124.637     7101.938   -86226.575    5196.3447 
   96850    278.09954   -866.13282       270038   -79156.233     7049.492   -86205.725    5208.0376 
   96900    276.66332   -609.03374    270027.64   -79105.286    7013.0855   -86118.372    5208.3637 
   96950    278.58166   -362.30304    269576.37   -79117.568    7061.7132   -86179.281     5204.992 
   97000    275.87405   -337.33889    269163.47   -79126.562    6993.0785    -86119.64    5205.1158 
   97050    280.79006   -403.18779    269260.13   -79113.115    7117.6936   -86230.809    5208.3155 
   97100    280.73118   -539.69054    269757.34   -79150.498    7116.2011   -86266.699    5215.6453 
   97150    276.38088   -658.02051    270062.39   -79145.422    7005.9261   -86151.348     5223.696 
   97200    276.55246   -476.59034    269878.82   -79131.999    7010.2755   -86142.275    5227.2739 
   97250    282.34207   -546.44945    269515.05   -79146.166    7157.0351   -86303.201    5224.1075 
   97300    279.11543   -375.49146    269201.78   -79175.194    7075.2436   -86250.437    5223.9881 
   97350    277.99617   -475.97518    269154.43   -79200.657    7046.8717   -86247.529    5224.3468 
   97400    281.79641   -599.16363    269605.33   -79220.858    7143.2034   -86364.062    5233.3302 
   97450      275.944   -445.10966    269841.23   -79235.093    6994.8516   -86229.944    5234.1891 
   97500    279.85991   -638.27741    269876.95   -79235.987    7094.1154   -86330.103    5231.3964 
   97550    280.26842   -668.72001    269783.64   -79209.606    7104.4706   -86314.077    5227.3495 
   97600    279.59702   -627.66207    269628.29   -79187.878    7087.4513   -86275.329    5226.5144 
   97650    282.14732   -596.39449    269266.26   -79178.018    7152.0985   -86330.116    5225.5375 
   97700    277.85464   -507.10579    269100.67    -79180.63     7043.284   -86223.914    5222.6382 
   97750     278.2099   -618.28137     269316.7   -79173.302    7052.2896   -86225.591    5227.0868 
   97800    278.67778   -528.21566    269580.76   -79209.459    7064.1496   -86273.609    5232.7539 
   97850    277.23082   -671.90718    269747.18   -79233.021     7027.471   -86260.492    5236.1391 
   97900    273.45273   -409.06813    269410.66   -79275.928    6931.7009   -86207.629    5230.4103 
   97950    275.14921   -469.21233    269046.93   -79238.416    6974.7047    -86213.12    5228.3733 
   98000    277.56964   -405.29907    268791.57     -79258.2    7036.0597    -86294.26    5229.6291 
   98050    278.02961   -621.14781    268972.53   -79256.645    7047.7195   -86304.364    5237.6469 
   98100    279.14947   -576.40718     269235.6   -79279.858    7076.1065   -86355.964    5244.0792 
   98150    271.46387   -513.36379    269489.68   -79278.735    6881.2857   -86160.021     5247.793 
   98200    272.30201   -445.33793    269539.75   -79291.739    6902.5315   -86194.271    5253.8584 
   98250    274.94609   -690.12894    269537.85    -79277.78    6969.5559   -86247.336    5255.9846 
   98300    277.19208   -696.03124    269254.99   -79310.756    7026.4891   -86337.245    5254.9627 
   98350    274.72489   -339.04738     269007.4   -79312.089    6963.9486   -86276.037    5255.4083 
   98400    280.81778   -585.10249    269249.81   -79283.089    7118.3962   -86401.485    5261.6339 
   98450    277.47407   -358.54474    269438.12   -79252.541    7033.6371   -86286.178    5268.6511 
   98500    276.38168   -452.48822    269724.21   -79267.199    7005.9464   -86273.145    5277.9657 
   98550    275.02258   -707.75414    269862.08   -79287.865    6971.4947   -86259.359    5283.4998 
   98600    273.99296   -490.86268     269349.1    -79296.09    6945.3951   -86241.485    5276.0258 
   98650     277.1004   -339.38259    268707.97   -79301.312    7024.1651   -86325.477    5265.9548 
   98700     278.5468   -477.14799    268475.18    -79287.84    7060.8295    -86348.67    5267.2083 
   98750    277.13572   -449.51308    268650.92   -79273.478    7025.0604   -86298.538    5273.8326 
   98800     273.8721   -390.20897    269232.15   -79272.191    6942.3315   -86214.522    5285.6104 
   98850     275.6363   -600.72807    269900.87   -79254.458    6987.0519    -86241.51     5301.642 
   98900    275.62645   -474.36919    269961.23   -79255.245    6986.8022   -86242.047    5306.3446 
   98950    276.30374   -954.07798    269783.08   -79235.405    7003.9705   -86239.375    5303.2969 
   99000    279.53357   -576.47327    269102.63   -79226.186     7085.843   -86312.029    5293.4616 
   99050    277.23227   -359.16291       268564   -79237.529    7027.5078   -86265.037    5288.8959 
   99100    273.19387   -281.18026    268819.45   -79241.782    6925.1392   -86166.921    5299.6834 
   99150    277.09619   -577.81594    269362.61   -79243.124    7024.0583   -86267.182    5312.1979 
   99200    273.63721   -608.74935    269705.78   -79256.875    6936.3772   -86193.252     5322.738 
   99250    273.22263   -564.63404    269785.55   -79284.883    6925.8681   -86210.751    5325.4982 
   99300     275.3713   -545.85492    269459.73   -79317.689    6980.3344   -86298.023    5323.2175 
   99350    275.02652   -477.36198    269012.86   -79338.653    6971.5945   -86310.248    5320.6167 
   99400    275.98268   -580.04578    268731.22   -79317.411    6995.8321   -86313.244    5321.8013 
   99450    273.18251   -656.65992    268870.82   -79312.876    6924.8511   -86237.727     5326.567 
   99500      274.356   -594.61961    269019.16   -79335.202    6954.5977     -86289.8    5331.7224 
   99550     275.7235   -551.21221     269040.3   -79284.294    6989.2623   -86273.556    5333.4386 
   99600    275.13611   -251.52636     269193.4   -79289.272    6974.3727   -86263.644    5337.8762 
   99650    272.42004   -545.20409    269512.88   -79279.887    6905.5233    -86185.41    5349.1966 
   99700    274.33757   -505.26408    269515.68   -79271.093    6954.1305   -86225.223    5356.1821 
   99750    277.30294   -486.98189    269472.55   -79284.969    7029.2992   -86314.268    5357.8528 
   99800    276.75333   -578.51081    269231.46   -79275.797    7015.3673   -86291.165    5357.9742 
   99850    275.23022   -484.94349    268873.48   -79269.899    6976.7581   -86246.657    5354.2529 
   99900    276.12175   -419.20963    268550.96   -79297.213    6999.3574    -86296.57    5355.0748 
   99950    274.72675   -293.14945     268532.3   -79287.162    6963.9957   -86251.157    5357.8262 
  100000    272.50031   -544.76103    269218.74   -79247.934    6907.5582   -86155.492    5370.0142 
Loop time of 347.244 on 6 procs for 100000 steps with 8505 atoms

Performance: 248.816 ns/day, 0.096 hours/ns, 287.982 timesteps/s
99.6% CPU use with 6 MPI tasks x no OpenMP threads

MPI task timing breakdown:
Section |  min time  |  avg time  |  max time  |%varavg| %total
---------------------------------------------------------------
Pair    | 177.91     | 229.36     | 290.9      | 306.5 | 66.05
Neigh   | 31.495     | 37.278     | 42.023     |  68.2 | 10.74
Comm    | 8.133      | 74.425     | 131.18     | 583.7 | 21.43
Output  | 0.13441    | 0.13632    | 0.1443     |   1.0 |  0.04
Modify  | 4.9432     | 4.9903     | 5.0349     |   1.3 |  1.44
Other   |            | 1.055      |            |       |  0.30

Nlocal:        1417.50 ave        1439 max        1401 min
Histogram: 1 2 0 0 1 0 0 0 1 1
Nghost:        2199.50 ave        2226 max        2181 min
Histogram: 2 0 0 0 2 1 0 0 0 1
Neighs:        0.00000 ave           0 max           0 min
Histogram: 6 0 0 0 0 0 0 0 0 0
FullNghs:      44761.7 ave       45716 max       44127 min
Histogram: 2 0 0 1 2 0 0 0 0 1

Total # of neighbors = 268570
Ave neighs/atom = 31.577895
Neighbor list builds = 20518
Dangerous builds = 0

# Create data file for import to other simulations
#
write_data data.${NAME}
write_data data.coexist_277K_-500atm_mW
System init for write_data ...

Total wall time: 0:05:47
