LAMMPS data file via write_data, version 29 Oct 2020, timestep = 100000

8505 atoms
1 atom types

-0.1875021570426867 104.69409299867002 xlo xhi
-0.15773151731118418 51.137763807432606 ylo yhi
-0.15773151731118418 51.137763807432606 zlo zhi

Masses

1 18.015

Atoms # atomic

2149 1 0.02474547188314441 0.9474774462490287 2.74802225009934 0 0 0
1972 1 3.246559742798821 1.1586110596972092 -0.09422138213277913 0 0 1
2061 1 9.365335017354871 1.270544284713881 -0.04180566286980232 0 0 1
2139 1 12.681852648674829 1.4370611327037583 2.841448908068014 0 0 0
2064 1 15.806173762877773 1.3707487269985814 0.05771206690333722 0 0 1
2586 1 19.045901037418332 1.7399778383425197 2.442466179671177 0 0 0
2289 1 25.313273187875502 1.2203112022027391 2.827636830755578 0 0 0
2627 1 31.404476449325692 1.5536519334341317 2.5586562310031002 0 0 0
2731 1 34.73780691333059 1.2641954742909074 -0.09340008174369704 0 0 1
2887 1 0.9931285700335724 2.9933287575167604 0.8731246072996741 2 2 0
2067 1 5.1518766830006575 3.0933192706074086 1.255418441331987 0 0 1
2151 1 3.3161051962757093 4.635030984008368 2.7389017490790053 0 0 0
2070 1 11.073163415191539 2.910190507634566 1.29081166548618 0 0 1
2073 1 17.205170712613036 3.5185020776209353 1.3881922605606936 0 0 1
2729 1 23.913770158374483 2.8987478315939157 1.288120434057006 0 0 1
2770 1 22.220588624256262 4.685338336926216 2.8632968032828376 0 0 0
2229 1 28.356212242887416 4.137042414990858 2.4157433299200433 0 0 0
2730 1 30.13095226552549 3.098393645179554 0.6326446951278705 0 0 1
2075 1 1.0521115944215238 6.208399114866525 1.434350664443137 0 0 1
1985 1 3.209033013394683 7.7770868178678 -0.008886982496320806 0 0 1
2077 1 7.9616887604554325 6.390159266381848 1.0430949512278167 0 0 1
2103 1 6.193384435839802 7.892112504818456 2.7685729658841063 0 0 0
2079 1 14.281815070254305 5.946644864380106 1.6704747761300682 0 0 1
1989 1 18.88143663440268 8.053726749624406 2.846189592355709 0 0 0
2732 1 20.4122000589046 6.263646228062769 1.4675005712427485 0 0 1
2739 1 22.572639602092334 7.565785308163295 0.12558127216345755 0 0 1
2734 1 27.03140919540237 6.213407406083632 1.2004896603222057 0 0 1
2736 1 33.020558750705604 6.435487415974718 1.4875657573125898 0 0 1
2081 1 4.587247659093791 9.816116917524043 1.2701518911677228 0 0 1
2083 1 11.11501325866761 9.377399851373374 1.5990481504764427 0 0 1
1409 1 15.197444542525965 11.01637672879343 2.746397950888435 0 0 0
2085 1 17.00806054331614 9.27431618587731 1.0691109725829455 0 0 1
2740 1 23.976310258707116 9.523697418934109 1.4144461489882294 0 0 1
2746 1 31.537525082776373 11.003676671130718 0.18048893992487702 0 0 1
2743 1 30.065427875631997 9.321856249789963 1.614100310959743 0 0 1
2086 1 1.4032977612596433 12.800234828169378 1.2245824694712697 0 0 1
1445 1 -0.18467465927651305 14.316780199422155 2.8562337313990076 0 0 0
2089 1 7.884277700282558 13.024803486344354 1.096734625934725 0 0 1
1804 1 6.497078785630609 14.450370546306587 2.8010210609387016 0 0 0
2090 1 13.97874644712754 13.083215984258336 1.0357445773380982 0 0 1
2744 1 20.382524778625974 12.648403322289443 1.3057522899218803 0 0 1
2745 1 26.98792704215262 12.456415100895539 1.4464168158307642 0 0 1
2748 1 33.26263748144801 12.76457222980317 1.2963413349380901 0 0 1
2094 1 4.567409815682921 15.784191085477794 1.3792244003147023 0 0 1
1583 1 3.056700400904319 17.392735259102846 2.6998667718854343 0 0 0
2096 1 11.515678546134383 15.81975840526787 1.066255864397133 0 0 1
2099 1 17.587856674855647 15.911294711731774 1.4188424609194128 0 0 1
2750 1 23.753093875779783 15.817005844781862 1.4403320159911939 0 0 1
2752 1 30.24421195938363 15.943843080434007 1.4662602165765257 0 0 1
2762 1 28.55319876734643 17.73094711898663 2.6762436682383175 0 0 0
2681 1 31.62205672161313 17.722724848848806 -0.08853104952259037 0 0 1
2100 1 1.4336352650570094 18.92945657537458 1.09113620778582 0 0 1
2101 1 8.210174216093886 18.26661297234859 0.9372204643739974 0 0 1
1537 1 6.402953990849651 20.44497179576599 2.607828238896884 0 0 0
2004 1 9.448141822560197 20.456481425775028 -0.13806505291851057 0 0 1
2105 1 14.507619502501003 18.935072185172594 1.02703954705999 0 0 1
2146 1 12.886471951662683 20.455392451175847 2.5359895414587728 0 0 0
2753 1 20.471234647591388 18.890989645163494 1.0383966082196268 0 0 1
2749 1 26.662372371837275 18.862209449441657 1.2248757072812264 0 0 1
2737 1 33.51276974678202 19.29190818863679 1.2796140527774458 0 0 1
2107 1 4.357002748500882 21.923860420907545 1.2622581429666564 0 0 1
2109 1 6.300523709302732 23.273188773812645 0.014225065956443933 0 0 1
2110 1 11.336100665308852 22.22856985301442 1.207212632332462 0 0 1
2144 1 9.719747580686539 23.745360123153453 2.8025131691421934 0 0 0
2111 1 17.66317420762238 22.00656109066756 1.0473939010319742 0 0 1
2724 1 23.95731671716354 22.07294819674984 1.28363700870561 0 0 1
2299 1 22.41281282191894 23.90181887525834 2.816976751074063 0 0 0
2738 1 30.408583413787596 22.03522245305461 1.3072191949247887 0 0 1
2760 1 28.619275415887905 23.603780370494004 2.796686463172651 0 0 0
2112 1 1.4197259539844753 24.965232053336212 1.1136935717922785 0 0 1
2148 1 0.057210962398200865 26.721847259434696 2.795752898954418 0 0 0
2114 1 7.777686073235079 24.96853674331565 1.394540986453622 0 0 1
2098 1 14.375204606198494 25.597428309752754 1.201749987152527 0 0 1
2683 1 20.934734989355917 25.313543238309613 1.0237725468765733 0 0 1
2759 1 19.075692831906004 26.80132777724479 2.62489286314428 0 0 0
2664 1 26.856870278036013 24.952911794910325 1.5829971650449632 0 0 1
2548 1 28.317353264037568 26.636726051786475 0.13699471580168826 0 0 1
2763 1 31.503442068555017 26.829712440174468 2.8415967336571586 0 0 0
2618 1 33.26883964938115 25.41273986498176 1.3547116816448277 0 0 1
1916 1 4.698932691350104 28.328073450104174 0.9400171679660607 0 0 1
1399 1 6.644594981525363 27.19609751270457 2.746375722669637 0 0 0
2074 1 11.006513004508946 28.212559474594613 1.3111984387628666 0 0 1
2093 1 12.84196069652771 27.0012432469664 2.8519469697747537 0 0 0
2053 1 17.388903586124144 28.626874476389958 1.2129917808211703 0 0 1
2561 1 23.952850879345796 28.5504220826218 1.4162439114665448 0 0 1
2523 1 29.92598320184045 28.761612166576572 1.2742102279954985 0 0 1
2020 1 1.0955301574311442 31.68564906068901 0.9860484917794856 0 0 1
2065 1 3.0710785044721813 30.232599734341697 2.2719613718449367 0 0 0
2072 1 7.925088307892704 31.503806108713917 0.9744150945404688 0 0 1
1999 1 6.270619612453699 32.90763037306525 2.5707993406572065 0 0 0
2047 1 14.158477753495353 31.68328290341168 1.4152076147414736 0 0 1
2025 1 12.585316383002114 30.089327187573865 -0.03304803321052907 0 0 1
2456 1 20.93573997623893 31.598875454651758 1.0793480635166683 0 0 1
2772 1 22.403016578526817 30.07684816280918 2.8396472630988607 0 0 0
2455 1 27.000358029951308 31.677860334750964 1.245477052654606 0 0 1
2449 1 33.2090241021708 31.469790043152404 1.4048649906073407 0 0 1
1993 1 4.46320308533468 34.555865501165975 1.2253160603848445 0 0 1
1975 1 11.00210550329142 34.982074238779546 1.2264748902011713 0 0 1
1856 1 17.541017763967545 35.01536690359854 1.4929061320872223 0 0 1
2757 1 19.17176476408292 33.13148137366776 2.6145951301645445 0 0 0
2407 1 24.040705045433135 35.18429534550604 1.0479494314653035 0 0 1
2204 1 25.669677730807543 33.66285900229477 2.6995500164218793 0 0 0
2364 1 30.215132468635666 34.874389197305895 1.074402799195609 0 0 1
2775 1 31.715463239023933 33.31229465732471 2.851113650472957 0 0 0
1768 1 1.2877849194083906 37.95054051970104 1.4464730073659213 0 0 1
1507 1 7.657593739153115 38.06504040823104 1.2206000711808487 0 0 1
1418 1 9.249023580601252 36.615772943475434 2.7259617445125564 0 0 0
1493 1 14.395917658817869 38.0815054848884 1.2202927546727524 0 0 1
2140 1 15.840640957414106 36.69300708729882 2.8874369980104606 0 0 0
2268 1 20.4279106626614 38.143358516273494 1.328830029654739 0 0 1
2771 1 22.045945875296493 36.673748583031795 2.6236657886190673 0 0 0
2192 1 27.17585918149822 38.215496947349614 1.3426970489634857 0 0 1
2176 1 28.491059384214793 36.572771103284026 2.853096354604721 0 0 0
2156 1 33.319669477702995 37.96589607310278 0.9855573928743326 0 0 1
6864 1 0.02195565630589158 40.458478352525425 2.5455684496813253 1 3 1
2042 1 4.329573739917363 41.23306417183342 1.3680128309729307 0 -1 1
1687 1 6.1131971601631285 39.50298088134263 2.714669173901786 0 -1 0
2044 1 10.661009181621239 41.515082490706774 1.214358682501837 0 -1 1
2127 1 12.793986791910802 39.95992914906541 2.7333356052834574 0 -1 0
2046 1 17.24398056689324 41.45096081632947 1.2357303564595732 0 -1 1
2154 1 18.941969371740814 39.646193167840735 2.8568395171420553 0 -1 0
2713 1 24.064264807378553 41.313666143963644 1.022724008120438 0 -1 1
2714 1 30.170700664168624 41.37357654940152 1.542101260383491 0 -1 1
2048 1 1.542205822019446 44.736822407586445 1.0305520815949398 0 -1 1
2050 1 7.815715902549206 44.69014675669229 1.1379436216154781 0 -1 1
2142 1 9.386767717335193 43.277627992241015 2.676079571773047 0 -1 0
2051 1 14.11111347337096 44.3237417686133 1.2332409009701344 0 -1 1
2716 1 20.637043130373215 44.522938038064744 1.6448648587955366 0 -1 1
2718 1 27.214830135151786 44.872063624685424 1.0531195336883263 0 -1 1
2639 1 32.098057969955946 43.14474844857013 -0.049141441676853095 0 -1 1
2719 1 33.40991507160222 44.84273142354562 1.6260404666708237 0 -1 1
2137 1 0.04245541293119534 46.38513181043805 2.858636914431171 0 -1 0
2056 1 5.0181888861286925 47.679062923450964 1.268398912770759 0 -1 1
2057 1 11.252312825258457 47.522324444652135 1.004243015569418 0 -1 1
2153 1 12.9659827692171 46.236358591131165 2.504127701298648 0 -1 0
2052 1 15.340727055629092 46.42114769770328 0.03402805635142561 0 -1 1
2058 1 17.398017616438388 47.32013539841221 1.4692876979405836 0 -1 1
2720 1 23.492065588210938 47.69312766688048 1.1271205566374471 0 -1 1
2294 1 25.49429489348348 46.44098793088879 2.646252229367313 0 -1 0
2722 1 30.049288829788022 47.981636361416115 1.4965245756127605 0 -1 1
2776 1 31.603130161788595 46.155645983004064 2.8555458234213846 0 -1 0
2059 1 1.539063019146007 50.51359792870972 1.3018318957773387 0 -1 1
2060 1 7.956244821665262 50.7350217836409 1.3410920557428663 0 -1 1
2063 1 14.113950081033545 50.75874183561829 1.8923753720056267 0 -1 1
2725 1 20.406463213003693 51.03904239703822 1.0803486101066677 0 -1 1
2726 1 26.84330282560543 51.042808327307796 1.1042434539776231 0 -1 1
2728 1 33.352950330042596 50.942673365740035 1.5565208469720762 0 -1 1
2649 1 31.693400570548654 49.378582192336914 -0.14963682496864247 0 -1 1
26 1 1.6576743754273315 2.661654530599894 4.605469626556203 0 0 0
13 1 6.174591239530826 1.4266761345910473 3.1257889145035014 0 0 0
28 1 7.7477739163174295 2.697294082310057 4.895735387757989 0 0 0
123 1 9.410390310697284 0.8692526009152772 6.199451069955251 0 0 0
24 1 17.642482351380973 0.15749226877641154 4.655872652401779 0 0 0
869 1 22.00980864054012 1.1174131521176287 6.112590113111491 0 0 0
791 1 26.77998426883067 2.6180054536604813 4.566310338961642 0 0 0
787 1 30.110950691256082 0.15171878149258117 4.615626948169439 0 0 0
793 1 33.145922618552405 2.8556523739693893 4.375484421481134 0 0 0
95 1 -0.0436959690622703 4.450200710418702 6.117089916791886 0 0 0
761 1 9.078311380547579 4.513327981923833 3.1233906892385557 0 0 0
29 1 13.92870919075317 2.940805396447296 5.01892067466141 0 0 0
410 1 15.764054390551804 4.290633132752463 3.5418038584202938 0 0 0
789 1 20.553581242927955 3.0767757683593167 4.715060051574714 0 0 0
792 1 25.05425917774511 4.185670968207937 6.037664444340133 0 0 0
797 1 29.767717171172084 5.803738536129107 4.684163741191337 0 0 0
798 1 31.38133602057246 4.224821725213447 6.2428777809567215 0 0 0
1378 1 34.714696646303494 4.7074789412311615 3.1224006109984215 0 0 0
6639 1 0.14338812897458836 7.434660591733905 3.544013511034867 1 1 0
31 1 4.698384387542504 6.214295863865005 4.589130569813869 0 0 0
38 1 3.3514683553561384 8.120273881152357 5.979171287507384 0 0 0
33 1 10.675836032121108 6.082226974441655 4.499893327187137 0 0 0
145 1 12.661211748050164 7.722579358136811 3.189050453548378 0 0 0
35 1 17.361175665125984 6.273258037846344 4.727395277597326 0 0 0
795 1 23.734818504954642 6.017210015851103 4.675063028668254 0 0 0
874 1 22.139901422883863 7.619401011969008 6.076560381634749 0 0 0
842 1 25.474600614293244 7.68778405116455 3.3191314468731754 0 0 0
1348 1 31.47375187507036 7.659032318684612 3.5763715258157127 0 0 0
37 1 1.5190797900235462 9.747062103597868 4.815106210259082 0 0 0
755 1 3.151241507165395 11.264703668388764 3.182662461798959 0 0 0
40 1 7.923786821144985 9.08488022733432 4.450223574396999 0 0 0
750 1 9.164554732658829 11.286555389650719 3.3987995001953153 0 0 0
137 1 6.386581577406235 10.904659923549081 6.11042896555495 0 0 0
43 1 14.24975740997073 9.113639665684818 5.044612615616561 0 0 0
1377 1 21.983849492508906 11.057842350588547 3.1978002767535525 0 0 0
799 1 20.68088614822201 9.327098871489355 4.512173962576798 0 0 0
1373 1 19.030872701143974 10.811171164533555 5.916982419161226 0 0 0
802 1 27.172248612579164 9.273137601973039 4.984464816682464 0 0 0
1380 1 28.708479607244314 10.784270306626352 3.4374965654178666 0 0 0
803 1 33.29577723512677 9.483617355208022 4.736777726442537 0 0 0
1224 1 34.7409560609494 11.429238581532438 3.0892515618974326 0 0 0
5610 1 0.22013017613871422 12.554807391172963 5.104954016985011 1 0 0
45 1 4.917200800293797 12.652155344358622 4.694651442071643 0 0 0
146 1 3.2569383884878906 14.419828233782635 6.239780790364595 0 0 0
46 1 11.007182643996579 12.447847350657025 5.238378760666728 0 0 0
44 1 12.618507868212903 13.973680328314137 3.2358606634572395 0 0 0
302 1 18.864463375403474 14.154259640352324 3.160543739222912 0 0 0
48 1 17.262634113697814 12.282498418779616 4.471628235848652 0 0 0
49 1 15.86838011566164 14.106281668191157 5.951182362913115 0 0 0
805 1 23.950705027871855 12.596833010888572 5.011064729624795 0 0 0
1382 1 25.3065841769726 13.89270403213929 3.1357712983730317 0 0 0
780 1 31.558468788968725 14.187202244489848 3.201362404697317 0 0 0
807 1 30.376783562228397 12.400661192597033 4.917799989380501 0 0 0
810 1 28.650327046979868 14.037929567663816 6.156352696945022 0 0 0
51 1 1.4793565033246772 15.935879065900387 4.46819739454231 0 0 0
53 1 8.093173650448767 15.752828829180872 4.9492455534768895 0 0 0
97 1 9.755498202060318 17.287806112304263 3.072391496315253 0 0 0
764 1 15.638193207969357 17.246498223803567 3.2053378541776985 0 0 0
54 1 13.957579200401534 15.811082529497066 4.85187210132726 0 0 0
808 1 20.84340079542599 15.747649148858573 4.64590678576798 0 0 0
974 1 19.01011101702599 17.015286639846344 6.195513364921163 0 0 0
833 1 22.195477566666 17.700302141838062 3.1859057733359846 0 0 0
811 1 27.37652403623777 15.516213172105305 4.277297267347625 0 0 0
809 1 25.68209740392498 16.86053816448339 6.174413758338895 0 0 0
812 1 33.5627624519294 15.900172315276333 4.9180227430760795 0 0 0
58 1 4.740273940155327 18.85784763487487 4.5886061782667715 0 0 0
56 1 3.0429003767032623 20.601180251374924 6.078176128562762 0 0 0
60 1 11.133980274759159 19.196945690651642 4.647623782894472 0 0 0
61 1 17.427409586527546 18.7200573272213 4.846378806391047 0 0 0
1374 1 19.2218609421303 20.175183706606525 3.3015855519395845 0 0 0
814 1 23.993828126039425 18.701132405504488 4.70637790545101 0 0 0
1385 1 25.249956167000636 20.278967587418293 3.2049566364217625 0 0 0
901 1 28.37503316482557 20.660562542021534 6.210015676719884 0 0 0
815 1 30.299767522676863 19.086599129972164 4.739122148268671 0 0 0
968 1 32.026319189453126 20.54356700068392 3.386273631537327 0 0 0
21 1 -0.12938483557430372 23.740842902590742 6.251563707654623 0 0 0
64 1 1.2017956628081972 22.20126595763545 4.425810835775857 0 0 0
751 1 3.0157673680398975 23.570654326537078 3.109801702549019 0 0 0
65 1 7.753076546438217 22.196627684296214 4.379330852952559 0 0 0
167 1 6.286925896569955 23.891852736546443 6.08754800961487 0 0 0
67 1 14.13913581723919 22.319547319316847 4.691074349613183 0 0 0
71 1 12.650296464749074 23.95966611581196 6.122666453669485 0 0 0
749 1 16.018771681097586 23.861577653208258 3.144305087577684 0 0 0
816 1 20.801130002461782 22.034038825123368 4.661959934212818 0 0 0
825 1 19.04483056916134 23.410632402192295 6.07350840844018 0 0 0
817 1 26.921165466950125 22.156896745114622 4.3729618671101145 0 0 0
900 1 25.625043439667675 23.755764537661182 6.191500527519781 0 0 0
902 1 31.5610823043056 23.611582043221382 6.232768838484412 0 0 0
818 1 33.76218937187386 22.1129566061729 4.703420004028874 0 0 0
76 1 2.9264802675315336 26.715005455068766 5.893542462789934 0 0 0
68 1 4.9651406196143615 25.5619476508526 4.40486454922284 0 0 0
70 1 11.147929690391926 25.488799579800094 4.279344796141811 0 0 0
176 1 9.741895861930407 26.950313702199942 6.0822482070200685 0 0 0
74 1 17.8867850146156 25.517433901343566 4.658652689306219 0 0 0
820 1 23.962300157211363 25.301452373051916 4.789893719955901 0 0 0
908 1 22.185553927921237 26.934202455598477 6.072288876787485 0 0 0
1268 1 25.605636812509616 26.91774663665147 3.1288617729497643 0 0 0
823 1 29.796784819722536 25.115122220214126 4.702712262033362 0 0 0
75 1 1.6767010689990247 28.847533505349865 4.2776544757063055 0 0 0
77 1 8.040549844710943 28.55323576100632 4.682900675717648 0 0 0
174 1 6.1961855051472625 30.01021104031563 5.987857413837152 0 0 0
752 1 9.72457062401985 29.900239825458936 3.106709192121899 0 0 0
90 1 15.69702961411268 29.82682228494627 3.0928842955120692 0 0 0
78 1 14.364090070718515 28.33121324669661 4.940443894846968 0 0 0
826 1 20.351009173328084 28.496821579759896 4.439163591619267 0 0 0
828 1 27.05644423566507 28.547458854747866 4.916021628220911 0 0 0
830 1 33.2741200844345 28.39133046239302 4.493373405792968 0 0 0
63 1 -0.11719181432108144 30.351821893761553 6.057455328213216 0 0 0
80 1 4.7329417452095015 31.493730589287285 4.501248128960117 0 0 0
82 1 10.861294729364849 31.616011638684576 4.5261072558074815 0 0 0
84 1 17.060660823359818 32.01617547718149 4.462227445096847 0 0 0
719 1 18.70945847158384 30.33088551393705 5.700165351043846 0 0 0
832 1 23.72931071405222 32.10916329787232 4.404471141587584 0 0 0
907 1 25.21479082304674 30.31435102228959 6.050903971167957 0 0 0
863 1 28.55362359570843 30.14556540436925 3.3316298034670404 0 0 0
834 1 30.058624123991407 32.091510649246 4.7286141645001605 0 0 0
912 1 31.68755025081751 30.41210921644483 6.129359150241822 0 0 0
86 1 1.12140304193723 34.61756906460672 4.540855666162542 0 0 0
182 1 3.0238769981063403 33.11507971469841 5.85685883745918 0 0 0
88 1 7.8594176934012125 34.66612113434879 4.337634348895398 0 0 0
89 1 9.100454283544474 33.28519656382568 6.219024181260825 0 0 0
746 1 12.432256831719712 33.49361859195505 3.1759520013744837 0 0 0
91 1 13.807344673100438 35.28277555340392 4.408333619795807 0 0 0
85 1 15.3835488020711 33.69209888576605 5.997387392232812 0 0 0
838 1 20.70115782574536 34.82108387749667 4.30477672919446 0 0 0
914 1 22.07630424014131 33.14760258358235 6.214848725786736 0 0 0
840 1 26.939380203622623 35.193422163605874 4.600400412796607 0 0 0
843 1 33.33791846387171 35.04005073975026 4.659631687030695 0 0 0
271 1 3.0397210390326053 36.241530368988116 3.387413558451773 0 0 0
92 1 6.103448094995958 36.086178836347365 5.817477923615113 0 0 0
93 1 4.551235524195587 38.09274501911092 4.7211844430072745 0 0 0
94 1 10.64009320041355 38.08657391023386 4.516416667284402 0 0 0
96 1 17.429560369063626 38.21954253980579 4.826457156390644 0 0 0
1145 1 19.000744409525836 36.49006889886335 5.92944722122883 0 0 0
844 1 23.644971782134437 37.862478933991504 4.780492921068108 0 0 0
846 1 30.070135189009562 38.02159583242387 4.645870593924939 0 0 0
1 1 1.2239698579345368 41.57531877316215 4.755570987755532 0 -1 0
3 1 7.6413373572490615 41.710135594053654 4.168140846154592 0 -1 0
4 1 8.865977072183277 39.69778807141575 6.065155220412466 0 -1 0
6 1 14.244226861823128 41.28219815493369 4.9127333749498545 0 -1 0
767 1 20.734100465603895 41.225883456021094 4.436432141123313 0 -1 0
822 1 25.234836887182176 39.62399677010128 3.2454125059724093 0 -1 0
848 1 22.16011085758392 39.68686219818797 6.207002976921858 0 -1 0
770 1 27.044243793698563 41.443655122270826 4.930375284458575 0 -1 0
1372 1 31.831151063563617 39.392601888198136 3.1850864644478305 0 -1 0
771 1 33.3778557146897 41.45982883334418 4.536550214336446 0 -1 0
283 1 3.0030148516753785 43.13630831977918 3.2143759339485167 0 -1 0
9 1 4.599091590459814 44.59434543568683 4.970024802500692 0 -1 0
11 1 11.421573578827957 44.623925897084895 4.514150816503022 0 -1 0
47 1 15.824824025086919 42.87015462783118 3.2179952339690523 0 -1 0
14 1 17.146740869056416 44.32548252450871 5.088515968560288 0 -1 0
1384 1 22.381330565062672 42.81056082666231 3.1555194072648054 0 -1 0
774 1 23.976828567453968 44.836604241474404 4.545967850511754 0 -1 0
1375 1 28.237573043682236 43.043618157168574 3.0737201150093605 0 -1 0
769 1 25.468737525065777 43.104744288985714 6.189942186633131 0 -1 0
776 1 29.94366567158229 44.55709167278811 4.6466978359581805 0 -1 0
15 1 1.5175994267696669 47.950940551556116 4.654971814391745 0 -1 0
421 1 6.296742967970299 45.97809589634632 3.318003174813617 0 -1 0
16 1 7.5151468899181975 47.676645567970624 4.980159086015001 0 -1 0
12 1 9.623857479941877 46.07501249989191 6.21694857565284 0 -1 0
18 1 14.332365302365508 47.82950589072061 4.9173882312235495 0 -1 0
104 1 18.878311459349536 45.72385523777954 3.558866997474448 0 -1 0
779 1 20.43953612520359 47.964713224642765 4.773677393256606 0 -1 0
782 1 26.760417750534703 48.02850649816338 4.6373913703060605 0 -1 0
777 1 28.313250324330177 46.407937940709544 6.16072019023102 0 -1 0
783 1 33.44512217744933 47.549751177358225 4.7220965068944984 0 -1 0
164 1 -0.15672428732975419 49.557964578750614 6.049821645799917 0 -1 0
763 1 3.4851691733508186 49.41763692494754 3.176151666944181 0 -1 0
20 1 4.981735850119811 50.97050755807029 4.9051682058653565 0 -1 0
748 1 9.506766224867862 49.007205364590554 3.1419572291183795 0 -1 0
22 1 11.141153304881508 50.70918990385331 4.729812242853383 0 -1 0
617 1 16.335748379882876 49.364471579438145 3.2402627553358525 0 -1 0
1369 1 22.0925738249415 49.47812003712688 3.1745668472963873 0 -1 0
786 1 23.88268072904131 50.922121680963286 4.6265454514384015 0 -1 0
788 1 28.348679566011096 49.82906070309798 3.0757963085476776 0 -1 0
27 1 2.8487443036908533 1.0209331461296756 6.319785400935216 0 0 0
126 1 4.526606629077553 2.7304307765980944 8.005500630669973 0 0 0
122 1 7.834860716818126 -0.15409670415999688 8.342889513723998 0 0 0
127 1 10.628725769165786 2.627938092225175 7.882842423538884 0 0 0
125 1 15.701213616351753 1.3672022956749894 6.266343531376496 0 0 0
864 1 20.469718625507674 0.2138038881560947 8.208441095461405 0 0 0
870 1 23.753574817352415 2.5416116062765144 7.696936493786635 0 0 0
866 1 28.182935121272845 1.0053878791301125 6.560041023306673 0 0 0
872 1 31.58720269177876 1.4944864505140347 9.395835169421346 0 0 0
794 1 34.51049166842206 1.9634737092528338 6.6595275504532445 0 0 0
32 1 6.153442613844424 4.316673935605335 6.319802346856245 0 0 0
226 1 3.08079027380531 4.913519650132463 9.26709929206486 0 0 0
128 1 12.363133948422576 4.630319212816734 6.477547212943603 0 0 0
129 1 17.240771553250447 3.200023546762757 7.816302932477815 0 0 0
831 1 19.22676781919612 4.570653098206502 6.514229424548089 0 0 0
875 1 26.793566882267537 5.83372648345982 7.854833334217801 0 0 0
871 1 29.728167380389763 2.861918834534181 7.983046434376089 0 0 0
130 1 1.4752892427302116 6.543749015257181 7.470180527178567 0 0 0
382 1 -0.14300960132871082 7.8618397337569 9.234998942875011 0 0 0
131 1 7.823078103855606 5.92646945292286 8.046704085730251 0 0 0
232 1 6.458396622646878 7.824675199511249 9.436604457032601 0 0 0
132 1 9.359400351693214 7.544382098662161 6.40056980426835 0 0 0
133 1 13.965392182592929 6.1476891205693205 8.171356383497159 0 0 0
134 1 15.692200489268002 7.724467149743102 6.693131269790586 0 0 0
873 1 20.82166564425389 6.209944433815215 8.266379781265389 0 0 0
953 1 25.450189533095443 7.468551194438507 9.281258893735968 0 0 0
878 1 28.564838119962985 7.612002830417598 6.546584426441181 0 0 0
876 1 33.37343280089397 6.074061376628318 7.799724492117862 0 0 0
135 1 2.6391556683696074 10.921113883297132 8.897736539312382 0 0 0
136 1 4.8970116588165755 9.321050980301443 7.7112182568856 0 0 0
138 1 10.659494378925249 9.089255189737958 8.208926645939238 0 0 0
42 1 12.5170206568364 10.90365721938542 6.94054529135023 0 0 0
139 1 17.565860567589485 9.247443016167235 8.001617046078819 0 0 0
877 1 23.9178018057686 9.207267362414937 7.623316378694167 0 0 0
958 1 22.277345484994736 10.746463107632772 9.13123104145192 0 0 0
800 1 25.541113361107676 11.016235082994621 6.544103421190106 0 0 0
880 1 29.900865224294428 9.246782500366164 8.155382418080594 0 0 0
879 1 31.765502510781758 10.631614165300228 6.57339282938542 0 0 0
142 1 1.3417078435348506 12.77027842098956 7.541742700551887 0 0 0
143 1 7.829941522059141 12.327198602898374 8.205092345657425 0 0 0
245 1 6.22330288882494 14.123681902726085 9.406931976533768 0 0 0
148 1 9.37085720747473 14.139553572037515 6.675943016291828 0 0 0
144 1 14.453251210548673 12.441514011391613 7.9585393811904535 0 0 0
308 1 18.834580741227445 13.990868339188912 9.20171976619323 0 0 0
886 1 21.985103671130172 13.754009311487188 6.505038412482349 0 0 0
882 1 20.308558631384077 12.166019734318896 7.741325441953655 0 0 0
884 1 26.770928664149594 12.743502378063036 7.989332676036572 0 0 0
885 1 33.189714250376376 12.783714601512509 7.815523614156782 0 0 0
153 1 2.728737680810405 17.432219722610917 9.100450873345704 0 0 0
147 1 4.81400928341827 16.073885460528423 7.694226274217794 0 0 0
57 1 6.3899431226028875 17.55066330767004 6.318000225931284 0 0 0
150 1 10.96668609272343 15.684739618793264 8.470095294226779 0 0 0
55 1 12.510291140395426 17.04522293718564 6.797925260344012 0 0 0
151 1 17.283518846462705 15.43097391862562 7.628025587136164 0 0 0
152 1 15.99468156790655 17.29816260351049 9.278417954449104 0 0 0
893 1 21.744225863632888 16.942107993404775 9.366698244810014 0 0 0
888 1 23.67209307222396 15.609479611809736 7.996310527647484 0 0 0
890 1 29.871130052840652 15.62640260458511 8.046667859103428 0 0 0
891 1 31.60552247415843 17.432143429610953 6.3603995289006265 0 0 0
154 1 1.294946467954093 18.97197337974127 7.489282932394616 0 0 0
141 1 -0.08864139845229793 20.59112624053569 9.151878352464777 0 0 0
59 1 9.246821009157946 20.655199944901604 6.367723232076062 0 0 0
155 1 7.61242445889289 19.024810390016206 8.107453270785765 0 0 0
156 1 14.16985588198396 18.73394225204363 8.025573002179879 0 0 0
62 1 15.463325011837576 20.59029098928088 6.563233433109842 0 0 0
161 1 12.538696250961983 20.6418625490043 9.20201036034927 0 0 0
892 1 20.520237415194305 18.799894150102293 7.7506966478646016 0 0 0
1133 1 19.23900710230592 20.304008287274506 9.317421769205097 0 0 0
898 1 22.470546737357665 20.30215486876227 6.2937829739019415 0 0 0
895 1 26.96789217413133 18.750661204863892 7.554467050564359 0 0 0
894 1 25.657799910140394 19.950756568179237 9.371219387720476 0 0 0
896 1 32.98151864580942 19.264344092851072 7.9539114928343135 0 0 0
158 1 4.680784109641853 22.180909704221975 7.8559932082752155 0 0 0
157 1 3.05850590695599 23.737557339396425 9.321211272527176 0 0 0
160 1 10.995983662472867 22.421542656147686 7.738092324932864 0 0 0
163 1 17.347821347825455 21.992529342715418 7.816774381555003 0 0 0
170 1 16.117564840413575 23.968343601953617 9.278848545880585 0 0 0
899 1 24.063446881740383 21.920202224638484 7.898438202833054 0 0 0
983 1 22.326580275812713 23.64683607445173 9.220635561664364 0 0 0
903 1 30.105473958694386 21.71004391917031 7.8591139931730005 0 0 0
981 1 28.884974169913608 23.386544322268943 9.235469269007616 0 0 0
166 1 1.571511965695588 25.314972427607717 7.771777015475516 0 0 0
262 1 6.042471468553038 26.968755007697798 9.189094781065098 0 0 0
168 1 8.001965956178948 25.544339059207665 7.643155790074277 0 0 0
169 1 14.445523247385578 25.363689417498126 7.847333500177239 0 0 0
179 1 16.3522613316758 26.83488897771638 6.315316126721364 0 0 0
904 1 20.70082062496223 25.210961370976918 7.57834047325286 0 0 0
845 1 19.003147053558077 26.602677528733107 8.960592958221474 0 0 0
905 1 27.38147745552284 25.228478011982734 7.918870715499368 0 0 0
910 1 28.598069840836963 26.906841985384123 6.476208583212704 0 0 0
906 1 33.193426789119826 25.51497562090327 7.743868749212576 0 0 0
173 1 4.700935867127747 28.407341000894906 7.141911001266377 0 0 0
177 1 11.260707903175708 28.353425387955223 7.8608223838110085 0 0 0
175 1 9.465104479941534 29.952351249611983 9.373877772168472 0 0 0
180 1 17.744865078297636 28.846808217724167 7.76966922606526 0 0 0
993 1 22.020556839223485 29.83349974488989 9.296428575953026 0 0 0
909 1 23.921245236206286 28.097586379288824 7.844978909537586 0 0 0
911 1 30.651264786960727 28.496128816185575 7.7702142424142675 0 0 0
995 1 28.46687165457635 29.847804616735292 9.134768219059053 0 0 0
181 1 1.4344770214967417 31.830971906807044 7.629884292850116 0 0 0
172 1 3.0747068412931777 30.172409703128878 9.01223362553015 0 0 0
188 1 5.958921279276221 33.032591114829046 9.171150330012413 0 0 0
183 1 7.652998972383251 31.59879515378157 7.8263755733802 0 0 0
83 1 12.685087524298115 30.22146795519231 6.283891953966976 0 0 0
185 1 15.552275088448967 30.209277259718807 9.232807523394301 0 0 0
184 1 13.984347442101454 32.04337504238176 7.642891125102711 0 0 0
913 1 20.416923757002188 31.719605625461586 7.52616490614844 0 0 0
915 1 26.86619320399258 31.573592234549864 7.500459249250426 0 0 0
1000 1 25.416110303552575 32.997154610082106 9.267505705592221 0 0 0
917 1 33.366982416578864 31.737464588715444 7.5925076230730335 0 0 0
996 1 31.728015840422557 32.992920101804266 9.379179243679934 0 0 0
187 1 4.593874372231287 34.602542721370895 7.359119093897489 0 0 0
190 1 10.606367180284641 34.98058971856276 7.728507027499466 0 0 0
189 1 12.207907186546656 33.38402986335741 9.102502891665697 0 0 0
243 1 18.788255944655685 33.11137572308558 9.194035620071991 0 0 0