LAMMPS data file via write_data, version 29 Oct 2020, timestep = 200000

4608 atoms
1 atom types

-0.20402785975822368 53.6040278597584 xlo xhi
-0.12254281860343497 51.029662818604734 ylo yhi
-0.12254281860343497 51.029662818604734 zlo zhi

Masses

1 18.015

Atoms # atomic

3445 1 4.008002168102335 2.8999224811974607 1.7563444498797198 0 0 0
3283 1 7.8259774278881284 2.311914837703162 1.5653207722315474 1 1 0
3994 1 15.312979147907877 23.068432109405776 0.9313082207379972 1 1 1
4513 1 13.143844822907115 39.114580435454094 0.516667585222254 0 -1 1
4186 1 10.297308863096584 2.574382952630158 2.8034278832808934 1 0 2
2494 1 15.487024745187323 4.849048899875246 1.9064890721837564 1 0 1
370 1 2.504122433902092 35.16186622309877 3.54312554304708 0 0 0
382 1 7.391177128327024 4.629750961359025 5.0597308080773855 1 0 0
36 1 10.093561347497811 5.73991838005017 3.879794972394942 -1 1 1
1988 1 17.269548846073203 4.030040580359629 4.064353179411587 1 0 1
293 1 1.4813870985886592 6.863298523321642 2.134764145046025 0 0 0
2614 1 5.364202048636093 43.39393655477624 14.036428498338934 0 -1 0
2674 1 7.734308208965563 8.814887777303722 3.1623801333754424 1 0 2
945 1 3.689666364325248 6.910295221403787 4.0050696433289925 0 0 2
311 1 5.131905472824135 20.597691069346716 9.652461176944858 0 0 -1
1794 1 11.144653656482047 11.417249780963553 3.271301977754115 1 0 1
803 1 10.465380731788166 26.4802078935942 0.4283319846487399 -1 0 1
2254 1 13.19150270499023 8.96783608025351 2.5789559796916253 0 1 0
2152 1 0.9164656258871882 9.552038730014015 20.474189503847345 0 1 0
4527 1 3.73497971236178 12.646908231063586 2.4095636322522918 0 0 1
3719 1 11.230917139661967 31.897726227640923 0.30107152997642617 1 -1 1
1419 1 4.938471685642256 9.742220704437162 3.2075326409705194 0 -1 1
349 1 13.0784339917778 11.702511193073386 1.0906741504166524 0 1 1
1197 1 15.186430638117496 11.448175957566995 3.6256717270664454 0 1 1
3814 1 15.376741826807915 44.02849620385467 25.0243872328616 1 0 0
1463 1 -0.014678661265438792 4.411531413240011 24.378538097299515 0 1 1
1162 1 8.776698370059174 11.572857136818664 1.8826821494773052 0 0 1
3276 1 16.628609440448127 14.070448915838274 2.9623228851279926 0 2 0
2908 1 2.8378525046781498 16.001646579637534 0.48992309642797194 1 0 -1
552 1 7.856872511349247 0.011165719682585201 25.110765465795808 0 1 0
3104 1 9.658288888094036 14.087791736321007 0.5487655255459867 2 1 1
2930 1 14.650381620232272 15.484682272487433 1.07998055546894 1 0 1
2150 1 12.333049729970485 14.691013088030049 2.379796517154122 1 0 1
119 1 14.258631466079082 34.454571404885776 2.4856081169265525 0 0 1
1170 1 14.66217571750279 0.12487206130417128 2.1923808895014028 -1 0 1
1615 1 0.7376084213559185 29.353261769905924 12.186139409992707 0 0 1
1371 1 6.85907727124404 17.722993648200198 1.3092968277699304 0 -1 0
3064 1 0.6216887664699681 34.86113706577977 17.846865065918852 0 -1 1
3512 1 9.74485995791013 17.359654398629548 0.7807904391060083 2 -1 1
3628 1 15.31328654539631 18.136666903961995 1.8278335470102514 -1 1 1
1130 1 1.3972070625156037 20.7418499078798 9.490358334976127 1 -1 1
1540 1 14.142015218738104 20.1662978527977 0.3829986787884869 0 0 1
3124 1 2.7784207907366048 21.091734327767366 3.505275262431666 1 0 0
1359 1 6.46089750609287 45.59640516802709 0.34850780602390535 0 0 1
2880 1 9.188974171762636 21.80175745322413 2.323681642546851 0 0 0
4297 1 0.580286477461688 36.37250607129167 23.18457305041193 1 0 -1
4085 1 0.049470257540622786 34.41594009245449 4.870304811962558 1 0 1
99 1 0.8270292501726577 18.19599803433374 9.762468252350075 0 1 -1
3406 1 10.936742914795138 43.497793104565574 0.45232439406375224 1 -1 1
3296 1 7.306226807360965 23.910954484319205 1.50368045223877 0 1 0
1566 1 1.8412111939204996 21.861823346150892 23.819012667073043 0 1 -1
1105 1 12.748736229490193 18.51861546700662 25.203794653491457 0 1 1
2512 1 8.59713319941687 33.10021184121898 23.578495730971103 1 0 0
2593 1 -0.07326782092341821 41.022191475546855 5.9155103567734875 2 -1 1
2106 1 3.703921298107157 27.625073454209193 2.0629468046956076 1 1 0
3932 1 9.745826691670624 28.72259901496052 2.738286647808385 1 0 1
2362 1 17.102222536809542 27.785238487033894 2.4991519966691094 0 -1 2
2853 1 3.450872629702968 31.461902785963353 14.21016097540462 1 0 1
4390 1 16.52069781074114 48.98010818565045 0.2572425805249203 0 0 2
839 1 5.924471487447208 32.0947270757118 3.2054515354315556 0 -1 1
4575 1 3.243114594711336 25.444745525657805 0.5696529671150051 1 0 1
1839 1 1.0784518816284256 12.39202545165176 3.50925898879261 0 0 1
1973 1 11.15762984429072 33.910916789438346 2.7410420716744612 0 0 1
2743 1 13.664969909303881 31.88260229511313 1.4357333064142692 1 1 0
2013 1 0.8067559538548024 23.27083289133991 0.08162938884054297 1 0 1
2347 1 4.206364476483429 37.876404560363646 3.9224373878014713 0 0 1
4445 1 5.977104436485541 33.78761610604233 0.4851463716367944 0 0 1
3882 1 10.660804308878921 36.55987921624643 2.4512547435260497 1 -1 1
2316 1 14.106419563253674 29.922496958453372 3.485936280158055 0 1 0
1543 1 0.166756847613049 44.3771123676925 4.756212826327645 0 -1 0
833 1 2.105391661478954 37.552773766942806 6.036406059134208 1 0 -1
2680 1 1.3321762857926376 47.33844486106522 17.839288670118005 1 0 2
4393 1 2.724791010344033 37.24691191884239 1.2868862990176992 1 0 1
4494 1 7.9062780976766 10.715189426656673 24.293314499666845 -1 1 -1
2636 1 16.33335489171019 38.5778737138272 2.9012719291405205 0 0 1
3811 1 3.4391275895933946 28.948723064397033 12.843269646369066 1 0 0
3869 1 3.450691315528252 16.283795492279285 20.090455955229928 1 1 2
3199 1 3.1746454420400863 0.8585276849461566 25.312457156933135 1 1 -1
1461 1 7.942375785236491 35.78151091620006 1.3571288538029302 0 0 1
857 1 1.0715248776662674 41.42862819168366 8.454670989498268 0 -1 1
3427 1 13.35437477325604 41.424934369703074 2.1648556879117438 1 0 1
3980 1 4.237508707652042 39.70168518141375 25.273572181695826 1 -1 0
1210 1 6.4029165798191165 42.89950523580701 1.6124276876515493 0 0 0
2523 1 3.1677122926432313 11.043897093677609 17.50683632156163 1 0 -1
2032 1 6.693544065834875 23.189605279979087 7.035353254960915 1 0 0
3787 1 12.429023879599667 47.85479298362994 1.9477096164081371 0 -1 -1
45 1 11.259969741965284 47.17315288903953 4.868264559968213 0 0 0
2685 1 1.0027551279807678 12.117957603313414 19.051084333128728 0 0 -1
1172 1 0.31417690631374895 18.803283600109864 15.200085870100526 0 -1 0
651 1 2.129045147325343 45.09714416197214 6.5163578451883275 1 -1 0
4492 1 1.3275957986246587 14.476379411245853 11.354302618856709 1 1 1
977 1 6.267651522063897 47.97110453987126 2.079122513781663 0 0 0
4350 1 12.04263145180992 50.24991071287597 0.5445841290050155 1 0 2
3374 1 2.5073372325741046 0.17595998263627588 2.7239479021322484 1 1 0
3947 1 5.272462672743766 50.371185542248334 3.511642898885118 1 -2 0
343 1 8.96392264876406 48.93810210417509 1.6447565810086948 0 -1 1
4203 1 0.49430261872748205 0.8928461058525674 8.297635135286335 0 0 0
2359 1 14.398228317544715 43.542903883275095 17.160617649689456 0 0 1
1140 1 -0.04192169445977795 15.873653068819394 -0.039362329514854466 1 0 0
1720 1 7.9325448504245575 17.20034446190873 24.747743143038594 1 0 -1
4362 1 3.6151541803403315 2.2381880839430086 4.647096514403819 1 1 1
2734 1 10.000530775632038 2.6728716931403826 5.745858562068027 0 0 1
640 1 0.10011365054525839 49.986722078006046 1.2110482381108907 0 -1 0
4455 1 6.6176491849839225 2.0726636484400407 4.031862218338752 2 1 0
2197 1 6.65659265203826 6.371484988078182 2.7657950552754524 1 1 0
3025 1 6.7014014041925645 6.528105323788769 7.303342229075377 1 1 1
3602 1 12.639013162332576 4.618521402589449 5.154152067781723 0 0 1
2094 1 14.000160180944228 2.694879834589581 3.47869326596643 0 0 0
2472 1 0.49412313000025465 1.780364408350241 19.21498922225914 0 0 -1
1443 1 1.6967448942892143 7.6142142718869055 5.7779905225763875 0 0 1
2679 1 0.6593542194749543 10.389653949609079 5.342223969754301 1 0 0
1489 1 3.7379840337791137 8.399860862627499 8.695042573599906 1 0 0
3493 1 9.34779350822567 8.001448728119701 5.433613449134057 1 0 0
3477 1 14.14114321355316 6.938618880279793 4.4446587423344335 1 2 1
1057 1 13.475120790812843 6.754397509540214 0.7073027730171069 0 0 2
1388 1 1.4215707588251303 11.748321927747362 7.357204431546756 0 0 1
763 1 1.4112096530538767 9.50583129393738 8.70722926073902 0 0 1
1220 1 4.301100844506674 9.56792545187004 6.015316171967089 0 1 -1
52 1 7.003582503425621 9.527319560989266 6.496539137433987 1 -1 0
790 1 13.628960099434769 8.574155990973052 6.722625127630105 0 0 1
489 1 1.3026109025700607 16.769244117138303 7.16113397706487 1 0 0
3434 1 5.259381288401626 15.659278101675596 2.710895457860849 1 0 -1
3088 1 5.865674724821103 12.129808928820182 4.352125438659761 1 0 0
3769 1 8.577450647118399 15.731212324179365 3.1218485506140667 0 1 0
3218 1 11.419314707274703 13.795180334837793 4.743519221890647 1 0 0
2806 1 0.10640748098561054 28.082283115264502 14.646598106935638 0 0 1
1085 1 1.4458124710836302 3.962387467235655 1.5550413800806715 0 1 1
2144 1 8.53373018828734 15.31852042828648 6.989812534776972 1 0 0
3491 1 9.51273611176768 17.237129358718796 5.4927090182846685 1 0 0
1100 1 12.411876199019755 16.32722443578418 5.551075934778787 -1 0 0
3414 1 16.52442503656476 19.947027172750655 7.518131754023146 1 1 1
2598 1 3.7038120771322527 20.308991604834585 6.161811588111257 1 0 1
3660 1 5.895857219394652 15.991280314467105 5.403731797615716 1 0 0
636 1 13.173865520562787 18.621071922028563 3.8219309616204615 -1 0 0
1361 1 8.347467767843614 19.478885529454402 6.514631546845668 0 -1 1
1204 1 11.381515651549675 19.84318123300209 0.6160946105606421 0 -1 1
4367 1 11.634360738263458 29.001083291361734 -0.018009888629520465 1 -1 0
741 1 14.220632238748468 49.47256819307804 8.060391127122697 1 1 0
1740 1 1.5255822871805558 9.180567023022338 14.463178606956763 1 1 0
4027 1 7.729612720095011 21.782744681872956 4.993035976043734 1 1 2
347 1 15.901571622017475 38.142321669553425 0.11669899189024543 1 0 0
3993 1 5.389835111508293 19.96750330953195 0.4672087965777989 1 -1 1
447 1 10.01793724786752 23.895493708274774 4.411609666991421 0 0 -1
4598 1 11.330178969986518 22.069092005760936 6.296628380403937 0 -1 1
1872 1 11.705563482532066 20.87764260270518 3.2432539198999564 0 1 0
1188 1 13.046943476136555 23.610167921532824 2.562599611704816 0 -1 0
250 1 5.653725679176022 21.251655600347092 2.8022412089726365 -1 0 0
3925 1 8.32005385189778 25.47120128523161 6.215628500384952 0 0 1
4359 1 8.690103859150502 26.0176783184031 2.6307887496456157 2 0 1
4062 1 11.593328511411011 23.96415468035702 0.09921954946194206 0 -2 1
3680 1 13.023517065195888 24.10035970796402 6.535169248021519 0 0 -1
3423 1 2.422176140445015 25.63343351342042 5.317030406205889 0 -1 0
2502 1 6.316710676837831 27.353264073886777 3.1545767301532797 1 0 1
453 1 9.19505191932048 31.376071768474127 4.1823080583137235 1 0 0
1835 1 9.117707194793919 28.57444424750855 5.802157247888577 0 -1 0
2797 1 13.397842794237095 25.60658203428404 4.281032023075713 0 0 0
79 1 1.8708885446321486 31.326075376748513 0.03891468274255391 0 0 1
3431 1 8.120923504267486 33.85316233331072 3.5321581868213245 1 0 0
1665 1 12.172462801172486 28.312180170827 4.735010038027781 0 1 0
4019 1 13.812599088121027 33.220016489463106 8.447659505457699 1 0 0
1090 1 5.486527423512156 36.361307247290725 5.795306999424839 0 -2 0
1282 1 5.544378496028771 38.604982049104336 7.568275538160384 1 1 0
728 1 12.065764573958125 31.898874733629263 4.632467101598859 1 -1 0
4188 1 11.0598823259435 37.0543812968107 11.730600967503856 1 0 1
1632 1 11.920908075474083 31.55402331846504 7.463475643644957 1 -1 1
1268 1 12.99057379076763 45.8789867006296 24.745984302816126 0 -1 0
13 1 10.913463462711459 5.686885711428586 1.2507319426968158 0 0 1
4282 1 7.340509022608677 40.62183454469482 4.198129658216119 0 0 2
1965 1 6.739360487848386 38.182550987157676 2.7498596538486244 0 -1 0
3613 1 12.433353205514305 38.289954968826976 3.1557391892204216 1 0 -1
2003 1 12.01841059072205 40.77955384971721 4.67400577884536 0 -1 -1
4129 1 16.963723100601644 36.73829326497315 5.692866489283766 0 -1 1
1891 1 1.2603444993563853 42.58451522365013 0.7985777562174405 1 0 0
3098 1 0.3219013745120817 22.651205813590185 3.1398396276316687 1 0 0
420 1 4.436089570414019 42.448521912706866 3.5984611415135217 0 0 0
246 1 11.016770753231253 43.36862588445946 4.955836762336508 0 0 0
1676 1 15.252659274717761 48.15653660953196 2.958326852832404 1 -1 0
3383 1 9.026102428270606 39.45648104183153 6.447589292281365 0 0 -1
2647 1 1.7926337689395908 42.30177897262171 3.4056817778745403 1 -1 1
2784 1 15.956488250721492 22.462219528533964 9.285005163460246 0 1 0
654 1 3.7512109093579284 42.41922340065368 7.2241925192100345 0 -1 0
3069 1 4.8154780041126335 44.93180859874208 4.994292271867019 1 -2 0
379 1 4.758094973175994 40.18698482661293 5.267038370957941 0 1 -1
1647 1 9.157801178971566 43.4563831812556 2.584241047365848 1 0 0
1143 1 15.714321616257275 38.455435483761725 8.00086729833385 0 0 0
4287 1 15.746427032164503 41.940482548649754 7.470545579728064 1 -1 0
404 1 15.68252656605649 46.397914479752565 5.05251053115312 0 0 0
681 1 17.60041910863653 8.254725407623367 18.037966057370337 0 0 0
3482 1 1.664886402669155 30.771073996596787 8.136528301404049 1 -1 1
159 1 12.09505248308406 43.85338110120883 22.727228098747418 -1 -1 0
4081 1 7.537515786876505 45.330584146274894 5.554107464295104 0 -1 -1
4456 1 10.303201509280044 50.956388322391554 3.391583585664861 1 0 1
757 1 8.890822352304559 46.234999824600685 3.1952987616303794 0 0 2
3858 1 14.236388167563154 46.483871309312114 8.168087298460032 1 -1 1
3058 1 3.138348209963882 48.15259941165483 23.28330074617525 1 -1 -1
1864 1 8.572881457656399 0.36012602046717046 5.534808789677153 1 0 -2
4067 1 4.768973968754304 49.49152697286572 6.243917135676434 1 0 0
4568 1 12.189467821146913 3.555735364862744 1.1153480945601937 1 1 0
1428 1 11.523405523291693 49.11893416885262 6.814061859413857 0 -1 0
108 1 12.94822246531685 49.87504573381593 4.158159879999269 0 0 0
1524 1 1.9311540395553326 1.2270543387666673 10.564608636533748 0 0 1
2319 1 0.45967638305174874 16.960559533329917 17.059859458926145 1 0 0
241 1 9.556939147317284 1.4814250684925372 12.049724303511951 0 1 0
3031 1 12.561702949504113 1.4360413507378909 6.420768972434863 0 -1 1
3964 1 -0.10584029806926094 29.19063208074875 9.520925439560653 2 1 0
3538 1 12.353381524967936 3.633956593938499 10.443087292839124 1 1 0
1272 1 2.320406570492304 5.549863176942049 7.899589379037668 1 0 1
3264 1 4.391068684124956 4.974196052561975 5.693328596918065 1 0 1
4051 1 8.921778813377445 4.586508026376194 7.561029092964038 1 0 2
814 1 4.041369947028348 40.92477063654498 21.800640056267365 0 -1 -1
1779 1 16.200671553094008 4.833353902897727 7.888309363808542 0 0 0
2488 1 17.158839221316143 33.40517543455283 14.132804605762649 0 1 1
585 1 3.246577372836805 5.0184985158050965 10.422022783270796 1 1 -1
3888 1 7.617521162503424 8.490107505072922 9.546148643367617 1 0 1
456 1 11.050198777951362 6.304607610045738 7.990959240665443 0 0 0
4048 1 14.023536188125005 6.493539346302482 8.600404283713479 0 0 1
887 1 9.628725883130295 14.49082946901735 22.27896998821228 -1 0 0
4318 1 3.264134444474389 33.078370299709135 2.0929509180100156 0 0 1
521 1 6.444265698071672 12.58488573635177 8.654322294209134 0 0 0
2630 1 8.536019605663032 13.156617825996175 4.644609035653969 0 0 0
2398 1 16.682568925036236 11.701705139959598 25.057046034310915 1 1 0
1104 1 15.579112282765763 10.060467833970897 8.1596815001046 0 1 2
1964 1 16.95504344625147 31.46629219838199 24.09694880220728 -1 1 0
862 1 0.1525731748582574 29.717169436377183 1.5305565003727133 0 0 1
3242 1 8.52441747426749 11.769779894536029 6.960711059738431 0 -1 0
2230 1 11.148618649428677 9.77637951766299 5.593274360456612 0 0 0
2862 1 13.702342203612046 12.117060466435765 6.054980343449373 1 0 1
2840 1 2.9459403657651366 26.132703968432917 11.760518736460316 1 -1 0
4012 1 3.588109864343387 15.06424398636545 6.241698976344104 0 1 0
4072 1 4.5515069345591685 12.466138618600445 6.748390179614624 0 1 0
383 1 10.685077885065867 14.262318395751212 8.488655802012758 0 1 0
824 1 12.80562834662172 15.774629373131782 8.078775335912479 1 0 0
361 1 5.204773818862173 49.93005104914243 0.02345689949447763 0 -1 1
4149 1 7.073343814645737 29.853671489199485 2.073430088644223 0 -1 1
2920 1 1.1917644578741289 19.575373115940987 6.553564186712569 2 0 0
1800 1 9.905883977632653 19.07276894433928 9.022239392617884 0 1 0
2810 1 13.613083480022748 20.99836005616766 10.048381359380102 0 1 1
3782 1 5.773128615212213 18.50882995603408 6.30381990496079 0 0 0
4602 1 6.151149911815959 26.418132605409316 8.263631204783414 0 0 2
778 1 10.398128394762367 21.64187762521552 9.137220657801466 0 1 0
333 1 11.794691079885094 23.23491323692198 11.295317971820115 0 0 -1
2697 1 14.731596745643964 24.631115152961794 8.667251355173816 -1 -1 0
1985 1 16.62361842222396 21.93058980405765 12.218781184788734 0 2 0
3944 1 5.131246997373181 25.603689397863004 5.430593237319381 0 0 1
4274 1 1.6659789743572666 26.715746471654025 9.505829631238733 1 1 0
3624 1 3.640458323107696 28.36669076320401 8.3256126643705 0 0 0
4176 1 10.687170960677863 25.681399265753736 7.469458494566841 1 -1 0
3134 1 13.72753013706961 25.41637508232821 11.227682807797201 1 0 0
4135 1 4.8768470594089415 24.129724159037234 2.7827478114573667 1 0 0
4246 1 7.127755693827091 29.912465723444054 6.9326423033875 2 -1 2
2260 1 12.18024206938852 27.732930182907133 11.998220006636341 0 0 0
1527 1 12.56238065685775 28.740227364578733 8.013701992265398 0 1 0
107 1 16.961642687872807 26.15599873163038 7.270327141521936 0 0 0
2834 1 4.827191515590367 28.76843852875584 5.778496417026596 1 -1 1
2755 1 2.5396451597052816 30.471236318924316 5.32063370565176 0 -1 0
2159 1 7.890052022428609 35.13647114820427 5.841486415639056 0 0 1
1034 1 8.886453055681901 37.371541355291015 4.414800565325261 0 0 0
1367 1 8.65876273790368 29.81311772239861 9.372812290911272 0 0 2
4259 1 10.87244395579528 28.057082592626188 9.762921356722183 0 0 -1
1618 1 10.06668967314506 32.693435865211185 9.206840450839346 1 2 0
2691 1 14.611309592648663 30.47913826730388 9.004984104478028 0 1 1
1460 1 15.952594437944722 31.723981935300163 12.235897347131441 0 -1 1
1604 1 3.4836230482017134 34.33818140124946 6.283164924083988 1 -1 -1
3505 1 8.68275492272009 35.56276292705482 8.518008514052015 1 -1 0
4438 1 13.95829584528156 36.53321676833782 10.92198058572617 1 0 1
1426 1 15.983001863712175 35.60025821271734 8.661407758547664 0 -1 1
3418 1 0.9553704431696077 35.350037675923446 7.364051304717863 2 0 0
789 1 3.4243684065223965 37.63194272272031 8.861591755322573 0 0 0
1199 1 8.006041792303579 38.62447486874442 8.996770044409825 0 0 0
4480 1 13.54095946595104 37.23283123045682 7.028722821427739 1 0 1
73 1 11.041159782540808 36.824220184754154 8.767266435882028 1 -1 0
4558 1 3.3137836327588097 40.178191403167084 10.194241873105277 0 0 0
1866 1 8.29989486902355 42.567048145388455 6.007291508737433 1 0 1
3003 1 11.984276699143749 39.60610983449098 7.142042038534536 1 -1 1
4219 1 17.36619839299327 19.450751858442082 15.862537315561406 0 1 1
1724 1 5.394399879332804 24.349614082798198 23.70565800734356 0 1 0
2327 1 3.803861064968671 8.706422140617162 0.07908101489427652 -1 0 0
2490 1 11.643603175585332 43.21888263990607 10.780183408756487 -1 -1 -1
827 1 15.347412926200581 40.98842957088534 10.84714760209015 -1 0 1
4060 1 5.0752111862209714 42.01898687482945 9.659587273326641 1 0 -1
407 1 3.2132576186329005 46.13890345750902 11.165669695038384 0 -3 0
3176 1 7.372316001835985 0.1483808363211755 8.165133488818123 1 0 -1
3844 1 11.611885482615987 43.57677691439588 7.7496066495603 0 0 0
4158 1 8.46745943525194 13.13514600204467 25.20111156005205 0 0 0
2629 1 2.9883394557615084 50.50764128075167 7.96178027555518 1 0 0
604 1 8.510419157579689 2.4663672375385137 9.270039078211836 0 0 0
2155 1 13.048651626840545 45.40523236421366 5.842389439397689 0 0 1
3279 1 6.575692855431831 48.70441228125723 8.21665012957933 1 0 1
666 1 13.372071251651638 1.2220487488439509 9.059059585949262 0 0 -1
3238 1 0.7111075898715837 1.920794805150658 5.1825688751884025 1 -1 1
2952 1 8.05699686353838 3.0163724057941166 16.513344665590484 0 0 1
464 1 7.322769097839086 4.243664432057762 13.583059932468057 0 0 0
2151 1 4.137097198822641 2.5131886243954704 9.675573889619832 1 1 1
1158 1 6.294548178082929 2.398398227606757 11.601990428532226 0 0 0
60 1 9.801472871788347 4.646690864287664 11.536247220224702 0 0 -1
1607 1 11.527054214336317 -0.07889922024993012 10.43880326086187 1 0 -1
3593 1 9.477950545080335 49.3805102970154 9.252155898052333 0 0 0
4597 1 0.6435056317231472 5.137156381353011 11.69233853145675 2 0 1
1745 1 7.463559712050496 5.585055302535039 10.390725633536068 0 1 0
1525 1 4.89073454308 1.4816499348348282 7.00906827421444 -1 1 0
2663 1 13.421230926658556 6.248430280142298 11.27812798800229 1 0 2
1488 1 0.6570429613985291 27.414199824233876 0.3425118530855103 0 0 1
1750 1 12.853380996677512 29.53572757449673 24.66868515871048 1 0 0
4459 1 0.17205943467640072 2.3441472318236825 12.513193977751458 0 1 1
1350 1 4.910354132650478 7.132727791340113 11.313410437442469 -1 0 0
2651 1 12.540377728014205 9.757345735786151 12.393045456120785 0 1 0
2821 1 5.46089381638128 10.156894749079504 9.817999019701073 0 0 0
4404 1 8.524985851557549 9.036271171237756 12.265276044277492 0 0 1
3070 1 10.518680877105508 8.796752059375713 9.088669332826553 1 -1 0
4493 1 16.123467896800438 12.977642198087919 7.3208136414408544 0 0 0
385 1 0.2971004695232513 24.105855821879285 11.179557314033092 0 0 1
942 1 3.020816900713741 16.435958841795383 9.545109411257908 1 -1 0
1138 1 1.2050896517163379 11.795596899385222 12.913602692814997 0 1 0
1107 1 4.192013271266149 14.512505258089739 11.88666461030445 -1 1 1
2849 1 4.065498551000952 11.485514761666213 12.148913934495189 1 -1 1
3381 1 14.879099013105897 14.606976457372477 9.155082511455245 0 0 0
4083 1 11.551391296437508 11.700687773718888 7.928099541020039 0 1 1
1817 1 8.57608486314494 11.481087041287537 13.340119657495013 0 0 0
3840 1 15.126325413922949 8.90234166847498 12.411962189934338 1 0 1
1346 1 1.5792378511974237 16.86269728338425 24.834604241568744 0 0 0
3749 1 6.630845143597581 14.419777839634348 10.668163695034078 1 0 0
22 1 9.287282286077604 13.35192697365063 11.060735969144897 0 0 0
1032 1 9.966594213426212 13.167263173280984 17.147261190004144 0 1 0
3732 1 12.671373845074601 18.485964362408406 8.766163281638766 1 0 0
1233 1 5.369921394344355 17.77326728904637 9.088501719123325 -1 1 1
1521 1 7.727024768835726 16.683494963634214 9.51248864614083 0 0 1
4132 1 10.16931458630709 15.80120796692254 12.370213553719605 1 0 1
2192 1 13.590602591423494 17.521989743053403 11.425278197834189 0 -1 -1
312 1 12.790591688800305 15.589022375904369 13.034189590500983 0 1 2
2724 1 16.402794820513755 18.121128163378927 12.652498973987273 0 0 0
4040 1 17.18910413947722 39.96687661905682 23.230064176964074 1 -1 0
2024 1 3.987693657383467 22.800569615602996 7.9063068847101015 0 1 1
1867 1 6.386505734837004 21.817976946812355 12.272040447786548 0 0 1
860 1 9.453126573751883 18.481414826075262 11.857972938217122 0 -1 0
2108 1 10.243078731743084 19.94062388739589 14.08759514005937 0 0 0
12 1 12.083999934269482 0.4893215419865389 22.787347385164416 1 0 -1
4073 1 7.562076261043458 22.777825051585374 9.71170840657472 1 0 1
3866 1 5.112475612790097 24.461194610745423 12.635383425863056 1 -1 0
1076 1 4.631997495175019 29.77345189482139 10.491199948654618 0 0 0
951 1 13.289131572709818 22.3419143886467 15.378162628678023 1 0 0
927 1 15.59572851221654 26.28898738506825 13.038725156005315 -1 0 1
2585 1 4.463761522982366 34.43979450465108 9.086695775567252 0 0 -1
3267 1 10.159801336021395 25.351973784047246 10.187238045835345 1 1 0
307 1 9.789428590708926 27.679575176792614 13.31090271965617 0 0 0
1557 1 8.193055242394141 43.60283385498843 24.912101687419174 1 0 0
65 1 11.381399412679997 0.08219689053979959 19.953237682901428 0 0 -1
56 1 7.982812165779485 32.31699880545052 6.879393916563641 0 1 0
4053 1 6.905514930774223 30.951424484706298 10.906576219829622 0 0 1
2513 1 11.246854577137274 32.38795628566232 11.557794075355872 1 0 0
3200 1 17.342459069927923 46.82620185477793 19.400653541661722 1 0 0
2292 1 1.647323664529364 35.33029511601449 12.639154566540128 1 0 1
1627 1 7.016393885518111 33.77589098796883 10.080515867014485 0 0 0
2971 1 9.0332210285099 31.019260231610986 12.876792936304108 1 1 0
93 1 14.129568660357581 33.8605711473847 11.839657193866621 -1 0 -1
4502 1 13.645131878120377 34.899582000050955 14.559147265536353 1 0 1
2020 1 14.12902824149257 48.590959425309954 25.044293494417115 0 1 0
2677 1 4.1753866322117315 36.255111112015946 11.34187367502148 0 -1 1
3039 1 6.824315800606305 35.59851315413835 12.338657563267994 0 1 1
1541 1 8.462407940786322 37.70008051167484 11.45234938653758 1 0 0
4252 1 0.4587174301880803 44.55646026521839 14.636032498694606 0 -1 0
2816 1 2.9003718833772387 22.680743467424094 10.808421962171826 1 0 1
729 1 14.44890950483662 40.90478170561527 16.195442373298153 0 1 -2
4302 1 2.1482288753415135 42.64896329001466 13.633845765660165 0 -1 0
3407 1 1.5018204964001594 18.30513703960786 3.988547258715183 0 0 0
1610 1 2.326074415513187 39.84308017580266 12.911381712543971 0 0 1
2706 1 7.967244507189241 40.00429908991901 12.94864368443719 0 -1 -1
2070 1 12.066955281091428 38.793628515495016 13.672236713125177 2 0 -1
1572 1 16.009496971181374 38.312441993284665 10.961908481752308 0 0 0
1454 1 15.167191383745001 44.054801487152936 13.98965117421185 -1 1 2
865 1 0.5885274117176388 49.91503152273211 5.881816356343684 0 0 1
64 1 7.212532893112414 40.4656142744395 24.749063475363418 0 0 0
921 1 5.971831613993819 19.235440236409097 23.99450870316482 1 0 0
4000 1 7.687399458084757 41.65975539276091 8.871342292711283 0 0 0
4417 1 8.89463850350252 42.529838519153955 11.225370314141848 1 -1 0
3507 1 12.402717302899484 43.14419422655284 13.17713599931599 0 -1 -1
3596 1 13.195405087897642 41.54871392451389 8.734475231776466 1 -1 0
986 1 8.418147113643665 46.63593867449588 24.901657752706168 0 -1 0
2735 1 8.105905067191198 33.3321973803017 19.345521772460202 2 1 -1
2191 1 5.376803610513505 44.40078809370556 10.977399250857136 0 -1 1
1254 1 3.686304657618252 47.20037570263198 3.289406005879073 0 0 0
3195 1 2.6824387238652365 47.76104678360978 6.010456860159695 0 -1 1
54 1 7.969969363901297 46.32126437361772 8.281840732818724 0 0 0
3275 1 15.432140690566584 44.281187878182294 9.313340899767429 0 -1 0
4020 1 1.8150609604396317 46.77134068966033 13.773800602557458 2 0 1
1601 1 6.272382144645954 48.771754298957134 10.66178956328215 1 -2 0
2804 1 7.90971949892274 45.200348859031315 11.190702304622745 1 0 1
4151 1 10.731288231868243 48.87611803924064 13.409292778406291 0 0 1
1945 1 10.595537908230874 46.8109744248605 8.216632578160343 0 0 0
1547 1 3.004184891975023 50.43115961912999 12.558905965875836 1 0 1
4116 1 -0.1344058110172739 38.803691017359455 13.387415861879242 1 0 1
3013 1 5.789228523508118 -0.02299210217866232 12.985171912904384 0 0 0
1427 1 9.4671141661231 1.068031955414369 18.01608605586686 0 0 0
2052 1 8.319657937157617 50.19303691905719 12.136423166709152 1 -2 0
2072 1 12.515383859271335 2.584574586482067 12.776459415560396 0 1 0
937 1 1.382647562385661 5.992498263067514 17.073566197516396 0 1 1
474 1 0.32309687808491105 1.5028810428259591 15.532553452915355 0 -1 0
3253 1 5.673185377835927 1.8478785970419864 15.250447202309273 2 0 0
1789 1 3.1505526197661027 4.780820242538933 15.173650723816875 1 1 0
4272 1 11.04833230839764 7.629057928085915 11.633496698238021 0 0 0
1302 1 10.127441832462718 5.510386253000309 14.282100326654902 0 1 0
2615 1 10.472730125903906 2.5411033389716735 14.990227596110616 1 2 0
2827 1 14.708215900634375 3.2543544140993945 14.480443923280331 1 0 1
2193 1 6.934684068122413 7.067081329922758 13.114293786015333 0 0 -1
3260 1 4.104530777363954 7.992473908759958 13.940713429187468 0 1 0
3794 1 8.581421843567771 5.633487441899957 17.188355863164908 1 1 0
783 1 5.504897472787186 6.4149643257249265 16.252787055145543 0 0 1
4283 1 9.883137527321882 10.748973863788615 15.383334768752247 1 0 1
4242 1 15.484506643357886 5.884504478169786 13.620541426514919 1 0 0
548 1 5.3881334995489025 10.090402047741897 15.347546312428884 0 -1 0
3936 1 1.5384851423640042 44.761583344780846 9.23585521637342 1 0 0
1309 1 7.730016445696578 8.784181265259514 15.872422231316193 0 1 0
1736 1 11.907708361220655 11.91625162171856 10.646502802003155 0 -1 0
4054 1 12.08427636201929 9.175583809131316 15.109195500046658 0 0 0
225 1 2.1310085076145047 10.869473520690766 0.28928593368820743 0 0 0
1396 1 5.778621475361519 12.416214375580415 13.90463337141485 -1 0 2
2989 1 8.08262994637969 12.827824369172955 19.246200315000387 0 1 0
2616 1 13.733589103890797 13.525578746182408 11.138992879622672 0 0 1
1341 1 15.262304065054238 12.059952107404607 12.733352413995767 0 0 1
2315 1 14.438599857788361 13.394918633992567 15.094236322708165 0 0 0
2416 1 2.7598152747600264 15.319049163242203 17.239703654886394 1 0 1
472 1 3.751225630300064 15.893955049824438 14.522683428951357 0 -1 0
3248 1 9.199131549214314 15.375689523521913 14.812558271491566 1 0 0
725 1 11.905380689231862 14.7399827952925 15.74102965080364 -1 1 0
3083 1 16.581483958182346 14.650015631591321 17.08663839167237 0 1 1
95 1 15.537933796941877 23.521376361966986 14.225421155637582 1 0 0
2566 1 6.5897730143860525 18.79969580568888 12.14096711525969 0 0 1
3597 1 6.0674112542435115 17.948710868191235 14.29866879943475 1 0 0
3417 1 12.846960366281886 17.368029133838224 16.725975949472826 1 0 -1
1417 1 15.734510885673863 21.056096719014192 17.737940298503766 -1 0 0
4109 1 0.6261499106185526 38.601764790955784 9.024604927677874 2 0 1
2887 1 4.8945772935726755 26.400628624914155 25.38593689009502 1 0 0
3142 1 1.4699237265781648 20.217079733721107 12.597773893542001 1 -1 0
2377 1 3.7575534385182565 21.277824310275513 13.254239205260356 1 0 0