LAMMPS data file via write_data, version 29 Oct 2020, timestep = 200000

4608 atoms
1 atom types

-0.04101316319492199 57.31152316319435 xlo xhi
-0.03645614506076811 50.94357614506184 ylo yhi
-0.03645614506076811 50.94357614506184 zlo zhi

Masses

1 18.015

Atoms # atomic

5 1 1.3882182588101881 1.6411513392804218 1.6490499157907688 0 0 0
457 1 0.1978268047330235 19.365562562071513 12.78709438129974 0 0 0
13 1 7.787659377299939 1.7755915606315522 1.0632607112919414 0 0 0
11 1 9.00887816334031 50.921071000151684 2.9549759341287327 0 -1 0
929 1 12.784505252515059 37.94557421451349 25.38205176285355 0 0 0
21 1 14.372104260801725 1.3488495290476226 1.8057732829650215 0 0 0
577 1 0.11073661650948452 -0.030858318814573238 19.024019336174312 0 0 0
481 1 0.05792972079144931 25.666354482891307 12.606178250622893 0 0 0
8 1 4.753911870300445 4.6517446026499885 1.8629046716923268 0 0 0
10 1 6.595580249764859 2.965504574326466 3.172646866789538 0 0 0
16 1 11.557335824310373 4.681242433494723 1.408304131649366 0 0 0
35 1 9.764641495395894 6.128275546913427 3.106345267292632 0 0 0
57 1 6.325010492517513 12.756866222255514 0.023820502815446606 0 0 0
24 1 17.2665103372607 4.383632737585969 1.9810648425631716 0 0 0
29 1 1.681027597936921 7.998963350039004 1.5487317578266087 0 0 0
37 1 7.661821412513643 7.72543458661166 1.873010645930882 0 0 0
953 1 12.781470243861323 44.69793911074199 25.405634900871398 0 0 0
45 1 14.45999649396325 7.877867906801338 1.8104151362861698 0 0 0
673 1 0.42898999518982434 25.6535876985189 19.422108929034618 0 0 0
32 1 5.135487245138169 11.010095447989723 1.7982292465496235 0 0 0
122 1 0.038644048750914844 35.008700226655755 3.1408637048105783 0 0 0
40 1 11.277698881009448 10.749507762842427 1.6233631257934953 0 0 0
194 1 0.17996457456223425 3.1388060093659793 9.295079604588329 0 0 0
48 1 17.760867007104665 11.491227715704472 1.5496300794207394 0 0 0
529 1 0.17452655852379823 38.67426685410836 12.294213718743817 0 0 0
53 1 1.8207112589094412 13.988394809126888 1.4993678502233634 0 0 0
51 1 3.008454032677887 12.352256642988557 3.208894826481369 0 0 0
61 1 7.89379861471843 14.023934804722316 1.7888227782331156 0 0 0
69 1 14.057467962028618 14.266765890314955 1.911663957312474 0 0 0
98 1 -0.03313508321769726 28.671953734097915 2.8895310237174634 0 0 0
56 1 4.852927301236874 17.531112135159862 1.4830744352734018 0 0 0
58 1 6.30392094375285 15.63879105547292 3.2089117250654704 0 0 0
64 1 10.813681433237132 17.39941216916352 1.3940864694408817 0 0 0
956 1 16.02809571758699 47.72552049108283 25.41053862845022 0 0 0
72 1 17.480346127613828 17.589909603226417 1.6209529121285586 0 0 0
766 1 13.966180770892189 49.105357111221814 23.682449008144133 0 0 0
77 1 1.6825038259194578 21.05400988707705 1.7084188316160258 0 0 0
75 1 3.50977376663781 19.431765961837094 2.8692321901679305 0 0 0
746 1 -0.021396925472329572 47.725364807902594 22.095376026369056 0 0 0
85 1 8.06931984217832 20.393677760650842 1.3445554649615186 0 0 0
932 1 15.860591440595353 41.35655318198008 25.309677678826063 0 0 0
90 1 12.649722862279097 22.20737415088316 3.82792067592126 0 0 0
93 1 14.377619359825285 20.422356861910174 1.9372841299737638 0 0 0
113 1 12.750926577596857 25.268821406333117 0.1335847755202658 0 0 0
80 1 5.071132468591178 23.950987992189848 1.5883005437766373 0 0 0
88 1 11.144102455990415 23.747250715827384 2.13050900546026 0 0 0
20 1 15.948286157731348 2.932370177996571 0.11576925161900298 0 0 0
96 1 17.38207984378888 23.58236367239836 1.3659003342774771 0 0 0
115 1 15.991720577999473 25.401052335428183 2.8413214503000375 0 0 0
758 1 7.77713335419389 49.49815710359633 23.958806297007456 0 0 0
101 1 1.6428915029087383 27.22553890541634 1.3624790767398425 0 0 0
410 1 0.11029422878944581 9.332525240880273 16.043935176711887 0 0 0
109 1 8.238233503503361 27.043000004265526 1.8421834677674351 0 0 0
117 1 14.086257325714133 27.10109097772743 1.7450820202340198 0 0 0
114 1 12.643012144181652 28.33178391713063 3.6856990420755316 0 0 0
123 1 3.2020677468951777 31.877807961172238 2.9679604694585526 0 0 0
106 1 6.539760808066839 28.83581238209941 3.207114638214642 0 0 0
104 1 4.8946998388785685 30.139345198920275 1.482551508571285 0 0 0
131 1 9.388658244543947 31.93167675518959 3.256698747289753 0 0 0
112 1 11.27054588814815 30.477496012563794 1.5414042524423133 0 0 0
120 1 17.546395030080472 30.001939796998155 1.739604070359225 0 0 0
139 1 15.587796961821969 31.86694911732348 3.4516628068843813 0 0 0
146 1 0.05080300981808497 41.60121199945037 2.9472975509360215 0 0 0
125 1 1.3661060054482892 33.473423961477515 1.3202109212892836 0 0 0
133 1 7.899086432384446 33.468798644767936 1.2738607764220204 0 0 0
506 1 0.24371104309987857 35.22552691928209 15.642126249445639 0 0 0
141 1 14.267306779285946 33.59137491403984 1.5847334436274505 0 0 0
128 1 5.118938372025191 36.824717870704696 1.2993231464409754 0 0 0
338 1 0.38411504571659805 41.41488202197306 9.342988169631418 0 0 0
136 1 11.284456337251983 36.75177413268615 1.174154022320475 0 0 0
138 1 12.782626375339829 35.2269121754831 3.0123265145528126 0 0 0
505 1 0.06180676473347546 31.654704748736783 12.439634753738462 0 0 0
2233 1 18.953750429462524 31.563488135572673 19.076368280430913 0 0 0
144 1 18.00448723122763 36.78032846664256 1.5524023505241966 0 0 0
149 1 1.839684802999627 40.10112571517485 1.1724684236536675 0 0 0
147 1 3.085972847587467 37.974554704124145 2.783842562429941 0 0 0
157 1 8.185756697976357 39.80765006703249 1.5765826022080298 0 0 0
165 1 14.491632641821427 39.58624775409616 1.8334063958366331 0 0 0
820 1 3.2396797344965207 15.753202096411718 25.425177779443207 0 0 0
152 1 4.887388125807692 42.73993086828165 1.395437486688155 0 0 0
788 1 15.445649589100864 2.5460813038426044 25.034597117855167 0 0 0
160 1 10.998622067080081 42.86187033576788 1.4202271716378416 0 0 0
162 1 12.817320248966155 41.47122219373695 3.1731016448634137 0 0 0
168 1 17.180670748992245 43.26091634996033 1.3565258038500885 0 0 0
187 1 15.508243600243905 44.932158206294005 2.8873974097243202 0 0 0
173 1 1.2859379546580527 45.85504316138716 1.434934383538854 0 0 0
697 1 0.228149639772331 31.78290599660202 18.817214007822606 0 0 0
181 1 8.005130524223453 45.90345960496892 1.2322807480697697 0 0 0
179 1 9.24270038216953 44.5263925320498 3.1084150748694914 0 0 0
164 1 15.820848729784256 41.07767893325086 -0.00899219986796643 0 0 0
189 1 13.936442466032728 46.51839145134201 1.3027825264549149 0 0 0
178 1 6.254066080422716 47.31955049422931 2.7079905032009357 0 0 0
176 1 4.706189485965678 49.3205115017356 1.6147594269863546 0 0 0
184 1 10.778038446148575 49.31435763133429 1.4105636529657017 0 0 0
50 1 0.12409355056266969 15.77194483437862 3.0067655552656554 0 0 0
192 1 17.54853980458471 49.44695482413069 1.719738069826423 0 0 0
108 1 9.895914490137173 28.57368945638327 -0.02942775413833444 0 0 0
7 1 4.785428832520125 1.216101713493468 4.311600637925168 0 0 0
196 1 3.4082885254206747 2.7839023291083866 6.215597445339522 0 0 0
204 1 9.751818235599535 2.9281450509187636 6.192820038365311 0 0 0
15 1 11.038697504925914 1.3589915863296267 4.505217120176938 0 0 0
209 1 12.399388219077672 50.64560826398025 6.213676631412569 0 -1 0
23 1 16.993347282731758 1.6019353577811342 4.797547062207271 0 0 0
1561 1 18.99324392954347 5.778099213322581 0.45568881828686686 0 0 0
6 1 1.4784543627942703 4.702436235548889 4.968479862615232 0 0 0
27 1 3.2215828362311068 6.373141609102593 3.5696154234419204 0 0 0
14 1 8.294248746733654 4.55577293307655 4.615179402725274 0 0 0
18 1 12.749619387110988 3.1542145027541424 3.2171333381989493 0 0 0
22 1 14.283367436956134 4.5347130404779445 5.09667512607971 0 0 0
43 1 15.766472085092499 6.227552816115007 3.744949765703489 0 0 0
868 1 3.0754925172887626 28.83101488957074 25.332220907262794 0 0 0
220 1 3.30075526615661 9.575512004663207 6.543274948462368 0 0 0
31 1 4.765365725247985 7.700953726322875 5.217673392250785 0 0 0
225 1 6.388316707429114 5.973858555012718 6.415494553114148 0 0 0
39 1 11.243294183099302 7.561392691524163 4.983975619020759 0 0 0
228 1 9.669042847701697 9.409892857302237 6.369536531114936 0 0 0
42 1 12.81586909393387 9.15771725742085 3.4404485609447404 0 0 0
47 1 17.947996145264515 8.14752043895541 5.137900206273483 0 0 0
30 1 1.573501681894845 10.845066916545505 4.926605617048637 0 0 0
249 1 6.301692548693972 12.722581219242901 6.525496900841753 0 0 0
34 1 6.468890231944351 9.472466804779717 3.6320028344614417 0 0 0
38 1 7.980642145505593 11.1805091405739 5.2263475666820804 0 0 0
59 1 9.551770628882698 12.200999804724917 3.088896639417433 0 0 0
46 1 14.5633435557803 10.845257318649331 4.911597437571944 0 0 0
67 1 15.825021044362888 12.697558518547318 3.1556022423274936 0 0 0
55 1 4.681629389612212 14.056978934418924 4.8899011513307515 0 0 0
63 1 10.7667027688718 13.95477255481024 4.767585579669796 0 0 0
66 1 12.496266023550115 15.951560190763093 3.366215944027149 0 0 0
71 1 17.360278354580263 14.525259936349364 4.701231961126669 0 0 0
54 1 1.6388356038673506 17.859644986654068 4.356076419895821 0 0 0
62 1 7.968892446289461 17.24408974328868 4.930989507976031 0 0 0
83 1 9.500923106075684 18.85748288500544 3.2894535653219985 0 0 0
70 1 14.094048482990923 17.464691452246836 5.055293599946464 0 0 0
91 1 15.816033094696698 19.037064883517058 3.581197784793279 0 0 0
268 1 2.7994508657271546 22.22478205105958 5.779644673384975 0 0 0
79 1 5.050999723796492 20.62918879031904 4.596440830810169 0 0 0
82 1 6.536408653066416 22.20837405407553 3.000123210840483 0 0 0
87 1 10.797385429086493 20.398040501962473 5.092758912993719 0 0 0
95 1 17.684459259876185 20.555786443893595 4.886028415208383 0 0 0
750 1 1.673247506848231 49.128082037752606 23.966043619647248 0 0 0
313 1 0.07927367248028187 31.867782035373605 6.0330765625807805 0 0 0
78 1 1.505627353168479 24.068781101858683 4.427438690306913 0 0 0
86 1 7.975736692107461 23.62693899028101 5.088935323509806 0 0 0
94 1 14.58054471744498 23.74093506821656 4.843071084184435 0 0 0
89 1 12.793511167707484 19.035182365299594 0.0869053260294442 0 0 0
99 1 3.4155078613472347 25.713723034841916 3.129113702116875 0 0 0
103 1 4.968229208610652 27.36315979069322 4.579496313829187 0 0 0
107 1 9.512347958086309 25.434231296986145 3.564057545247608 0 0 0
300 1 9.254054767471583 28.491915808658657 6.591970190316967 0 0 0
111 1 11.10371902845544 26.97510099540688 5.353198008447417 0 0 0
119 1 17.402906236795992 26.722044168555723 4.513480552844523 0 0 0
308 1 16.117669217672617 28.584017017595745 6.159262686741989 0 0 0
292 1 2.888782638288415 28.717699659315663 5.981792741835246 0 0 0
102 1 1.4589966015898985 30.25315214303876 4.375125464136263 0 0 0
110 1 7.7588272447136 30.305841557532816 4.9915689952499775 0 0 0
118 1 14.297941030091335 30.015785935442047 4.909917452344368 0 0 0
316 1 3.2176296844008396 35.00542384140755 6.2019364652555735 0 0 0
127 1 4.835376188244309 33.45312457156003 4.740811365449018 0 0 0
321 1 6.314282074574135 31.913994860770007 6.549566832244792 0 0 0
135 1 11.132934757887439 33.69308533540502 4.623239828390573 0 0 0
329 1 12.671337907441222 31.9183766161958 6.0830685308832315 0 0 0
324 1 9.612191880047229 35.05869972437379 6.486257488018841 0 0 0
143 1 17.467029114483598 33.26527043488056 4.701702093249877 0 0 0
26 1 0.011380967475079627 9.601498289658759 2.939685192577866 0 0 0
767 1 17.602500619742237 45.97281071587664 23.93198403365419 0 0 0
126 1 1.7347895366822494 36.57843255214686 4.65683042355951 0 0 0
130 1 6.43703135206221 35.15928822723703 2.9773061709420237 0 0 0
134 1 8.14728059031971 36.80715846719351 4.528568490822875 0 0 0
142 1 14.57283834170122 36.627013455188305 4.732175847523749 0 0 0
332 1 16.24020922600768 35.2355654217911 6.159692075351849 0 0 0
763 1 16.02381698766481 44.42534426837467 22.125681703351987 0 0 0
340 1 3.233785362779196 41.42230098180674 5.893821921542955 0 0 0
151 1 4.855471653476352 39.662162851762616 4.028723887522492 0 0 0
154 1 6.346544436354095 41.26055540742829 2.8778940525285255 0 0 0
348 1 9.606331958659238 41.20285724322253 6.254455845422895 0 0 0
155 1 9.882350147010497 38.20920563729437 2.972021172903837 0 0 0
159 1 11.396919513505269 39.60839784759135 4.745627051085867 0 0 0
353 1 13.047015579107185 38.164187883683866 6.419267456893524 0 0 0
163 1 16.474250112199137 38.09410334214922 3.20443803681225 0 0 0
167 1 17.862963736413906 40.100402453578845 4.65472852208333 0 0 0
150 1 1.5981373881696874 43.07623013031068 4.515334066419082 0 0 0
171 1 3.1830975085195075 44.35675089014955 2.7472614097468466 0 0 0
158 1 7.79928841668488 42.84470194368036 4.711276464947086 0 0 0
166 1 14.11295079256216 43.288039935445106 4.5283045651707425 0 0 0
356 1 15.676498563815498 41.459065551952335 6.113779664622451 0 0 0
364 1 3.1738697430315956 47.56976374682186 5.849240383504568 0 0 0
175 1 4.748709225935986 45.840058792987655 4.245325227464991 0 0 0
369 1 6.109942988307492 44.27449271530435 6.052294705466737 0 0 0
377 1 12.341472874685579 44.62494974900469 5.983839028013119 0 0 0
183 1 10.744406636843468 46.21704974743024 4.613681306685628 0 0 0
186 1 12.33486225039678 47.80466289085043 3.152079625307749 0 0 0
191 1 17.40867179948615 46.077898497805535 4.392133655784771 0 0 0
380 1 15.936311691602363 47.52624792447787 6.071177841291976 0 0 0
174 1 1.2924036147950575 48.96853444491981 4.486231073220983 0 0 0
3 1 2.9494637079030372 50.83801078847754 3.1518258621567847 0 -1 0
182 1 7.441054973725422 49.11437229806483 4.194611884067097 0 0 0
372 1 9.080274198975347 47.973992734298925 5.854404115996973 0 0 0
190 1 13.909603870809066 48.860965448464526 4.834579139757551 0 0 0
19 1 15.55559744774172 50.81052246191927 3.6073041158706447 0 -1 0
759 1 10.809855924414297 45.99357055670549 24.083242182739543 0 0 0
197 1 1.3823064644578476 1.546755061902384 7.525085564293718 0 0 0
205 1 7.869184909037715 1.2611612338752713 7.370195635444268 0 0 0
210 1 12.718954821843035 2.9944901422157404 9.804739058101234 0 0 0
213 1 14.329948251538537 1.1969782593979468 8.06479316194701 0 0 0
219 1 3.4668406390321738 6.0966734592317255 9.170225153765397 0 0 0
200 1 4.979101617506865 4.211631550350711 7.8767519838027615 0 0 0
208 1 11.138772795809826 4.637544802088754 8.07212168919259 0 0 0
212 1 15.893005304754018 2.873225873101854 6.895094527876116 0 0 0
216 1 17.574526751519926 4.526033903986067 8.409764903357475 0 0 0
221 1 1.494374439830322 7.878936271521332 7.792605206067233 0 0 0
229 1 7.944576011388398 7.845653002682789 7.705654922743851 0 0 0
227 1 9.208703884761352 6.109918608141625 9.386624031939434 0 0 0
233 1 12.887815669998721 6.372086417380679 6.604679300526357 0 0 0
237 1 14.64789396085548 7.748330107215041 8.058317503132852 0 0 0
224 1 4.819395113580003 11.142949292797168 7.980698156613238 0 0 0
232 1 11.240807804301879 10.741442930777316 8.333140374739726 0 0 0
257 1 12.669641617055666 12.599402914045665 6.390581116539748 0 0 0
236 1 16.031790530837235 9.426850542492218 6.506723288635196 0 0 0
240 1 17.543743333322077 11.281590386768352 7.893123069708581 0 0 0
245 1 1.5627944638339557 14.326393810544488 7.82786740734777 0 0 0
252 1 9.46198150567476 15.684919429128868 6.387807791490125 0 0 0
253 1 7.857644824530287 14.291800310569853 7.860886768033493 0 0 0
261 1 14.285886352314895 14.345669903757216 8.163068461905826 0 0 0
260 1 15.835120213888308 15.949244355632041 6.539272413172956 0 0 0
2042 1 18.611662815939233 34.70333086769126 15.532870283349721 0 0 0
244 1 3.23985180173009 16.233969531280295 6.147975642097113 0 0 0
248 1 4.911742044604468 17.48843283859494 7.960017450126554 0 0 0
256 1 10.911533532219 17.222338371744044 8.404561035295808 0 0 0
281 1 12.418316093096943 18.6970806156498 6.696389660199519 0 0 0
264 1 17.502932265404837 17.573343087077376 7.963994848706424 0 0 0
269 1 1.6557867961846953 20.573657620406927 7.554653372098656 0 0 0
273 1 6.608023088968658 19.136993010457005 6.317007308524786 0 0 0
267 1 3.2673729622577525 19.32258717593658 9.53229191605098 0 0 0
276 1 9.415849013157617 21.965513941483827 6.606570973114902 0 0 0
277 1 7.83650623396152 20.401777419695552 8.295420820307895 0 0 0
285 1 14.26716437769933 20.42972992484368 7.742510408669631 0 0 0
291 1 3.082509172211956 25.17107669101483 9.056043059115646 0 0 0
272 1 4.589051505043773 23.595488571962548 7.482834906445855 0 0 0
280 1 10.877858516679055 23.814965766554447 7.938561806162561 0 0 0
305 1 13.03924733905446 25.254319965206836 6.577381014780463 0 0 0
284 1 16.251537697782894 21.906468797092135 6.470974627411593 0 0 0
288 1 17.777965859752417 23.795476791509714 7.782351785340435 0 0 0
1897 1 18.903439977416838 44.35305724532883 6.0751160673773 0 0 0
293 1 1.6017897029322148 26.886233270430893 7.732308284087496 0 0 0
297 1 6.373586069882549 25.41840396385855 6.28741771562566 0 0 0
301 1 7.711940534476697 27.019162755222016 8.20673205636551 0 0 0
309 1 14.689677322446036 26.93567310332613 8.180383068526519 0 0 0
296 1 4.403362130181832 30.400168556822333 7.426144890276984 0 0 0
298 1 5.768491228102217 28.604615935385308 9.3285951476443 0 0 0
304 1 11.06850714372315 30.157484958379325 7.523845406147885 0 0 0
306 1 12.569478250244357 28.363283336992716 9.269330484533556 0 0 0
312 1 17.64887169736852 29.943791691827084 7.823068833744884 0 0 0
331 1 15.584828450318865 31.480400191969093 9.250660504937024 0 0 0
754 1 6.366802414596243 47.78863965842518 22.082634521577997 0 0 0
317 1 1.620104263396334 33.375534424298685 7.604077048546897 0 0 0
322 1 6.0766359700524735 34.88917296775168 9.585089731290475 0 0 0
325 1 7.9177955333412635 33.51700164032174 8.153249437316772 0 0 0
323 1 9.123854324157348 31.54663696389071 9.305404620441685 0 0 0
333 1 14.33170910324007 33.39648759852406 7.775264802644356 0 0 0
330 1 12.611793337577073 35.258652651478265 9.448459835225476 0 0 0
320 1 4.324799609962047 36.70270535640292 7.888605988043168 0 0 0
345 1 6.193259787099451 38.22759542854188 6.070189030192349 0 0 0
339 1 2.925180359502888 38.4272619045398 9.365486129917217 0 0 0
347 1 9.471997954014636 38.16358095489812 9.497576273426207 0 0 0
328 1 11.181386131070342 36.78838781253963 7.873458578878917 0 0 0
355 1 15.532322277047214 38.35894837614884 9.687644200168613 0 0 0
336 1 17.347590037887098 36.614907589494294 7.90557855858406 0 0 0
341 1 1.5846035374382488 39.7329273057582 7.482741936344121 0 0 0
349 1 7.82249672146053 39.63333870823455 7.90720294581454 0 0 0
357 1 14.238347925502838 40.140913903551485 7.949001313387115 0 0 0
172 1 3.1988972904390036 47.47446806532173 0.28471432014358067 0 0 0
344 1 4.53637791796361 43.00223349549204 7.863640674695679 0 0 0
346 1 6.046347575154115 41.08397621012197 9.313253191103612 0 0 0
354 1 12.458764711660264 41.56379088098705 9.551807518742564 0 0 0
352 1 10.676673858083477 43.237202034268066 7.783674330579333 0 0 0
360 1 17.530773002563123 42.90948879575624 7.635679139066201 0 0 0
825 1 5.920506451101786 12.501219567453429 25.229633287166877 0 0 0
365 1 1.0972476106415159 46.54815567375422 7.405322066361709 0 0 0
370 1 6.362197527712477 47.76950381543885 9.499980157423158 0 0 0
373 1 7.427256551731763 46.277699997892356 7.264428353156353 0 0 0
381 1 14.048646979533714 45.92544521342467 7.7999017534717225 0 0 0
378 1 12.321928498440494 47.92997979899168 9.279748935307605 0 0 0
4 1 3.16229363875446 3.1977803918085645 0.1121600618112969 0 0 0
368 1 4.447889340616617 49.43499847964248 7.781731539541843 0 0 0
201 1 6.199065064965632 50.74946711403471 5.903844359982698 0 -1 0
203 1 8.781177422931082 0.1334964627514881 9.639037441387902 0 0 0
376 1 10.421186289667961 49.71739256001292 7.614008591435724 0 0 0
384 1 17.177039495081367 49.104161598011444 7.5293347202618595 0 0 0
195 1 2.884178990436943 0.17844391779276947 9.311286837676503 0 0 0
199 1 4.713639267397083 1.4400872562233338 11.070066265710041 0 0 0
202 1 6.525959302200342 2.8096374700730182 9.510927381706244 0 0 0
207 1 10.775950840526084 1.3979596339407385 11.101365492423318 0 0 0
401 1 12.687714711951058 50.83627055561021 12.653718548982589 0 -1 0
215 1 17.44926090974662 1.1495607384003637 11.248102488656622 0 0 0
388 1 3.3891518245842294 3.1080988535383187 12.76508968888301 0 0 0
198 1 2.00687159329832 4.743966323243536 11.024825663782 0 0 0
206 1 7.834842297262753 4.255911255354992 10.993419577887716 0 0 0
417 1 6.353679450578264 6.314801612016956 12.589410401453954 0 0 0
396 1 9.619703315415492 2.9603718337128577 13.091806643273484 0 0 0
235 1 15.941306709531537 6.083640225462303 9.71489983660327 0 0 0
214 1 14.48415889560214 4.601310287494246 11.290167001304413 0 0 0
1633 1 18.979434529064783 25.448896285125507 0.05847824283092937 0 0 0
226 1 6.217513148677484 9.170928554243963 9.499888865144806 0 0 0
223 1 4.56057384806753 7.7505566965248525 11.129268080812055 0 0 0
425 1 12.6209832712512 6.260613279096778 12.554328113927985 0 0 0
231 1 10.948812692690812 7.59925214090897 10.731028481402237 0 0 0
239 1 16.915213060972164 7.99428803541252 11.35662780695613 0 0 0
1825 1 18.949635369534917 25.285961403932756 6.08277874847756 0 0 0
222 1 1.4854706031273441 11.303858623518453 10.938550406224518 0 0 0
243 1 3.362014708579627 12.953403633918647 9.59382001955896 0 0 0
230 1 7.680111020080368 10.738153990846738 11.1682796693564 0 0 0
251 1 9.227177803236662 12.396924117730066 9.253428469257644 0 0 0
234 1 13.03401435896166 9.191338049956913 9.939480064978635 0 0 0
238 1 14.458153850458975 11.26830739399969 11.253675823619531 0 0 0
602 1 0.21222688309201182 9.530954930238519 22.246337607287643 0 0 0
247 1 4.764511371335873 14.527049612282688 11.378566366307258 0 0 0
250 1 6.473852904366442 15.889609699369718 9.55868102151562 0 0 0
258 1 12.332328790026699 15.673893573598306 9.756275439960794 0 0 0
255 1 10.906467351426375 13.991986387029058 10.991570889474508 0 0 0
259 1 16.117055396541613 12.89005887740854 9.430406296591864 0 0 0
263 1 17.695463698748625 14.504679699429923 10.76893985230471 0 0 0
246 1 1.458792388668973 17.69994581401044 11.042648140814963 0 0 0
436 1 3.0581815057841526 16.14495448384817 12.794562025450816 0 0 0
254 1 7.808652729265638 17.319075413878277 11.410237082302274 0 0 0
275 1 9.574993802069226 18.865259599064707 10.061323357225033 0 0 0
262 1 14.238719477522885 17.118908963295492 11.213435708645532 0 0 0
1753 1 18.96470211106952 5.92916321259811 6.343375184149869 0 0 0
271 1 4.8162390104586486 20.698813742291417 11.148506022860357 0 0 0
279 1 11.020660957304486 20.949274437865608 11.188833733137026 0 0 0
282 1 12.540841510887349 21.92317953246072 9.258948180075752 0 0 0
283 1 15.912245025771615 18.739716933745157 9.73063348609017 0 0 0
287 1 17.428073712201027 20.563327022066712 11.023325828218402 0 0 0
266 1 0.1940707396965797 22.029022158674398 9.140969538671415 0 0 0
270 1 1.4684508039483015 23.705650959954042 10.967472429454855 0 0 0
274 1 6.169986335285695 22.31742879915797 9.44706470963393 0 0 0
278 1 7.669573263235457 24.002589322878954 11.49489626930381 0 0 0
299 1 9.206542020401443 25.155236721903837 9.418395838900308 0 0 0
286 1 14.099408141082984 23.645823788851533 10.964988173788912 0 0 0
307 1 15.990260656647997 25.179619292119536 9.451376476521833 0 0 0
1850 1 18.811100447377903 34.809013951697914 9.372962785284525 0 0 0
295 1 4.677947181543245 26.708624278969396 10.915677728490563 0 0 0
303 1 11.07222840810503 26.88757939802141 10.861103178650426 0 0 0
311 1 17.290090863615077 27.19831825812773 11.103061283200436 0 0 0
500 1 15.2698508488942 28.582237498365604 12.75844837082169 0 0 0
294 1 1.7508047208931654 30.375517336508306 10.92625607099235 0 0 0
626 1 -0.016354498906396047 15.882366991209645 22.44084470216913 0 0 0
484 1 3.202449157165769 28.61756299275979 12.576953201376142 0 0 0
302 1 7.7685747589061 29.86387082172558 11.027626685629691 0 0 0
513 1 6.423866874949814 31.700428921420865 12.616947672941642 0 0 0
492 1 9.344126810902095 28.374824296493436 12.651126355838318 0 0 0
310 1 13.94945120228961 30.24520210007024 11.05501521789332 0 0 0
315 1 2.990268538444069 31.87033711775424 9.33474837682456 0 0 0
319 1 4.686781410504142 33.158353584600945 11.13619562188631 0 0 0
508 1 3.5280833851995514 35.26995426653943 12.639197727207222 0 0 0
327 1 10.951311020623931 33.24389033273005 10.858623226679809 0 0 0
335 1 17.14947508476765 33.21206095806706 11.140920546929642 0 0 0
524 1 15.429658266102448 34.80481201011963 12.649705122761908 0 0 0
1802 1 18.973732287774276 22.27693723783446 9.34671626281501 0 0 0
318 1 1.7743382243567067 36.716884272876854 11.043369562196293 0 0 0
326 1 7.935075660527069 36.3105354061332 11.264230287518412 0 0 0
516 1 9.860542254512831 34.83486065495794 12.641743823692579 0 0 0
334 1 14.13716796905248 36.929541448244784 11.201779086862725 0 0 0
545 1 12.727067831379896 38.40476416860199 12.96479437454099 0 0 0
809 1 12.854411948801511 6.335185608081997 25.28718428141664 0 0 0
804 1 9.029442627228953 9.128480689919884 25.187132499256194 0 0 0
343 1 4.613940257091719 39.70226272895257 11.351944912909502 0 0 0
537 1 6.3373710069531395 38.044113279291345 12.52845552819383 0 0 0
351 1 11.071566433722198 39.75796193074284 11.065202469761617 0 0 0
540 1 9.570059436296823 41.42161877040131 12.579744404181454 0 0 0
548 1 15.638191409739536 41.53050569330492 12.84848808295229 0 0 0
359 1 17.253062756027887 39.71641064880943 11.182802913232942 0 0 0
342 1 1.5583272141906992 43.20696283822262 10.833750714359162 0 0 0
363 1 2.790214961175687 45.251894250137084 9.0937197533463 0 0 0
350 1 7.650338934550365 42.78574633568613 10.768922867401153 0 0 0
358 1 13.944614135839544 42.89156841641962 11.300022138816036 0 0 0
367 1 4.6260579630682495 46.150028825887304 10.909157799965435 0 0 0
371 1 8.82986085139061 45.03499781289138 9.530085524077075 0 0 0
375 1 10.833311069355823 46.18697455997259 10.973846988519192 0 0 0
569 1 12.573801396917661 44.78790245866251 12.681451402259139 0 0 0
379 1 15.675292760707034 44.390859546718616 9.477666554441877 0 0 0
383 1 17.5952959831759 45.748872148307804 10.968944769338053 0 0 0
265 1 0.025057342643596145 19.17405372867664 6.115964962554562 0 0 0
366 1 1.6879370254268298 49.36517263406848 10.952394668952937 0 0 0
374 1 7.481619002066366 49.603453200106465 11.453169317493145 0 0 0
564 1 9.633214596884484 48.224294575473635 12.508442378382883 0 0 0
382 1 14.148507757252121 48.79032853566182 11.452646204212613 0 0 0
211 1 15.724146352121364 50.49401775196936 9.661974658359018 0 -1 0
572 1 16.053082611438924 47.292868300918386 12.7318027040006 0 0 0
389 1 1.4236448028757336 1.6425307891933465 13.927926723596913 0 0 0
387 1 2.677401758250191 50.90848763647864 15.593584471158989 0 -1 0
393 1 5.981349379131137 0.008320187546544844 12.964566382874606 0 0 0
397 1 7.785114612023359 1.5568168447558712 14.26707014280577 0 0 0
395 1 9.677528198966973 0.09286517341659817 15.746005376066075 0 0 0
405 1 14.456056900413373 1.2713854419158244 14.364411817978079 0 0 0
403 1 16.23207632139353 50.55338497170502 16.056280004929675 0 -1 0
392 1 4.8310670940995495 4.550245714141668 14.425530332432993 0 0 0
394 1 6.2334640021019 3.014818827672878 16.14508294148424 0 0 0
400 1 11.202462310379046 4.678594227493934 14.133699880154618 0 0 0
402 1 12.724661475258372 2.9617514971960377 15.855527926347934 0 0 0
404 1 16.15850512375023 2.8975524956521936 12.835427628057017 0 0 0
408 1 17.702308281055284 4.447726690035264 14.215549135336945 0 0 0
413 1 1.82826921226267 7.881555612424836 14.687436008771686 0 0 0
412 1 2.823186821730969 9.689684716647301 12.43315140291711 0 0 0
418 1 6.605771965972813 9.694095241562772 15.69863598304986 0 0 0
420 1 9.517861295238358 9.243861771824537 12.540653353932637 0 0 0
421 1 7.929127305743306 7.852817169468095 14.2440961091184 0 0 0
419 1 9.696142738245834 6.227331579914772 15.548925559060114 0 0 0
429 1 13.976075676207472 7.504657305217444 14.61983752252628 0 0 0
428 1 15.468974491015462 9.63168289147662 13.26845570366353 0 0 0
68 1 15.88768627810144 15.61282299543066 0.43867334368800825 0 0 0
416 1 4.124656137602305 11.049041149625786 14.271104235090029 0 0 0
441 1 5.857881016530861 12.268020993048516 12.807239049731628 0 0 0
449 1 12.414631384914186 12.321881496963742 12.518836360230209 0 0 0
424 1 11.004382207180633 10.989603799960895 14.195991028380691 0 0 0
426 1 12.38139208926634 9.357437187317355 16.009845219223756 0 0 0
432 1 17.60101672615338 11.128422798943284 14.282935216830841 0 0 0
437 1 1.4122825893039102 14.256900819858487 14.014335745243828 0 0 0
445 1 7.653324004154519 14.227949488640354 14.008332799369139 0 0 0
444 1 9.415968147058829 15.713864414521067 12.901246396567062 0 0 0
453 1 14.042609061564859 13.828396301252065 14.166310491944454 0 0 0
33 1 6.446821000292306 6.031629671816774 0.2154978286224341 0 0 0
459 1 3.050080811700608 19.06210731868372 15.851600574716798 0 0 0
440 1 4.7162845423222715 17.57056538674576 14.274253588108332 0 0 0
473 1 12.573776155005746 19.006626524668818 12.633459868322781 0 0 0
448 1 11.181160496222518 17.407789624877047 14.364142274371758 0 0 0
452 1 15.808147617210821 15.352491420636023 12.711845508161769 0 0 0
456 1 17.24692151845165 17.420435049478463 14.05992632703656 0 0 0
461 1 1.6425078072838084 20.89301918926582 14.475735068343102 0 0 0
465 1 6.340317393932078 18.977894660642182 12.762306065537503 0 0 0
469 1 7.796436631394318 20.67331470211351 14.321512908230561 0 0 0
467 1 9.327006288832315 18.940794449944573 16.054501753140826 0 0 0
476 1 15.735975361223684 22.42278040734549 12.712493756144756 0 0 0
477 1 14.337216461928104 20.538924918962596 14.123057413603371 0 0 0
460 1 3.0214016445274074 22.4043085288403 12.78672673763274 0 0 0
464 1 4.776919489057917 23.86672691705123 14.31237858158216 0 0 0
468 1 9.342883258725392 22.44339832842511 12.830952369477822 0 0 0
472 1 10.731585485341732 23.852270902385595 14.58838439164599 0 0 0
497 1 12.534546596570566 25.22519340561354 12.656237191178318 0 0 0
480 1 17.73825196840201 23.927516705344956 14.173698987746198 0 0 0
485 1 1.5461753405596346 27.184057840597035 14.079855064351738 0 0 0
489 1 6.215574963220755 25.682223044492147 12.909409723313368 0 0 0
483 1 3.186245517290594 25.884077399394574 15.836448885474573 0 0 0