
# Set production fixes - Nose/Hoover
#
fix                 2 all nph iso ${PRES} ${PRES} ${PCOUPL}
fix                 2 all nph iso -500 ${PRES} ${PCOUPL}
fix                 2 all nph iso -500 -500 ${PCOUPL}
fix                 2 all nph iso -500 -500 10000.0
fix                 3 all temp/csvr ${TEMP} ${TEMP} ${TCOUPL} 837492
fix                 3 all temp/csvr 290 ${TEMP} ${TCOUPL} 837492
fix                 3 all temp/csvr 290 290 ${TCOUPL} 837492
fix                 3 all temp/csvr 290 290 5000.0 837492

# Define Order parameter
#
compute             2 all orientorder/atom nnn NULL cutoff 3.5
thermo              200
thermo_style        custom step temp press vol etotal ke pe c_1[4]

# Run 1ns simulation
dump		    1 all custom 400 prod.${NAME}.dump id type x y z vx vy vz c_2[*]
dump		    1 all custom 400 prod.ice_290K_-500atm_ML.dump id type x y z vx vy vz c_2[*]
run                 200000
Neighbor list info ...
  update every 1 steps, delay 0 steps, check yes
  max neighbors/atom: 2000, page size: 100000
  master list distance cutoff = 6.0032907
  ghost atom cutoff = 6.0032907
  binsize = 3.0016454, bins = 20 17 17
  2 neighbor lists, perpetual/occasional/extra = 1 1 0
  (1) pair sw, perpetual
      attributes: full, newton on
      pair build: full/bin/atomonly
      stencil: full/bin/3d
      bin: standard
  (2) compute orientorder/atom, occasional, copy from (1)
      attributes: full, newton on
      pair build: copy
      stencil: none
      bin: none
Per MPI rank memory allocation (min/avg/max) = 5.819 | 5.819 | 5.820 Mbytes
Step Temp Press Volume TotEng KinEng PotEng c_1[4] 
       0    286.80283   -503.30788    149208.18    -47586.15    3938.5462   -51524.697   0.15165584 
     200    287.10771   -526.61756    149193.33   -47576.404     3942.733   -51519.137   0.15349967 
     400    294.45339   -456.81094    149166.46   -47571.346    4043.6082   -51614.954   0.14792475 
     600    290.78922    -510.2986    149211.34   -47608.449    3993.2896   -51601.738   0.15020695 
     800    292.42545   -500.37707    149224.16   -47623.925    4015.7593   -51639.684    0.1479076 
    1000    287.58758   -457.67441    149167.02   -47636.548    3949.3229   -51585.871   0.14665654 
    1200    289.30219   -484.15304    149180.02   -47662.252    3972.8689   -51635.121   0.15174722 
    1400    290.12199   -481.06679    149244.04    -47652.92    3984.1269   -51637.046   0.14424468 
    1600    287.75617   -506.30808     149223.8   -47656.545    3951.6381   -51608.183    0.1397027 
    1800    290.72041   -468.44004    149139.64   -47663.909    3992.3447   -51656.253   0.14139747 
    2000    289.03611   -466.87749    149158.98   -47617.645     3969.215    -51586.86   0.15494247 
    2200    287.87091   -533.29418    149241.42   -47585.009    3953.2137   -51538.222   0.15493339 
    2400    291.69003   -506.43248     149231.2   -47604.253    4005.6601   -51609.913   0.14794754 
    2600     292.9921   -422.76079    149150.09   -47649.528     4023.541   -51673.069   0.14528775 
    2800    284.89457   -474.21078     149151.3   -47666.255    3912.3409   -51578.596   0.14853209 
    3000    285.27378   -577.81025    149260.59   -47677.429    3917.5484   -51594.978   0.14682031 
    3200    287.49881   -517.22589    149234.47   -47623.849    3948.1039   -51571.953   0.15072837 
    3400     284.7514   -491.83996    149145.79   -47663.677    3910.3748   -51574.051   0.15541352 
    3600    289.97859   -476.34044    149160.46    -47693.37    3982.1577   -51675.527   0.14270369 
    3800    289.56681   -529.70696    149236.41    -47618.87    3976.5028   -51595.373   0.14131664 
    4000    287.06475   -572.97401    149225.12   -47612.167    3942.1431    -51554.31    0.1524853 
    4200    293.57984    -418.5548    149133.33   -47629.914    4031.6122   -51661.526   0.15271834 
    4400    287.71341   -464.17386    149175.76   -47616.513    3951.0508   -51567.564     0.149623 
    4600    290.55146   -530.11109    149302.39   -47595.824    3990.0247   -51585.849   0.14583393 
    4800    291.78081   -525.02158    149241.95    -47586.74    4006.9068   -51593.647   0.14898057 
    5000    291.01526   -418.21567    149127.16   -47567.243    3996.3938   -51563.636    0.1466829 
    5200    285.93774   -498.44309    149248.27    -47568.25    3926.6663   -51494.916   0.14794216 
    5400    288.38954   -579.14461    149360.68    -47527.88    3960.3359   -51488.216    0.1530239 
    5600    290.90861   -456.30902    149220.75   -47513.853    3994.9292   -51508.782   0.15738303 
    5800    294.30699   -454.70624    149162.78   -47503.399    4041.5978   -51544.997   0.14882025 
    6000    288.19375   -566.92222    149355.67   -47486.357    3957.6472   -51444.004   0.14789654 
    6200    292.42325   -530.55026    149350.95   -47480.441    4015.7291    -51496.17   0.15295129 
    6400    291.71972   -412.77987    149122.74   -47451.038    4006.0678   -51457.105    0.1620987 
    6600    292.24141   -471.71774    149180.59    -47490.89     4013.232   -51504.122   0.15848874 
    6800    292.76268   -635.50282    149392.33   -47529.159    4020.3904   -51549.549   0.15209613 
    7000     290.3284   -497.77312    149257.64    -47532.38    3986.9614   -51519.341   0.15147939 
    7200    293.88459   -352.34851    149069.85   -47481.646    4035.7972   -51517.444   0.15189321 
    7400    295.82234   -516.64651    149289.46   -47465.866    4062.4074   -51528.273   0.15280728 
    7600    290.13219   -695.65346    149459.78   -47497.364     3984.267   -51481.631   0.15592424 
    7800    290.45636   -407.33731    149133.29    -47528.41    3988.7187   -51517.129   0.15542519 
    8000    292.11586   -318.36188    148992.37   -47495.375    4011.5079   -51506.882   0.15068555 
    8200     292.7785    -659.6103    149370.44    -47529.65    4020.6076   -51550.258   0.14944946 
    8400    295.71224   -648.54436    149425.18   -47554.261    4060.8955   -51615.157   0.14912334 
    8600    287.62218   -323.25087    149014.42   -47514.527     3949.798   -51464.325   0.15583316 
    8800    292.12902   -359.90651    149073.57   -47445.846    4011.6887   -51457.534   0.15458411 
    9000    291.65718   -745.34044    149602.11   -47421.206    4005.2091   -51426.415   0.15236055 
    9200    294.61051   -596.17667    149476.65   -47406.158    4045.7659   -51451.924   0.15285627 
    9400    293.64531   -246.46898    148927.76   -47461.368    4032.5112   -51493.879    0.1505713 
    9600    293.92784   -394.41405    149160.95   -47450.345    4036.3911   -51486.736   0.14697304 
    9800    291.89955   -807.97567    149700.67   -47462.229    4008.5374   -51470.767   0.15007071 
   10000    291.03747   -570.09823    149308.87    -47462.22    3996.6989   -51458.919   0.15624198 
   10200    292.36859   -159.89225    148792.99   -47457.104    4014.9786   -51472.083    0.1484894 
   10400    295.51797   -566.32721    149333.13   -47441.728    4058.2277   -51499.956   0.14720133 
   10600    299.87216   -870.19873    149780.38   -47419.121     4118.022   -51537.143   0.15786996 
   10800     291.7679   -418.45521    149108.65   -47457.595    4006.7295   -51464.324   0.16196535 
   11000    289.88091   -161.71857     148756.6   -47502.732    3980.8162   -51483.549   0.15395451 
   11200    296.38327   -623.57928    149487.38   -47515.435    4070.1106   -51585.545   0.14626559 
   11400    289.58478   -847.08732    149702.51   -47538.492    3976.7496   -51515.242   0.16052342 
   11600    292.43098   -233.95956    148961.06   -47515.331    4015.8353   -51531.166   0.14861276 
   11800    285.60007   -252.53168    148899.48   -47589.765    3922.0291   -51511.794   0.14436429 
   12000    292.78465   -749.22653     149577.9   -47586.043    4020.6921   -51606.735   0.15040269 
   12200    297.80109   -670.34012    149503.49   -47564.295    4089.5809   -51653.876   0.14896327 
   12400    289.64109   -233.92103    148931.59   -47535.701    3977.5229   -51513.224   0.14632023 
   12600    293.69459   -335.20823    149121.38   -47547.748     4033.188   -51580.936   0.14078103 
   12800    289.44432    -755.3908    149596.62   -47553.426    3974.8208   -51528.247   0.15579356 
   13000    290.83221   -539.92863    149325.32    -47535.96      3993.88    -51529.84   0.15635024 
   13200    292.92271    -266.4219    148977.93   -47511.225    4022.5881   -51533.813   0.14586043 
   13400    290.02915   -493.44914    149298.21   -47529.316     3982.852   -51512.168   0.14495104 
   13600    288.48924   -682.67135    149551.78   -47517.769     3961.705   -51479.474   0.14941708 
   13800    292.28827   -426.26494    149246.11   -47514.684    4013.8755    -51528.56   0.14513056 
   14000    293.26224   -334.39597    149054.82   -47536.539    4027.2507    -51563.79   0.14327996 
   14200    289.04475   -569.83159    149331.28   -47561.923    3969.3335   -51531.257   0.15095708 
   14400    290.97197    -639.3874    149419.04   -47585.039    3995.7993   -51580.838   0.15351399 
   14600    288.71002    -414.7278    149119.59    -47582.48    3964.7369   -51547.217   0.15160132 
   14800    286.28068   -383.72351    149115.66   -47565.111    3931.3758   -51496.487   0.14364167 
   15000    288.24539   -653.43197    149402.37   -47616.357    3958.3563   -51574.713   0.15409612 
   15200    285.67899   -623.60158    149323.65   -47670.592     3923.113   -51593.705    0.1561632 
   15400    289.33049   -390.55815    149018.85   -47689.801    3973.2576   -51663.059   0.14909958 
   15600    281.10317   -491.70353    149126.31   -47723.783    3860.2751   -51584.058   0.14684547 
   15800    284.72728   -644.04285    149367.91   -47673.287    3910.0435    -51583.33   0.14925323 
   16000    284.85012   -522.73631    149238.03   -47660.278    3911.7304   -51572.008   0.15021876 
   16200    285.16771   -382.87819    149046.19   -47608.344    3916.0918   -51524.435   0.14806007 
   16400    292.29167   -490.27177    149205.87   -47604.626    4013.9222   -51618.548   0.14616479 
   16600    287.41915   -580.97996    149382.05   -47620.003    3947.0099   -51567.013   0.15212913 
   16800    293.03715   -477.41865    149219.37   -47575.725    4024.1596   -51599.884   0.14860748 
   17000    287.55864   -405.30487    149087.85   -47599.685    3948.9255    -51548.61   0.14358533 
   17200     293.2025   -547.35652    149263.34   -47581.167    4026.4303   -51607.597   0.14663099 
   17400    287.58876   -634.73797     149334.1   -47625.945    3949.3391   -51575.284    0.1519948 
   17600    287.12634   -459.12249     149129.2   -47664.578    3942.9889   -51607.567    0.1446319 
   17800     287.5315    -390.1805    149090.86   -47683.274    3948.5527   -51631.827     0.139172 
   18000    284.36212   -556.69751    149267.76   -47714.269    3905.0289   -51619.298   0.14399777 
   18200    282.59878   -518.85917    149230.46   -47739.609    3880.8137   -51620.423   0.14275607 
   18400    285.64276   -409.83391    149061.72   -47762.153    3922.6154   -51684.769   0.14192974 
   18600    286.81397   -453.89973    149110.72   -47718.729    3938.6992   -51657.428   0.14443944 
   18800    284.88349   -623.45727    149324.11   -47651.722    3912.1888   -51563.911   0.15305477 
   19000    288.96198   -548.37856    149304.53   -47680.731    3968.1969   -51648.928   0.14442545 
   19200    293.31022   -379.97851    149070.91   -47656.411    4027.9096    -51684.32   0.13546078 
   19400    282.88005   -465.90132    149159.76   -47645.658    3884.6763   -51530.334   0.14716636 
   19600    288.59275   -668.81975     149443.5   -47672.848    3963.1265   -51635.975   0.15113312 
   19800    285.11084   -532.63228       149271   -47670.826    3915.3109   -51586.136   0.14887508 
   20000    287.98795   -341.90219    148987.93    -47663.64     3954.821   -51618.461   0.14182747 
   20200    286.42272   -510.25257    149204.09    -47687.81    3933.3263   -51621.136   0.14570921 
   20400    288.86132    -664.2547    149449.44   -47663.694    3966.8146   -51630.508    0.1492431 
   20600    279.88951   -518.69486    149157.28   -47662.247    3843.6084   -51505.855   0.14984775 
   20800    289.99271   -311.97432    148918.27   -47666.436    3982.3515   -51648.787    0.1437642 
   21000    288.42886   -568.39954    149293.54   -47658.237    3960.8759   -51619.113   0.15083148 
   21200    287.98178   -703.58368     149493.2   -47645.653    3954.7363    -51600.39   0.15021488 
   21400    288.35454   -397.13461    149054.57   -47644.204    3959.8552   -51604.059     0.140916 
   21600    289.02745   -303.81553    148915.02   -47601.665     3969.096   -51570.761   0.14823655 
   21800    292.61278   -627.04905    149460.77   -47548.897    4018.3319   -51567.229   0.14965843 
   22000    292.15213   -763.81396     149552.6   -47553.725     4012.006   -51565.731   0.15161676 
   22200      297.128   -263.90958    148986.14   -47516.493    4080.3376    -51596.83   0.13958457 
   22400    293.56387   -327.01284    149029.27   -47494.343    4031.3928   -51525.736   0.14486102 
   22600    294.37008   -774.16464    149608.56   -47497.086    4042.4641    -51539.55   0.15180149 
   22800    295.78029   -644.35961    149435.18   -47534.261      4061.83   -51596.091   0.14166347 
   23000     293.9605   -177.29831    148834.97   -47555.496    4036.8395   -51592.335   0.14132657 
   23200     291.1717   -395.49943    149109.28    -47548.38    3998.5421   -51546.922   0.14748369 
   23400    292.37054   -817.09484    149668.33   -47552.139    4015.0053   -51567.145     0.150887 
   23600    292.31172   -534.34804     149266.3   -47572.779    4014.1975   -51586.976   0.14496753 
   23800    291.52161   -158.59231    148807.24    -47513.64    4003.3474   -51516.987   0.14395984 
   24000    292.97288   -563.52921    149334.52   -47549.799     4023.277   -51573.076   0.15246861 
   24200    292.40574   -808.62073     149663.9   -47529.066    4015.4887   -51544.555   0.15399228 
   24400    289.24953   -364.19805    149060.55   -47539.391    3972.1457   -51511.537   0.14826304 
   24600    289.35087     -222.793    148869.16   -47540.599    3973.5374   -51514.136   0.14522029 
   24800    293.21346    -658.5737    149488.59   -47459.874    4026.5808   -51486.455   0.14650597 
   25000    293.63449   -719.11577    149598.85   -47458.135    4032.3626   -51490.498   0.15052069 
   25200    297.35958   -308.58133    149006.16   -47487.651    4083.5177   -51571.168   0.14693431 
   25400    290.28341   -330.68991    148985.52     -47550.8    3986.3437   -51537.144   0.15402589 
   25600    291.83847   -725.14855    149497.84   -47569.333    4007.6985   -51577.031   0.14882043 
   25800    291.69129   -627.20877    149413.55   -47545.908    4005.6775   -51551.586   0.14101225 
   26000    290.85424   -292.55062    148948.86   -47527.444    3994.1825   -51521.627   0.14933027 
   26200     290.5296   -355.55827    149084.25   -47573.078    3989.7245   -51562.803   0.14897962 
   26400    288.15736   -734.75399    149489.03   -47593.212    3957.1475    -51550.36   0.14947766 
   26600    289.71322    -572.3254    149296.66    -47604.19    3978.5134   -51582.704   0.14333555 
   26800    288.95023   -302.37151    148956.27    -47610.82    3968.0356   -51578.856    0.1422628 
   27000     286.3088   -434.30346    149202.36   -47610.497    3931.7619   -51542.259    0.1462539 
   27200    282.60586   -711.98061    149524.34   -47601.118    3880.9109   -51482.029   0.15329334 
   27400    289.65972   -503.74237    149223.62   -47568.639    3977.7787   -51546.417   0.14827147 
   27600    291.86787   -286.85454    148975.15   -47575.935    4008.1024   -51584.038   0.14686411 
   27800    287.85039   -585.89608    149309.57   -47569.852    3952.9319   -51522.784   0.14763198 
   28000    291.11552   -659.90827    149465.03    -47556.03    3997.7706   -51553.801   0.14531773 
   28200    290.16169   -398.51746    149077.01   -47577.451     3984.672   -51562.123   0.14809021 
   28400    291.98212   -294.64829    148977.29   -47573.949    4009.6713    -51583.62   0.15074699 
   28600    284.69349   -694.83098    149384.45   -47591.882    3909.5795   -51501.462   0.15340988 
   28800    288.37771   -615.18058    149393.14   -47602.088    3960.1734   -51562.261   0.14412159 
   29000    290.60392   -313.09938    148986.57   -47640.948    3990.7451   -51631.693   0.14146397 
   29200    285.69287   -390.65585    149060.29   -47676.936    3923.3036   -51600.239   0.14893151 
   29400    283.46107   -698.32369    149456.82   -47673.317    3892.6553   -51565.972   0.14703638 
   29600    289.05306   -524.32838    149313.17   -47635.443    3969.4478   -51604.891   0.14300523 
   29800    289.60138   -346.91168    148976.86    -47560.81    3976.9775   -51537.788   0.15059952 
   30000    283.19466   -510.24963    149197.49   -47548.731    3888.9967   -51437.728   0.15329195 
   30200    289.38473   -670.98676    149488.81   -47555.529    3974.0024   -51529.531   0.14826751 
   30400    291.99432   -484.75564    149184.09    -47610.88    4009.8389   -51620.719   0.14285812 
   30600    292.49198   -249.62521     148914.3   -47560.332     4016.673   -51577.005   0.14997678 
   30800    294.10813   -579.31531    149320.54   -47525.759     4038.867   -51564.626   0.14713232 
   31000    290.80193   -740.69411    149568.87   -47509.332    3993.4642   -51502.796   0.14823038 
   31200    295.04426   -372.05211    149109.51   -47516.403    4051.7224   -51568.125   0.14461787 
   31400    297.53044    -250.3901    148933.95   -47515.963    4085.8641   -51601.827   0.14615802 
   31600    288.94651   -612.26298    149417.11   -47573.155    3967.9845   -51541.139   0.14707507 
   31800    289.81785   -648.96132    149518.93   -47543.864    3979.9503   -51523.814   0.14658938 
   32000    294.41214   -325.55011    149018.13   -47519.115    4043.0418   -51562.156   0.15228839 
   32200    289.00038   -343.07194    148999.86   -47553.914    3968.7243   -51522.638   0.15031401 
   32400    286.70017   -753.95625    149562.63   -47543.397    3937.1364   -51480.534   0.15124002 
   32600    292.77206   -635.08995    149442.49    -47529.85    4020.5192   -51550.369    0.1502135 
   32800    295.30419   -120.89229    148770.57   -47531.521    4055.2919   -51586.813   0.14705616 
   33000    289.77504   -434.72092    149080.63    -47520.62    3979.3623   -51499.982   0.14936378 
   33200     293.6391   -951.96628    149871.14   -47505.593    4032.4259   -51538.019   0.14710792 
   33400    294.12588   -541.74339    149269.91   -47471.879    4039.1107    -51510.99   0.15001301 
   33600     290.0921    76.721532    148445.89    -47408.09    3983.7164   -51391.806   0.15326925 
   33800    295.34063   -610.33787    149362.11   -47441.305    4055.7923   -51497.097   0.15113658 
   34000    292.58815   -1063.7445    150050.33    -47452.59    4017.9937   -51470.584   0.15513061 
   34200    293.23013   -263.95792    148979.47    -47494.27    4026.8097    -51521.08   0.14901545 
   34400    293.14111    22.882816    148520.21   -47562.619    4025.5872   -51588.206   0.14476731 
   34600    287.85433   -784.21488    149552.24   -47529.975     3952.986   -51482.962    0.1520738 
   34800    285.13718   -915.56417    149736.63    -47566.38    3915.6725   -51482.052   0.15774525 
   35000     285.8582   -196.74834    148758.79   -47598.771     3925.574   -51524.344   0.14723075 
   35200    286.34658   -177.27551    148758.02   -47587.349    3932.2808    -51519.63   0.14239302 
   35400    287.01977    -799.6144     149581.1    -47542.87    3941.5254   -51484.396   0.14799958 
   35600    288.80468   -706.44132    149478.76   -47536.796    3966.0368   -51502.833   0.15307918 
   35800    290.97632   -203.94768     148842.5   -47542.318    3995.8591   -51538.177   0.15060879 
   36000     291.0874   -420.66403    149083.68   -47544.089    3997.3844   -51541.473   0.14693728 
   36200    290.98502   -766.78569    149577.24   -47554.511    3995.9786   -51550.489   0.14549234 
   36400    290.23228   -547.61251    149250.16   -47584.052    3985.6415   -51569.694   0.14734618 
   36600    288.82188   -230.53154    148879.48   -47561.027     3966.273     -51527.3    0.1459399 
   36800    286.73664    -519.9116    149245.63   -47603.972    3937.6373   -51541.609   0.14566268 
   37000    289.77387   -720.21653    149492.97   -47590.316    3979.3463   -51569.662    0.1455199 
   37200    291.93556   -402.32025    149117.23   -47554.805    4009.0318   -51563.837    0.1406567 
   37400    293.81813   -347.08599    148995.52   -47548.804    4034.8845   -51583.688   0.14329305 
   37600    288.01558   -643.38433    149374.11   -47573.049    3955.2004   -51528.249   0.14736648 
   37800    293.37965   -646.98752     149421.4   -47537.253    4028.8631   -51566.116   0.14603815 
   38000    285.44846   -376.35978    149028.36   -47593.704    3919.9472   -51513.651   0.15043929 
   38200     289.5302   -395.21678    149035.49   -47589.307         3976   -51565.307   0.13971883 
   38400    287.43039   -687.59276    149400.14   -47551.217    3947.1643   -51498.381   0.14789642 
   38600    286.23747     -612.926    149329.65   -47548.775    3930.7823   -51479.557   0.15035227 
   38800    288.23404   -345.34736    149003.97   -47602.061    3958.2004   -51560.261   0.14260214 
   39000    285.12298   -426.17341    149125.68   -47628.595    3915.4775   -51544.073   0.14148073 
   39200     284.8233   -668.73779    149448.93   -47646.774    3911.3621   -51558.136     0.144741 
   39400    285.22672    -554.0389    149267.24   -47639.212    3916.9022   -51556.114   0.14576042 
   39600    284.14597   -340.96376     148964.8   -47712.407    3902.0607   -51614.468   0.14198147 
   39800    288.30625   -456.00913    149178.08    -47699.33    3959.1921   -51658.522   0.13580405 
   40000     287.1094   -680.54939    149439.22   -47708.934    3942.7563    -51651.69   0.14372335 
   40200    291.57641   -475.14774    149181.26   -47685.992    4004.0998   -51690.092   0.14467536 
   40400    285.86009   -316.17771    148978.65   -47682.018       3925.6   -51607.618    0.1406044 
   40600    286.81727   -579.07872    149276.03   -47708.954    3938.7445   -51647.699   0.14342145 
   40800    285.66091    -660.3242     149398.7   -47726.147    3922.8648   -51649.011   0.14628094 
   41000    287.12266   -373.25984    149052.21   -47683.718    3942.9383   -51626.656   0.13847352 
   41200    285.32964   -411.63812    149018.16   -47717.288    3918.3154   -51635.603   0.14252535 
   41400    279.03329   -575.74725    149336.07   -47678.251    3831.8503   -51510.102   0.14540321 
   41600    286.79451   -573.34562    149334.49   -47674.759     3938.432   -51613.191   0.14279288 
   41800    286.73469   -338.76341    149039.95   -47675.353    3937.6104   -51612.964   0.13845565 
   42000    290.67513   -462.80628    149130.63   -47648.664    3991.7229   -51640.387   0.13814808 
   42200     284.2375    -685.6008    149441.97   -47671.562    3903.3176    -51574.88   0.14675785 
   42400    288.79006    -556.3666    149245.57   -47724.676    3965.8361   -51690.512     0.144352 
   42600    285.11716   -307.93173    148877.37   -47753.047    3915.3976   -51668.445   0.13854185 
   42800    286.07336   -443.97524    149146.94   -47753.182    3928.5287   -51681.711   0.13631964 
   43000    284.65909   -769.70116    149552.56    -47703.62     3909.107   -51612.727   0.14220542 
   43200    288.67402   -457.76634    149137.74   -47709.718    3964.2425   -51673.961   0.13913947 
   43400    287.66837   -152.75633    148732.49   -47703.816    3950.4323   -51654.248   0.14153764 
   43600    286.07665   -640.91842    149341.98   -47696.271    3928.5739   -51624.845   0.14233741 
   43800    284.11076   -851.44749    149691.26   -47663.995    3901.5771   -51565.572   0.14343708 
   44000    289.22607   -285.59442    148931.17   -47689.741    3971.8236   -51661.565   0.13794899 
   44200    285.76252   -95.907082    148723.08   -47734.834    3924.2601   -51659.095   0.13618958 
   44400    285.59919    -806.0681    149621.86   -47702.457    3922.0171   -51624.474   0.14968136 
   44600    285.16036   -837.21134    149650.29    -47638.03    3915.9908   -51554.021   0.15004492 
   44800    288.80443   -110.64615    148735.13   -47609.814    3966.0334   -51575.848   0.14247188 
   45000     292.8137   -227.66668    148912.44   -47647.519     4021.091    -51668.61   0.13867931 
   45200    282.91498   -908.39998    149780.61   -47659.002    3885.1559   -51544.158   0.15125187 
   45400    284.32343   -670.33404    149413.36   -47710.853    3904.4977   -51615.351   0.14485999 
   45600    290.73236   -57.820257    148650.19   -47704.774    3992.5088   -51697.282   0.13639636 
   45800    286.91039   -431.19478    149133.75   -47677.795    3940.0233   -51617.818   0.13868853 
   46000    287.23686     -870.787     149740.2   -47668.563    3944.5066    -51613.07   0.14917816 
   46200    282.46044   -509.04086    149196.54   -47705.847    3878.9139   -51584.761   0.14575792 
   46400    290.49498   -139.91537    148748.02   -47691.923     3989.249   -51681.172   0.13515447 
   46600    285.61337   -571.55349    149311.43   -47687.208    3922.2118    -51609.42   0.14385449 
   46800    287.14805   -801.99772    149591.47   -47648.461     3943.287   -51591.748   0.14999156 
   47000    289.55889   -366.54918    149039.42   -47630.978     3976.394   -51607.372   0.14402692 
   47200    290.02643   -275.81893    148900.92   -47602.931    3982.8147   -51585.745   0.14371018 
   47400    289.70209   -640.56303    149411.52   -47530.287    3978.3606   -51508.648   0.14845319 
   47600    290.55263   -704.02678    149481.22    -47503.12    3990.0407    -51493.16   0.15086344 
   47800    293.72524    -356.5266    149048.36   -47475.878    4033.6089   -51509.487   0.14261708 
   48000    290.88319   -377.42538    149065.48   -47480.039    3994.5801   -51474.619   0.14835874 
   48200    294.72224   -694.86174    149487.51   -47477.051    4047.3003   -51524.351    0.1569808 
   48400    291.14495   -613.13035    149392.74   -47457.301    3998.1748   -51455.476   0.15464638 
   48600    289.90073   -353.23729    148968.49   -47524.376    3981.0885   -51505.465   0.14945732 
   48800    290.27964   -396.90974    149100.48   -47465.751    3986.2919   -51452.042    0.1530019 
   49000    296.82989   -647.27112    149501.61   -47439.455    4076.2437   -51515.699   0.15499112 
   49200    295.67895   -555.08798     149298.2   -47475.741    4060.4383   -51536.179   0.15244203 
   49400    290.32736   -302.52647    148939.78   -47488.318    3986.9472   -51475.265   0.14761157 
   49600    296.70991   -526.16869    149211.18   -47505.217    4074.5961   -51579.813   0.14577411 
   49800    297.23425   -726.02875    149496.07   -47482.284    4081.7967    -51564.08   0.15335867 
   50000    292.20818   -449.69933    149197.18   -47485.106    4012.7757   -51497.881   0.14747052 
   50200    287.01948    -315.9178    149002.51   -47523.345    3941.5214   -51464.866   0.14843686 
   50400    290.42245   -566.95827    149327.06   -47525.884     3988.253   -51514.137   0.14777309 
   50600    293.70985   -654.98247    149442.24   -47546.044    4033.3975   -51579.441   0.14554846 
   50800    295.18706   -372.02766    149079.49   -47560.129    4053.6834   -51613.812   0.14677332 
   51000     296.6288   -354.69127    149072.12    -47496.94    4073.4823   -51570.423   0.14539122 
   51200    289.60285   -646.82808    149464.79   -47524.521    3976.9977   -51501.518   0.14980462 
   51400    286.80649   -619.15061    149410.77   -47488.171    3938.5965   -51426.768   0.15257226 
   51600    294.42081   -327.29458     149029.4   -47492.789    4043.1609   -51535.949   0.14563375 
   51800    294.48233   -417.43503    149158.56   -47488.474    4044.0057    -51532.48   0.14578485 
   52000     292.9652   -694.21139    149534.59   -47447.182    4023.1716   -51470.354   0.15372067 
   52200     291.0225   -564.34703     149351.9   -47419.566    3996.4932    -51416.06   0.15391618 
   52400     291.5839   -301.09191    148974.55   -47403.767    4004.2027    -51407.97   0.15386946 
   52600     292.2924   -467.15944    149231.27   -47441.557    4013.9322   -51455.489   0.15367618 
   52800    288.70274   -751.23175    149563.83   -47455.767    3964.6369   -51420.404    0.1604581 
   53000    292.64016   -464.19139    149215.03   -47465.019    4018.7079   -51483.727   0.14990154 
   53200    293.97817   -266.66997    148952.02    -47475.55    4037.0823   -51512.632    0.1480783 
   53400    284.31528   -593.01014    149359.86   -47501.702    3904.3857   -51406.088   0.15590685 
   53600    290.31431   -734.52176    149546.47   -47526.733     3986.768   -51513.501    0.1546569 
   53800    296.94037   -320.45647    149030.09   -47507.027    4077.7609   -51584.788   0.14379068 
   54000    297.32005   -280.76511    148903.11    -47498.62    4082.9749   -51581.595   0.14638805 
   54200    288.77874   -716.04534    149520.86   -47501.379    3965.6806   -51467.059   0.15134284 
   54400    296.10433   -690.77025    149561.08   -47527.025    4066.2799   -51593.305   0.14120702 
   54600    292.03296   -175.78425    148801.14   -47526.454    4010.3695   -51536.824   0.14666962 
   54800    291.19127   -246.38865    148902.33   -47470.615    3998.8109   -51469.426   0.15374477 
   55000    291.67693   -904.50533    149783.22   -47465.708    4005.4803   -51471.189   0.15500287 
   55200    293.99264   -703.32833    149490.45   -47498.031    4037.2809   -51535.312     0.148624 
   55400    290.15954    51.979651    148515.39   -47526.479    3984.6425   -51511.121   0.14624596 
   55600    294.78731   -335.99066    149063.03    -47564.37    4048.1938   -51612.564   0.14804327 
   55800    290.46947   -1077.3244    150032.13   -47525.118    3988.8987   -51514.017   0.15423535 
   56000    295.19804   -519.02678    149306.78   -47517.066    4053.8342     -51570.9   0.14233279 
   56200    287.26756   -6.5940268    148552.13   -47555.202    3944.9282    -51500.13     0.149387 
   56400    289.39771   -603.94845    149370.29   -47555.893    3974.1806   -51530.074   0.14898415 
   56600    284.79848   -975.08649    149878.07   -47551.779    3911.0213     -51462.8   0.15210231 
   56800    290.56164   -360.26953    149049.67   -47509.782    3990.1645   -51499.946   0.15155951 
   57000     291.6123   -127.33652    148738.24   -47519.022    4004.5928   -51523.614   0.14855315 
   57200    291.00325   -704.34011     149441.1   -47546.006    3996.2289   -51542.235   0.15277789 
   57400    286.79677   -782.67788    149548.54   -47561.826     3938.463   -51500.289   0.15624777 
   57600    295.53751   -327.66609    148955.02   -47556.247     4058.496   -51614.743   0.15029996 
   57800    284.38676   -345.22139    148983.39    -47567.91    3905.3673   -51473.278    0.1509238 
   58000    293.04485   -658.70169    149452.63   -47578.078    4024.2653   -51602.343   0.14237283 
   58200    290.27117   -587.23472    149351.87   -47617.363    3986.1755   -51603.539   0.14259091 
   58400    289.42349   -275.89454    148927.85   -47612.403    3974.5347   -51586.938    0.1443431 
   58600    286.58785   -394.67809    149105.78   -47591.412     3935.594   -51527.006   0.14660159 
   58800    287.23602   -713.18015     149503.2   -47620.508     3944.495   -51565.003   0.14994551 
   59000    286.58577    -491.9342    149250.13   -47645.857    3935.5654   -51581.423   0.14072293 
   59200    288.33849   -254.33934    148927.42   -47647.991    3959.6348   -51607.625   0.14199121 
   59400    291.46189   -502.03651    149242.81   -47589.705    4002.5272   -51592.232   0.14687294 
   59600    286.37767   -712.99777    149501.87   -47582.919    3932.7077   -51515.627   0.14720856 
   59800    289.30735   -449.08141    149145.01   -47571.838    3972.9398   -51544.778   0.14523281 
   60000     290.7874   -348.47732     149019.2   -47561.403    3993.2648   -51554.668   0.14737401 
   60200    295.96934   -634.38213    149437.67   -47530.953    4064.4262    -51595.38   0.14748128 
   60400    294.07445   -631.38511    149481.41   -47498.346    4038.4044   -51536.751   0.14599658 
   60600    291.81573   -311.68493    149075.01   -47541.752    4007.3864   -51549.138   0.14282229 
   60800    292.39776   -360.91774    149114.03    -47481.28    4015.3791   -51496.659   0.14929937 
   61000    286.44061   -713.88779    149492.28   -47518.448     3933.572    -51452.02   0.15441746 
   61200    294.26477   -509.21223    149320.14   -47524.687     4041.018   -51565.705   0.14597727 
   61400    291.66255   -266.78611    148971.97   -47523.995    4005.2827   -51529.277   0.14736114 
   61600    288.83086   -472.41827    149212.62   -47514.373    3966.3963   -51480.769   0.14729001 
   61800     289.1536   -724.41323    149538.42   -47511.618    3970.8283   -51482.446   0.14451632 
   62000    290.79061   -469.45462     149243.9   -47538.909    3993.3087   -51532.218   0.14492516 
   62200     294.3258   -294.67488    148999.47    -47552.78    4041.8561   -51594.636   0.14540505 
   62400    293.87974    -570.4044    149351.69   -47510.486    4035.7305   -51546.217   0.14466448 
   62600    292.76716   -708.83513    149513.67   -47530.041     4020.452   -51550.493   0.14448576 
   62800    289.46942   -392.00102    149108.76   -47508.478    3975.1655   -51483.643   0.14818756 
   63000    296.97332   -329.26232    149024.97   -47477.325    4078.2134   -51555.538   0.14422026 
   63200    294.05033   -710.72373    149453.15   -47479.483    4038.0732   -51517.557   0.15328838 
   63400    295.36377   -661.07989    149436.52   -47435.605    4056.1101   -51491.715   0.15067868 
   63600    296.25865   -323.92037    149020.72   -47419.329    4068.3992   -51487.728   0.14669572 
   63800     292.7054   -412.68444     149135.9   -47447.053    4019.6038   -51466.657   0.14721058 
   64000    297.44833   -664.78588    149539.56   -47436.746    4084.7365   -51521.483   0.14649762 
   64200    293.18743   -527.95117     149346.2   -47438.443    4026.2233   -51464.666   0.15110183 
   64400    296.85636   -305.54787    148957.63   -47429.413    4076.6073    -51506.02   0.14827897 
   64600    293.13422   -524.46673    149237.76   -47483.712    4025.4927   -51509.204   0.14816635 
   64800    292.25889    -725.7451    149563.52   -47491.347    4013.4721   -51504.819   0.15132254 
   65000    295.97522   -476.96776    149202.97   -47483.483    4064.5069    -51547.99   0.14532315 
   65200    291.23275   -300.24531    148909.61   -47511.829    3999.3805   -51511.209   0.15232589 
   65400    293.43454   -605.73312     149348.1   -47534.992    4029.6168   -51564.609   0.14704956 
   65600    291.59645   -734.74833     149574.6   -47556.237    4004.3751   -51560.612   0.14441052 
   65800    287.38622   -362.08763    148995.94   -47535.043    3946.5577   -51481.601   0.15113689 
   66000    294.62529   -213.75183    148883.26   -47536.294    4045.9689   -51582.263   0.14329659 
   66200    289.18059   -746.08075    149603.79   -47555.781     3971.199    -51526.98   0.14781477 
   66400     293.2382   -733.33581    149579.34    -47550.62    4026.9205    -51577.54   0.14326411 
   66600    290.15203    -161.1796    148766.14   -47569.705    3984.5394   -51554.244   0.14650879 
   66800     291.3908   -252.95818     148956.8   -47552.711    4001.5509   -51554.262   0.14447747 
   67000    289.32367   -903.83678    149837.03   -47574.176    3973.1639    -51547.34    0.1481475 
   67200    288.46038   -695.30038    149447.52   -47598.895    3961.3087   -51560.204   0.14999366 
   67400    288.62044    2.5935321    148561.45   -47637.134    3963.5067   -51600.641   0.14572328 
   67600    293.15018   -402.19542    149134.15   -47591.867    4025.7118   -51617.579   0.14322918 
   67800    292.56042   -1007.2992     149895.6   -47530.208    4017.6128   -51547.821    0.1512565 
   68000    290.36772   -480.35828     149209.3   -47531.893    3987.5014   -51519.394   0.15110989 
   68200    285.66022   -52.374099    148632.96   -47605.944    3922.8552   -51528.799   0.14355749 
   68400    295.13964   -551.66027    149299.65   -47548.114    4053.0323   -51601.147   0.14358808 
   68600     289.1237    -858.0783    149692.98   -47527.436    3970.4178   -51497.854   0.15209359 
   68800    290.49626   -367.26393    149109.85   -47499.604    3989.2666    -51488.87   0.14995686 
   69000    292.79384   -264.93552    148945.08   -47547.426    4020.8184   -51568.244   0.14786789 
   69200    290.31121   -639.98355    149402.66   -47549.494    3986.7253   -51536.219   0.14950456 
   69400    291.10457     -684.911    149432.98   -47588.329    3997.6203   -51585.949   0.14999093 
   69600    289.57487   -367.16662    149037.45   -47603.408    3976.6135   -51580.022   0.14677048 
   69800    289.05053    -438.8694    149060.65   -47570.236    3969.4129   -51539.649   0.15256782 
   70000    290.83414   -632.79885    149400.12   -47527.737    3993.9065   -51521.644   0.14956396 
   70200    294.48765   -557.53916    149338.66   -47511.156    4044.0787   -51555.235   0.14225527 
   70400    294.56598    -424.1127    149050.34   -47527.483    4045.1544   -51572.637   0.14589475 
   70600    290.39804    -441.3187     149122.5   -47499.496    3987.9178   -51487.414   0.14769875 
   70800    292.70929   -620.65797    149398.59   -47521.267    4019.6572   -51540.924   0.15069219 
   71000    292.84859   -561.87328     149291.5   -47567.495    4021.5701   -51589.065   0.14422007 
   71200    287.85337   -341.22839    148998.47   -47577.325    3952.9729   -51530.298   0.14799743 
   71400    294.70918   -443.59177    149166.87   -47545.492    4047.1209   -51592.612   0.14819578 
   71600    290.93214    -695.9724    149496.61   -47520.044    3995.2524   -51515.297   0.15091324 
   71800    294.43893   -501.42152    149273.79   -47541.474    4043.4096   -51584.884   0.14538028 
   72000    288.12699   -314.56541    148958.35   -47568.482    3956.7304   -51525.212   0.14811886 
   72200    289.27794   -494.32224    149180.44   -47602.325    3972.5359   -51574.861   0.14799091 
   72400    289.97577   -686.82996    149429.72   -47582.391    3982.1189    -51564.51   0.14634054 
   72600     290.3262   -454.74689    149140.04   -47549.414    3986.9312   -51536.345   0.14677534 
   72800    286.87716   -308.97798    148944.96   -47627.286     3939.567   -51566.853   0.14723685 
   73000    287.60658   -570.91229    149278.71   -47623.109    3949.5838   -51572.693   0.14415682 
   73200    288.60609   -672.85238    149411.51   -47634.295    3963.3097   -51597.605   0.14971304 
   73400    291.63188    -398.7401    149092.97   -47631.788    4004.8616   -51636.649   0.14645898 
   73600    286.46895   -371.02035     149062.6   -47615.222    3933.9612   -51549.183   0.14549025 
   73800    288.35023   -670.12356    149376.43   -47608.441     3959.796   -51568.237    0.1530423 
   74000    284.70599   -620.60784    149328.36   -47654.902    3909.7512   -51564.653   0.14931519 
   74200    288.95996   -284.78566    148981.03   -47653.739    3968.1692   -51621.908   0.14266603 
   74400     289.9423   -449.61763    149118.77   -47616.278    3981.6593   -51597.938   0.14429047 
   74600    288.73498   -694.20395     149456.1   -47635.617    3965.0796   -51600.697   0.14997798 
   74800    290.63883   -522.60111    149237.48   -47647.668    3991.2244   -51638.892    0.1467401 
   75000    292.97511   -276.40226    148941.34   -47613.732    4023.3076   -51637.039   0.14076358 
   75200    289.19471   -546.69656    149254.86   -47598.803     3971.393   -51570.196   0.14698373 
   75400    291.53655   -697.88815    149498.87   -47584.225    4003.5525   -51587.777   0.14906175 
   75600    295.82275   -423.71406    149127.01   -47567.052     4062.413   -51629.465   0.14771773 
   75800    288.32528   -311.88301    148936.64   -47545.235    3959.4534   -51504.688   0.14843412 
   76000    295.29574   -673.53588    149370.62   -47528.547    4055.1759   -51583.723   0.15343682 
   76200    293.40012   -732.43755    149467.78   -47553.157    4029.1441   -51582.301   0.15491156 
   76400     290.1583   -349.84104    148954.83   -47526.102    3984.6255   -51510.727   0.15484963 
   76600    293.73665   -307.49758    148969.35    -47512.71    4033.7656   -51546.475   0.14461462 
   76800    296.05656   -725.54073    149563.21   -47508.195    4065.6239   -51573.819   0.14892576 
   77000     297.9531   -657.34874    149430.76   -47512.179    4091.6684   -51603.848   0.14632436 
   77200    292.61693   -151.84972    148743.06   -47561.807    4018.3888   -51580.196   0.14741052 
   77400    294.91376   -352.07525    149024.52   -47551.711    4049.9303   -51601.641   0.14523447 
   77600    286.02882   -914.51891     149788.9   -47559.069     3927.917   -51486.986   0.15516937 
   77800    290.47916   -566.33142    149301.59   -47576.494    3989.0317   -51565.525   0.14711559 
   78000    292.01065     22.39303    148520.87   -47581.404     4010.063   -51591.467    0.1473613 
   78200    288.61169   -524.92384    149246.84   -47573.567    3963.3865   -51536.954   0.15174022 
   78400    284.88042   -1055.5236    149965.11   -47583.654    3912.1465   -51495.801   0.15340635 
   78600    290.28015   -400.79145    149057.47   -47611.746    3986.2989   -51598.045    0.1471685 
   78800    289.12586    25.210456    148550.24   -47600.595    3970.4474   -51571.042    0.1404565 
   79000    293.22376   -702.78466    149518.53   -47578.464    4026.7223   -51605.186   0.14282203 
   79200    288.20003   -908.22635    149745.33   -47584.701    3957.7334   -51542.434   0.15047484 
   79400    293.50577   -202.60589    148848.48   -47545.296     4030.595   -51575.891   0.14543341 
   79600    290.71774   -202.67941    148847.44   -47536.046    3992.3081   -51528.354   0.14706597 
   79800    291.40608   -798.38654    149607.19   -47556.667    4001.7607   -51558.428   0.14933054 
   80000    291.69865    -651.7467    149426.26   -47528.921    4005.7786     -51534.7   0.14781979 
   80200     294.9938   -190.77442    148821.54   -47498.376    4051.0295   -51549.405    0.1502043 
   80400     292.4823   -452.95339    149133.88   -47467.291    4016.5401   -51483.832   0.15195343 
   80600    295.53442   -780.82474    149635.19   -47483.637    4058.4535    -51542.09   0.15353676 
   80800    292.23733   -533.17717    149282.05   -47429.736     4013.176   -51442.912   0.15526479 
   81000    290.32225   -274.65161    148888.13   -47484.565     3986.877   -51471.442   0.14776988 
   81200    294.28949   -475.47699    149253.95    -47461.88    4041.3575   -51503.238   0.14749214 
   81400    297.37119   -746.40491    149569.33   -47435.899    4083.6773   -51519.576   0.15480579 
   81600    297.84484   -458.89801    149176.48    -47457.95    4090.1817   -51548.132   0.15442757 
   81800    295.65988   -264.29413    148915.02   -47462.422    4060.1764   -51522.599   0.15324912 
   82000    296.25065   -603.69773    149368.04   -47425.196    4068.2893   -51493.485   0.15257732 
   82200     288.3865   -702.63108    149543.19    -47466.79    3960.2941   -51427.084   0.15555011 
   82400    293.13098   -370.88195    149062.41    -47473.25    4025.4482   -51498.698   0.15073291 
   82600    290.24091   -313.76606    148951.57   -47519.612    3985.7599   -51505.372   0.14898445 
   82800    290.01066   -666.85031    149423.72   -47555.735     3982.598   -51538.333   0.15171689 
   83000    291.62861   -652.26909    149415.15   -47539.079    4004.8167   -51543.896   0.15111685 
   83200    287.22912   -342.96861    148953.68   -47563.087    3944.4003   -51507.487   0.14813206 
   83400    289.80707   -420.89641    149050.21   -47584.187    3979.8022    -51563.99   0.14678669 
   83600    287.04001   -710.75227    149459.28   -47595.857    3941.8033   -51537.661   0.15132215 
   83800    288.39824   -544.67799    149276.61   -47546.711    3960.4553   -51507.166   0.15135906 
   84000     289.2622   -324.56687     148983.3   -47578.822    3972.3198   -51551.141   0.14660104 
   84200    289.42111   -444.77011       149222   -47565.515     3974.502   -51540.017   0.14556726 
   84400    290.59856   -669.76072    149479.47   -47567.372    3990.6714   -51558.043   0.15038198 
   84600    287.34465   -500.02203    149177.33   -47566.186    3945.9868   -51512.173    0.1517018 
   84800    285.82578   -315.40264    148963.61   -47577.731    3925.1287    -51502.86   0.14686545 
   85000     292.8927   -528.06697    149320.19   -47540.432     4022.176   -51562.608    0.1469382 
   85200    290.40449   -675.15672    149479.95   -47508.338    3988.0064   -51496.345   0.15270119 
   85400    294.08725   -409.34137    149138.08   -47498.334    4038.5802   -51536.914   0.14498202 
   85600    292.89029   -375.83731    149080.91   -47497.179    4022.1428   -51519.322   0.14585008 
   85800    290.72312   -610.46137    149411.18   -47509.302     3992.382   -51501.684   0.15007792 
   86000    296.79614   -615.78186     149420.4   -47462.861    4075.7802   -51538.641   0.15098366 
   86200    288.85277   -419.52593    149100.06   -47475.658    3966.6973   -51442.355   0.15367112 
   86400     291.4038   -407.10142    149128.61    -47469.71    4001.7295   -51471.439   0.14899466 
   86600    296.74104   -660.35904    149450.62   -47466.994    4075.0236   -51542.017   0.15347136 
   86800    293.85351   -539.24519     149370.4   -47497.721    4035.3703   -51533.091   0.14837731 
   87000    289.40202   -322.22211    149045.08   -47521.989    3974.2398   -51496.229   0.14341934 
   87200    293.56508   -430.77894    149187.73   -47491.629    4031.4095   -51523.038   0.14410907 
   87400     295.0242   -683.14497    149507.52   -47451.942     4051.447   -51503.389    0.1489491 
   87600    291.87167   -539.47837    149300.92   -47519.336    4008.1545   -51527.491   0.14433418 
   87800      295.704   -301.12736    148970.09   -47528.994    4060.7823   -51589.776   0.14108382 
   88000    291.22183   -492.46613    149244.53   -47478.538    3999.2305   -51477.769   0.14960176 
   88200    287.06921   -776.60125    149569.47   -47486.953    3942.2044   -51429.157   0.15725611 
   88400    293.36483   -448.25729    149183.27   -47476.109    4028.6595   -51504.769    0.1490619 
   88600    292.05802   -215.84678    148886.05    -47493.36    4010.7135   -51504.073   0.14604336 
   88800    290.94201   -589.70031     149442.4   -47480.099    3995.3879   -51475.487   0.14846619 
   89000    294.01122   -835.41434    149691.11   -47498.909     4037.536   -51536.446   0.15197157 
   89200    290.30992   -294.18426    148947.47   -47477.563    3986.7077    -51464.27   0.14756843 
   89400    296.51064   -129.72043    148794.51   -47451.708    4071.8596   -51523.567   0.14414604 
   89600    290.82105   -873.62921    149666.92   -47468.415    3993.7268   -51462.142   0.15137922 
   89800    294.07372   -787.33221    149660.57   -47501.934    4038.3944   -51540.329   0.14670246 
   90000     294.3418   -88.337044    148701.91   -47525.123    4042.0758   -51567.198   0.14326819 
   90200    290.11084   -232.73169    148886.45   -47571.399    3983.9737   -51555.372   0.14645462 
   90400    289.19381   -948.08405    149814.62   -47583.013    3971.3805   -51554.393   0.15459137 
   90600    288.62157   -682.53619    149449.81   -47577.798    3963.5222    -51541.32   0.15056629 
   90800     292.3432   -86.221853    148635.66   -47608.017    4014.6299   -51622.647   0.14185823 
   91000    289.58371   -436.42879    149106.66   -47607.238    3976.7349   -51583.973   0.14690518 
   91200    291.66443   -893.81089    149747.24   -47613.664    4005.3086   -51618.973   0.14800831 
   91400    287.55315   -492.61707    149239.82    -47607.91    3948.8501    -51556.76   0.14620876 
   91600    292.87281    -171.5141    148804.37   -47616.261    4021.9028   -51638.164    0.1404101 
   91800    287.39976   -554.28367    149314.86   -47590.587    3946.7437   -51537.331   0.14584333 
   92000    294.14304   -728.93775    149612.23   -47602.826    4039.3464   -51642.173   0.14303707 
   92200     288.4398    -424.3334    149124.33   -47629.372    3961.0261   -51590.398   0.14485894 
   92400    291.61438   -285.99026    148934.29   -47610.315    4004.6213   -51614.936   0.14775399 
   92600    284.57362   -578.57729    149339.05   -47662.981    3907.9334   -51570.915   0.14762018 
   92800    287.60821   -678.37084    149396.97   -47632.116    3949.6062   -51581.722   0.15136952 
   93000     293.7941   -358.83528     149035.1   -47562.606    4034.5545    -51597.16   0.14701546 
   93200    289.51995   -364.49499    149093.03    -47561.65    3975.8593   -51537.509   0.15040026 
   93400    292.21931   -628.60269    149429.65     -47561.6    4012.9286   -51574.528   0.15143615 
   93600    293.91197   -567.04279    149331.39   -47545.314    4036.1731   -51581.487   0.14402915 
   93800    289.99671   -389.26731    149062.02   -47538.253    3982.4065   -51520.659   0.14791637 
   94000    288.29621   -470.13271    149203.43   -47538.011    3959.0542   -51497.065   0.15071851 
   94200    285.77627   -656.45576    149422.61   -47617.784    3924.4489   -51542.233   0.14996381 
   94400    288.64876   -513.83833    149212.12   -47603.323    3963.8956   -51567.219   0.14574177 
   94600    291.79348   -314.68754     149010.7    -47601.73    4007.0808   -51608.811   0.14264689 
   94800    285.86015   -570.91266    149264.16   -47652.383    3925.6008   -51577.983   0.15525957 
   95000    286.33455   -609.71484    149393.37   -47656.521    3932.1155   -51588.636   0.14845971 
   95200    289.76209   -397.15221    149086.64   -47666.236    3979.1845   -51645.421   0.14390822 
   95400    287.86284    -376.4929    148998.39   -47679.142     3953.103   -51632.245   0.14544542 
   95600     287.7632   -588.62163    149345.72   -47638.991    3951.7346   -51590.726   0.14367247 
   95800    290.83695   -624.87031    149415.72    -47601.71    3993.9452   -51595.655   0.14643215 
   96000     292.1199   -383.87507    149057.55    -47596.93    4011.5633   -51608.494   0.14482351 
   96200    283.69786   -397.02392    149063.12    -47638.29     3895.907   -51534.197   0.14702329 
   96400    289.33165   -669.33173    149397.97   -47630.517    3973.2735    -51603.79   0.14398552 
   96600    291.57051   -582.86904    149360.47   -47642.764    4004.0188   -51646.783   0.14124908 
   96800    285.37395   -369.42533     149027.2   -47696.069     3918.924   -51614.993   0.14780495 
   97000    284.54353   -417.10493    149097.12   -47679.135    3907.5201   -51586.655   0.14860949 
   97200    288.26521   -670.46561    149441.55   -47662.403    3958.6285   -51621.031   0.14655879 
   97400    286.78765   -586.83601    149315.21   -47617.596    3938.3378   -51555.933   0.14912488 
   97600    291.04186   -295.26613    149007.69   -47592.543     3996.759   -51589.302   0.14550947 
   97800    293.07419    -460.8653    149213.79    -47586.48    4024.6682   -51611.148    0.1464898 
   98000    290.48917   -655.11993    149487.31    -47554.27    3989.1693   -51543.439   0.14914318 
   98200    286.46476   -483.19106    149195.25   -47567.668    3933.9036   -51501.571   0.14804258 
   98400    291.08864   -269.94446    148938.24   -47499.346    3997.4015   -51496.747    0.1484447 
   98600    294.64275   -569.42927    149345.81   -47546.176    4046.2086   -51592.384   0.14769382 
   98800    292.19673   -743.28108    149563.71   -47504.942    4012.6184   -51517.561   0.15331671 
   99000    292.54634   -359.87227    149034.83    -47512.13    4017.4195   -51529.549   0.14971626 
   99200    289.44372   -220.96965    148869.43   -47578.696    3974.8124   -51553.509   0.14526643 
   99400    292.50416    -689.4967    149509.32   -47667.665    4016.8403   -51684.506    0.1424337 
   99600    288.97724   -730.73804    149547.55    -47689.61    3968.4066   -51658.017    0.1446147 
   99800    288.08603   -218.59908    148806.18   -47666.469    3956.1679   -51622.637   0.14483594 
  100000    290.64393   -273.58714    148899.63   -47667.637    3991.2945   -51658.932   0.14089748 
  100200    285.13126    -887.2182    149696.71   -47617.437    3915.5913   -51533.029   0.14907958 
  100400     282.7144   -661.05992    149404.39   -47616.068    3882.4015   -51498.469    0.1433182 
  100600    289.11661   -57.147522    148637.87   -47570.976    3970.3204   -51541.296    0.1452302 
  100800    287.56721   -436.35477    149135.93   -47599.425    3949.0431   -51548.468   0.14490306 
  101000    289.24585    -964.4341    149813.46   -47574.263    3972.0952   -51546.358   0.15035524 
  101200    288.40572    -469.7442    149170.41   -47559.134    3960.5581   -51519.693   0.14887852 
  101400    292.94062   -54.759548    148637.38   -47568.653     4022.834   -51591.487   0.14612151 
  101600    290.46162   -611.26273    149328.12   -47582.126    3988.7909   -51570.917   0.15194585 
  101800    287.12936   -875.05639    149686.76   -47544.041    3943.0303   -51487.071   0.15495985 
  102000    292.74957   -374.20266    149009.62   -47551.343    4020.2103   -51571.553   0.14858221 
  102200    292.48184   -201.85563    148814.03   -47544.462    4016.5338   -51560.996   0.14843802 
  102400    290.63042   -646.83521    149420.65   -47482.923    3991.1089   -51474.032   0.14993851 
  102600    293.99429   -664.07572    149489.04   -47494.448    4037.3037   -51531.752   0.14697161 
  102800     298.3568   -371.64872    149059.58   -47509.758    4097.2121    -51606.97   0.14677434 
  103000    289.41662   -389.14659    149075.46   -47503.725    3974.4403   -51478.165   0.14779705 
  103200    295.42727   -599.82466    149387.79    -47481.85    4056.9821   -51538.832   0.14853358 
  103400    292.89318   -588.72586    149344.21   -47510.939    4022.1826   -51533.122   0.15600193 
  103600    292.35673   -433.59284    149121.06   -47515.116    4014.8157   -51529.931   0.15154938 
  103800    294.19039   -451.88142    149177.86   -47520.402    4039.9966   -51560.399    0.1463532 
  104000    297.49031   -531.73107     149342.9   -47527.997     4085.313   -51613.311   0.14061593 
  104200    291.49687   -508.36768    149244.72   -47542.479    4003.0076   -51545.487   0.14901769 
  104400    288.47074   -446.55201    149090.99   -47560.729     3961.451    -51522.18   0.15319172 
  104600    291.27511   -468.56294    149233.58   -47555.118    3999.9622    -51555.08   0.14329034 
  104800     294.3045   -578.21303    149365.68   -47544.245    4041.5637   -51585.809   0.14851865 
  105000    291.05647   -469.80917     149199.5   -47574.973    3996.9597   -51571.933   0.14435242 
  105200     289.4178   -363.32402    149078.32   -47576.407    3974.4565   -51550.863     0.146315 
  105400    288.48778   -542.70826    149223.96   -47566.471     3961.685   -51528.156   0.15702418 
  105600    292.28136   -594.53419    149305.12   -47564.302    4013.7806   -51578.082   0.15556104 
  105800    286.61318   -443.77535    149142.97    -47581.24    3935.9419   -51517.182   0.14895135 
  106000    288.79902   -423.48482    149091.99   -47562.842    3965.9591   -51528.801   0.14781685 
  106200    289.93571   -582.82964    149278.29   -47537.783    3981.5687   -51519.352   0.15479843 
  106400    289.50635   -589.50864    149308.86   -47548.614    3975.6725   -51524.286   0.15437913 
  106600    286.56722   -444.11604    149114.61   -47551.521    3935.3107   -51486.832   0.15560238 
  106800    293.02509   -393.40622    149103.06    -47545.19     4023.994   -51569.184   0.14901664 
  107000    290.62641   -621.92038    149317.58   -47500.692    3991.0539   -51491.745   0.15473836 
  107200    290.96104   -552.12035    149268.14   -47488.435    3995.6492   -51484.084   0.15383811 
  107400    293.92425    -424.1222    149089.55     -47497.2    4036.3418   -51533.542   0.15336139 
  107600    287.84161    -502.5154    149182.74   -47473.769    3952.8114   -51426.581   0.15756835 
  107800    295.49246   -590.65229    149353.39   -47494.486    4057.8774   -51552.364   0.15162119 
  108000      296.281   -552.96405     149223.1   -47471.496     4068.706   -51540.202   0.15443516 
  108200    294.32137   -373.15195    149048.82   -47506.477    4041.7952   -51548.272   0.14969206 
  108400    291.79941   -505.04989    149213.22   -47502.179    4007.1622   -51509.341   0.15223407 
  108600    292.88959   -676.74357    149395.28   -47471.781    4022.1332   -51493.914   0.15631517 
  108800    289.01823   -482.05326     149175.9   -47495.034    3968.9695   -51464.004   0.15504649 
  109000    292.75453   -344.16822    149002.36   -47534.481    4020.2785   -51554.759   0.15013926 
  109200    289.45603   -568.99194    149255.93   -47534.082    3974.9815   -51509.064   0.15650184 
  109400    291.06071   -679.66982    149373.23   -47517.066     3997.018   -51514.084   0.15796354 
  109600    293.92073   -368.76889    149024.45   -47480.585    4036.2935   -51516.878     0.149463 
  109800    290.50439   -388.66907    148995.34   -47533.623    3989.3782   -51523.001   0.15474042 
  110000    294.59554     -627.993    149403.84   -47468.973    4045.5604   -51514.533   0.15597216 
  110200    290.44319   -651.59376    149386.23   -47455.285    3988.5378   -51443.823   0.16017084 
  110400    291.06571   -336.32271    148979.14   -47510.306    3997.0866   -51507.393   0.15246122 
  110600    290.29788   -401.17523    149089.03   -47583.756    3986.5423   -51570.299   0.15100402 
  110800    292.71929   -705.16863    149497.66   -47576.612    4019.7946   -51596.407   0.15287411 
  111000    290.15666   -536.83091    149284.83   -47579.652     3984.603   -51564.255    0.1504655 
  111200    290.75429   -240.65062    148880.64   -47570.732      3992.81   -51563.542   0.14948559 
  111400    290.66326   -502.95777    149179.23   -47623.938    3991.5599   -51615.497   0.14892937 
  111600     284.2244   -761.29045    149509.85   -47672.303    3903.1378   -51575.441   0.14974267 
  111800    286.35017   -424.90639    149114.25   -47707.684      3932.33   -51640.014   0.14108988 
  112000    287.76924   -237.46133    148827.67   -47702.299    3951.8175   -51654.116   0.14450799 
  112200    286.47521   -570.71706    149286.04   -47657.995    3934.0472   -51592.042   0.15145633 
  112400    287.28936   -740.23439    149505.87    -47623.05    3945.2276   -51568.278   0.15113415 
  112600    292.07807     -370.113    149007.43   -47602.581    4010.9889    -51613.57   0.14742979 
  112800    286.19659   -266.89711    148915.42   -47619.759     3930.221    -51549.98   0.15047608 
  113000     284.9675   -712.07728    149494.78    -47594.13    3913.3424   -51507.472   0.15291656 
  113200    289.33847   -706.89502    149469.35   -47629.494    3973.3672   -51602.861   0.15041467 
  113400    285.86534   -206.68791    148830.21   -47613.076    3925.6721   -51538.748   0.14684236 
  113600    290.83418   -300.39511    148962.62   -47618.934    3993.9071   -51612.841   0.14580575 
  113800    292.92472   -820.32044    149641.14    -47596.69    4022.6156   -51619.305   0.15144877 
  114000    287.30156   -662.02108    149429.91   -47582.972    3945.3951   -51528.368   0.15058738 
  114200    291.35309   -212.77933    148809.26   -47599.855     4001.033   -51600.888   0.15243151 
  114400    290.31516   -445.58636    149121.24   -47540.499    3986.7796   -51527.279   0.15371049 
  114600     296.1936   -765.95086    149667.56   -47508.694    4067.5058     -51576.2   0.15156707 
  114800    291.08176   -558.15557    149274.67   -47497.358    3997.3071   -51494.665   0.15397678 
  115000    292.71188   -200.81334    148824.98   -47530.221    4019.6928   -51549.913   0.15076781 
  115200    289.62602   -510.93466    149260.42   -47542.298    3977.3159   -51519.614   0.15229549 
  115400    290.40793   -748.25107    149579.72   -47550.745    3988.0535   -51538.799   0.14988083 
  115600     291.2662   -401.77305    149142.22   -47537.105    3999.8399   -51536.945   0.14849754 
  115800    292.87186    -279.0876    148954.09   -47554.937    4021.8897   -51576.827   0.14776346 
  116000    292.45721    -598.3115     149371.6    -47538.04    4016.1954   -51554.236   0.14900385 
  116200    292.59063   -665.00097    149456.17   -47554.247    4018.0277   -51572.275   0.14785976 
  116400    287.70784    -363.0418    149043.77    -47598.47    3950.9744   -51549.445   0.15047237 
  116600    290.97021   -358.30167    149028.06   -47611.512    3995.7752   -51607.288    0.1474897 
  116800    292.23615   -664.33725    149387.46   -47564.326    4013.1598   -51577.486   0.15389195 
  117000    290.89055   -570.83141    149323.24   -47571.695    3994.6812   -51566.376   0.15161369 
  117200    290.68638   -381.60541    149013.45   -47563.834    3991.8775   -51555.711    0.1502681 
  117400    292.76998   -430.45853    149134.88   -47588.624    4020.4906   -51609.114   0.14598866 
  117600    291.73683   -625.66044    149385.06   -47566.525    4006.3028   -51572.828   0.15077629 
  117800    292.52268   -537.43811     149236.7   -47528.417    4017.0946   -51545.512    0.1516334 
  118000    287.65981   -377.69008    149090.86   -47520.558    3950.3147   -51470.873   0.14577444 
  118200    291.77245   -531.85147    149259.95   -47554.481     4006.792   -51561.273   0.14885044 
  118400    290.53124   -619.24903    149331.69   -47604.377    3989.7469   -51594.124   0.14895899 
  118600    288.84277   -465.49461    149144.08   -47633.235    3966.5599   -51599.795   0.14723389 
  118800    284.41722   -427.45953     149103.2   -47682.494    3905.7856    -51588.28   0.14931516 
  119000    288.52846   -508.65028    149238.57   -47680.777    3962.2436    -51643.02   0.14493922 
  119200    286.41654   -535.06782    149228.16   -47682.385    3933.2415   -51615.627   0.14733938 
  119400    288.01598   -456.82147    149160.29   -47709.122    3955.2059   -51664.327   0.14111543 
  119600    287.25572   -464.07012    149218.62   -47648.329    3944.7656   -51593.094   0.14829665 
  119800    288.26969   -555.58107    149292.96   -47644.103      3958.69   -51602.793   0.14434594 
  120000    287.53523   -479.48469    149195.14    -47663.26    3948.6039   -51611.863   0.14074522 
  120200    290.53391   -394.37928    149145.57   -47636.679    3989.7836   -51626.463   0.14116903 
  120400    288.75715   -575.83664    149295.13   -47682.411    3965.3841   -51647.795   0.14660743 
  120600    288.58733   -530.55509    149241.71    -47676.13     3963.052   -51639.181   0.14646868 
  120800     286.9507   -435.93501    149081.96   -47668.404    3940.5768    -51608.98   0.14791029 
  121000    289.76114   -494.66846    149159.23   -47652.283    3979.1715   -51631.454   0.15132495 
  121200     286.7256   -585.69529    149303.02     -47649.6    3937.4857   -51587.086   0.14938551 
  121400    293.85039   -508.34418    149207.46   -47650.122    4035.3275   -51685.449   0.14385202 
  121600    281.01078   -449.11091    149066.67   -47641.018    3859.0064   -51500.024   0.15071401 
  121800    291.14626   -525.61378    149197.58   -47639.328    3998.1927   -51637.521   0.14957242 
  122000    287.49092   -584.83891     149312.8   -47614.675    3947.9955    -51562.67   0.14952425 
  122200    289.54176   -479.60143    149147.81   -47584.344    3976.1588   -51560.503   0.15169347 
  122400    290.44999   -448.77391     149108.8   -47539.397    3988.6312   -51528.029    0.1522937 
  122600    296.45983    -541.7491    149333.56   -47458.565    4071.1619   -51529.727   0.14733572 
  122800    293.46897   -594.27592     149399.9   -47458.428    4030.0896   -51488.518   0.15175857 
  123000    295.07626    -461.0725    149212.48   -47507.355    4052.1618   -51559.517   0.15072273 
  123200    293.95668   -472.03422    149187.65   -47531.597    4036.7871   -51568.384   0.15082958 
  123400     286.0558   -578.18591    149380.83   -47612.569    3928.2875   -51540.856   0.14327271 
  123600    293.27155   -544.39665    149347.86    -47561.67    4027.3786   -51589.048   0.14297442 
  123800    287.08739   -416.43186    149122.68   -47584.827     3942.454   -51527.281   0.14730727 
  124000    287.77063   -495.08336    149209.57    -47568.02    3951.8366   -51519.856   0.14818434 
  124200    293.77698   -586.66873    149458.44   -47548.835    4034.3194   -51583.154   0.14345343 
  124400    291.26316   -499.77338    149309.78   -47563.893    3999.7982   -51563.691   0.14402632 
  124600    289.13007    -356.9814    149027.98   -47584.793    3970.5052   -51555.299   0.13993544 
  124800    287.03346   -468.81221    149216.59   -47587.786    3941.7134     -51529.5   0.14395681 
  125000    286.12657   -704.08184    149453.99    -47594.67    3929.2595   -51523.929   0.15457433 
  125200    288.48043   -472.76848    149200.37   -47587.122     3961.584   -51548.706   0.15062329 
  125400    288.32066   -324.16314    148991.31   -47657.037    3959.3899   -51616.427   0.14634522 
  125600    289.58969   -542.45721     149277.3   -47649.429    3976.8171   -51626.246   0.14225697 
  125800    285.52969   -687.35002    149452.59   -47637.937    3921.0627   -51558.999   0.14575905 
  126000    289.50505   -441.32048    149106.27   -47608.091    3975.6547   -51583.746   0.14674362 
  126200    291.98352   -314.37276     148993.9   -47589.326    4009.6905   -51599.017   0.14724206 
  126400    292.46735   -612.59024    149417.19   -47615.406    4016.3348   -51631.741   0.14420419 
  126600    284.37401   -691.21299    149426.78   -47639.158    3905.1923    -51544.35   0.14786355 
  126800     289.2557   -291.38651     148945.9   -47613.946    3972.2305   -51586.177   0.14319032 
  127000    287.11235   -376.38014    149036.75   -47630.979    3942.7968   -51573.776   0.14655807 
  127200     284.1395   -758.59948    149548.77   -47660.126    3901.9718   -51562.098   0.15019138 
  127400    285.57162   -613.01546    149346.46   -47660.713    3921.6385   -51582.351   0.14679617 
  127600    284.06972   -224.84338    148875.91   -47657.754    3901.0136   -51558.767   0.14485439 
  127800    284.21973   -491.90692    149188.93   -47646.422    3903.0736   -51549.495   0.14442423 
  128000    283.34625   -809.38265    149597.32   -47640.006    3891.0784   -51531.085   0.14576963 
  128200    286.37412   -462.14835    149186.98   -47608.671    3932.6589   -51541.329   0.14582854 
  128400    284.93868   -236.40155       148870   -47637.585    3912.9467   -51550.532   0.14498389 
  128600    289.26876    -584.9766    149372.07   -47667.696    3972.4098   -51640.106   0.14281483 
  128800     285.5394   -775.88147    149582.29   -47700.414     3921.196    -51621.61   0.14070417 
  129000    285.41035   -336.19237     149010.2   -47738.351    3919.4239   -51657.775   0.13923545 
  129200    281.18027   -262.60291    148914.69   -47696.425     3861.334   -51557.759    0.1402107 
  129400    290.15448   -678.69543    149513.12   -47692.814    3984.5731   -51677.387   0.13925675 
  129600    290.81315   -706.01504     149520.8    -47691.97    3993.6183   -51685.588   0.14467264 
  129800    287.51832   -272.28706    148942.73   -47707.897    3948.3718   -51656.269   0.13886842 
  130000    283.27909   -351.95686    149020.52   -47718.135    3890.1561   -51608.291   0.14066358 
  130200    289.92166   -760.20756    149550.01   -47732.906    3981.3758   -51714.282   0.14049488 
  130400    284.79072   -580.91958    149360.38   -47717.918    3910.9147   -51628.833   0.14039671 
  130600    289.60773   -190.59759    148873.42   -47677.379    3977.0648   -51654.444   0.13653681 
  130800    285.24053   -409.57269    149153.61   -47698.403    3917.0917   -51615.495   0.14090061 
  131000    282.05165   -765.30688    149593.45   -47712.715    3873.3002   -51586.016   0.14634684 
  131200    287.80483   -533.71339    149253.33   -47690.336    3952.3063   -51642.642   0.14162178 
  131400    288.51265   -226.64485    148876.65   -47694.516    3962.0265   -51656.543   0.13956024 
  131600    286.28309   -567.83782     149302.6   -47685.274    3931.4088   -51616.683   0.14572768 
  131800    285.94884   -770.84264    149605.55   -47652.947    3926.8187   -51579.765   0.14825442 
  132000    287.75273   -383.21014    149106.46   -47601.078    3951.5908   -51552.669   0.14312132 
  132200    291.77544    -275.0327     148905.7   -47611.374     4006.833   -51618.207   0.14178652 
  132400     289.9347   -629.57735    149414.02   -47610.285    3981.5549    -51591.84   0.14447913 
  132600    291.19909   -744.87859     149542.4   -47585.071    3998.9183   -51583.989   0.14840787 
  132800    291.33137   -342.93318    149050.06   -47558.898    4000.7349   -51559.633   0.14377254 
  133000    290.92983   -347.61807    149041.89   -47553.702    3995.2206   -51548.922   0.14698355 
  133200    290.90846   -710.84922    149545.86   -47497.787    3994.9271   -51492.714   0.14866963 
  133400     293.0958   -615.78437    149457.55    -47485.08     4024.965   -51510.045   0.14844799 
  133600    298.60417   -235.22127     149023.1   -47501.583    4100.6092   -51602.192   0.13903732 
  133800    290.89358   -423.73319     149207.5   -47520.181    3994.7228   -51514.904   0.14379125 
  134000    291.58866   -679.72636    149549.14   -47466.983    4004.2681   -51471.251   0.15087369 
  134200    291.65478   -494.86094    149282.09    -47482.92     4005.176   -51488.096   0.14706928 
  134400    289.83913   -302.71209    148999.78   -47484.385    3980.2425   -51464.628   0.15118922 
  134600    289.49293   -542.54749    149317.97   -47499.286    3975.4882   -51474.774    0.1494493 
  134800    287.99361   -677.86707    149501.47   -47539.189    3954.8987   -51494.088     0.146967 
  135000    288.62266   -399.46103    149129.93   -47596.458    3963.5372   -51559.995   0.14394756 
  135200    286.65733   -354.66872    149022.08   -47608.323    3936.5481   -51544.871   0.14759395 
  135400    287.98527   -596.43638    149351.97   -47626.963    3954.7842   -51581.747   0.14958315 
  135600    289.90457   -600.99526    149361.12   -47589.715    3981.1411   -51570.856   0.15150802 
  135800    289.37567    -389.7137    149071.36   -47663.229     3973.878   -51637.107   0.14482527 
  136000     285.9379   -468.78661    149122.17   -47695.544    3926.6686   -51622.212   0.14585185 
  136200    289.51128    -599.4874    149342.85   -47704.393    3975.7403   -51680.133   0.14587828 
  136400    289.04494      -527.21    149255.67   -47658.452    3969.3362   -51627.788    0.1459242 
  136600    284.82838   -458.40702    149110.34   -47602.674    3911.4318   -51514.106   0.15262097 
  136800    287.56704   -510.74248     149217.3   -47612.001    3949.0408   -51561.042   0.14522124 
  137000    287.94909   -601.99813    149334.39   -47615.221    3954.2874   -51569.509   0.14760475 
  137200    288.31346   -481.62853    149213.83   -47648.166     3959.291   -51607.457   0.14466728 
  137400    288.07585   -412.09162    149118.82    -47605.41     3956.028   -51561.438   0.14488782 
  137600     287.3169   -553.11717    149250.52   -47596.594    3945.6058     -51542.2   0.15136625 
  137800     291.0281   -521.63217    149314.16   -47569.684    3996.5702   -51566.254    0.1479342 
  138000    285.97037   -490.78229    149209.18   -47568.048    3927.1145   -51495.162   0.15217539 
  138200    283.14675   -475.92476    149167.76    -47618.94    3888.3387   -51507.279   0.15104023 
  138400    291.42755   -524.08102    149280.72   -47604.389    4002.0556   -51606.444   0.14092062 
  138600    287.02681   -499.76694    149294.27   -47616.916     3941.622   -51558.538   0.14322307 
  138800    289.29672   -459.72622     149172.8   -47567.626    3972.7938    -51540.42   0.14654942 
  139000    291.44404   -455.13912    149164.85   -47556.198     4002.282    -51558.48   0.14748373 
  139200    293.88765   -515.06785    149284.96    -47557.06    4035.8392     -51592.9   0.14752654 
  139400    289.70445   -546.67196    149264.77   -47582.661    3978.3929   -51561.054   0.14782094 
  139600    288.08628   -451.13279    149093.37   -47565.715    3956.1714   -51521.886   0.15516681 
  139800    288.44005   -435.00775    149140.66   -47525.624    3961.0295   -51486.654   0.15342101 
  140000    294.59728   -552.28475     149338.1   -47491.309    4045.5842   -51536.893   0.14936494 
  140200    290.71288   -563.14924    149284.51   -47534.128    3992.2413   -51526.369   0.15338621 
  140400    288.52487   -383.68671    149098.36   -47559.814    3962.1942   -51522.008   0.14760723 
  140600    285.91516   -474.66875    149192.68   -47558.586    3926.3562   -51484.942   0.15247143 
  140800    289.86654   -601.06909    149357.78   -47550.218    3980.6189   -51530.837   0.14728269 
  141000    289.92118   -486.58005    149220.42   -47589.173    3981.3693   -51570.542   0.14523802 
  141200     289.5282   -342.18309    149055.79   -47540.939    3975.9726   -51516.912   0.14603282 
  141400     291.0687    -517.4762    149232.55   -47545.442    3997.1277    -51542.57   0.14791616 
  141600    288.87195    -602.6507    149379.17   -47526.157    3966.9606   -51493.118   0.14932943 
  141800    289.72738   -470.12921    149175.39   -47581.549    3978.7079   -51560.257   0.14432563 
  142000    291.11652   -408.34467    149064.53   -47599.173    3997.7844   -51596.958   0.14660938 
  142200    286.07993   -570.41459    149341.18   -47593.713     3928.619   -51522.332   0.14550225 
  142400    289.40948    -664.7687    149416.42   -47597.349    3974.3422   -51571.691   0.14871072 
  142600    289.28106   -376.28502    149095.15   -47590.136    3972.5787   -51562.714   0.14229687 
  142800    289.37836    -366.4293    149092.65   -47594.489    3973.9149   -51568.404   0.13760992 
  143000    285.78794   -678.56658    149452.66   -47653.878    3924.6091   -51578.487   0.14408124 
  143200    288.91707   -583.15118    149341.63   -47622.738    3967.5803   -51590.318   0.14267241 
  143400    290.51056   -266.13559     148940.6   -47589.473    3989.4629   -51578.936   0.14208753 
  143600    290.29873   -432.39126    149165.16   -47577.984     3986.554   -51564.538   0.14389592 
  143800    287.04295   -795.36693    149576.28   -47586.129    3941.8437   -51527.973   0.15355984 
  144000    284.66684   -472.97136    149195.75   -47576.168    3909.2135   -51485.381   0.14984302 
  144200    289.59898    -197.9384    148822.77   -47553.393    3976.9445   -51530.337   0.14640736 
  144400    293.11255   -603.22416       149362   -47553.496     4025.195   -51578.691   0.14813806 
  144600    292.36298   -867.63072    149715.61    -47522.48    4014.9015   -51537.382   0.15295208 
  144800    295.88855   -364.38787     149061.7   -47497.589    4063.3167   -51560.906   0.14691957 
  145000    290.45522    -167.5297    148780.42   -47543.799     3988.703   -51532.502    0.1436321 
  145200    287.95264   -701.17305    149477.64   -47570.018    3954.3361   -51524.355   0.15168645 
  145400    289.98188   -809.35777    149631.77    -47571.08    3982.2028   -51553.283   0.15004561 
  145600    293.64879   -226.46863    148876.64   -47594.826     4032.559   -51627.385   0.14076905 
  145800    295.43127   -205.33391    148861.85   -47611.819     4057.037   -51668.856   0.13678929 
  146000     288.0053   -768.99925     149592.5   -47592.464    3955.0593   -51547.523   0.14736037 
  146200    286.41543   -669.99862     149455.2   -47623.813    3933.2262    -51557.04     0.148887 
  146400    290.90176   -144.52653    148776.61   -47581.163    3994.8352   -51575.998   0.13982297 
  146600    289.44062    -367.5711    149075.74     -47544.4    3974.7699    -51519.17   0.14465438 
  146800    293.69269    -857.4301    149734.68   -47495.661    4033.1619   -51528.823   0.14647069 
  147000    294.33866   -613.98458     149408.9   -47513.465    4042.0326   -51555.498   0.14505403 
  147200    292.92655   -189.33496    148860.16   -47484.343    4022.6407   -51506.984   0.14253075 
  147400    287.44184   -478.38676    149253.77   -47548.629    3947.3214   -51495.951   0.14182631 
  147600     287.6334   -767.93721    149635.94   -47556.507    3949.9521   -51506.459   0.14601931 
  147800    289.45542   -468.34925    149185.84   -47602.751    3974.9731   -51577.724   0.14429338 
  148000     292.2279   -256.09657    148895.51   -47569.722    4013.0464   -51582.768   0.14586088 
  148200    287.21867   -599.18693    149351.12   -47608.752    3944.2568   -51553.009   0.14420665 
  148400    288.61137   -720.54905     149545.4    -47655.81    3963.3821   -51619.192   0.14443484 
  148600    291.20465   -343.95871    149118.66   -47628.962    3998.9946   -51627.957   0.14122797 
  148800     290.2294   -376.92208    149058.29   -47634.103    3985.6018   -51619.705   0.14465889 
  149000    281.59392   -642.29498    149449.91   -47636.684    3867.0144   -51503.698   0.14583161 
  149200    286.30209   -606.49242    149402.21   -47642.968    3931.6698   -51574.638   0.14649844 
  149400     289.3767   -322.06829    148999.41   -47669.202    3973.8921   -51643.094   0.13934905 
  149600    284.12947   -438.96802    149125.48   -47668.028     3901.834   -51569.862   0.14574864 
  149800    289.73747   -643.81229    149448.31   -47652.165    3978.8465   -51631.012   0.14559852 
  150000    285.69475     -525.817    149275.23   -47611.773    3923.3294   -51535.103   0.14539838 
  150200    290.52125    -342.0727    149018.65   -47559.663    3989.6098   -51549.273   0.14236356 
  150400    292.60968   -502.17119    149291.88   -47529.154    4018.2893   -51547.443    0.1419597 
  150600    290.95612   -673.51829    149504.24   -47578.534    3995.5816   -51574.116   0.14791487 
  150800    290.67993   -440.12745     149216.5   -47544.106    3991.7888   -51535.895   0.14242589 
  151000    290.16467   -311.30821    149084.31   -47584.662     3984.713   -51569.375   0.13842297 
  151200    293.74758   -592.03429    149395.87   -47570.791    4033.9157   -51604.706   0.14369915 
  151400    295.81902   -620.09382    149467.79   -47483.586    4062.3619   -51545.948   0.14271723 
  151600    292.68077   -423.75162    149187.92   -47472.588    4019.2656   -51491.853   0.14606718 
  151800    296.88973   -362.09924     149167.7   -47484.687    4077.0655   -51561.752    0.1409665 
  152000    293.16516   -600.17432     149437.3   -47483.668    4025.9176   -51509.586   0.14548038 
  152200    294.99763   -549.24598    149376.36   -47504.487     4051.082   -51555.569   0.14006868 
  152400    292.41141   -391.28429    149075.29   -47555.846    4015.5665   -51571.413   0.14067612 
  152600    294.64227    -456.9492    149146.46    -47524.65     4046.202   -51570.852   0.15322645 
  152800     291.1835   -645.42232    149454.06   -47454.401    3998.7041   -51453.105    0.1538912 
  153000    293.15499   -596.45211    149367.97   -47523.414    4025.7778   -51549.192   0.14581176 
  153200    295.00702   -344.26092     149017.6   -47467.442    4051.2109   -51518.653   0.14752009 
  153400    290.68129   -451.93117    149172.32   -47519.653    3991.8075   -51511.461   0.14941051 
  153600    290.10421   -716.86281    149488.73   -47544.161    3983.8828   -51528.044   0.15262473 
  153800    286.72994   -505.98372    149224.22   -47573.405    3937.5452    -51510.95   0.15084573 
  154000    287.65952    -292.3698    148932.04   -47590.233    3950.3108   -51540.544   0.14467192 
  154200    290.65884   -532.87103     149264.2   -47535.008    3991.4993   -51526.507   0.14787757 
  154400    293.53564   -681.40509     149506.3   -47526.179    4031.0052   -51557.184   0.14480275 
  154600    294.26298   -437.58724    149103.84   -47550.246    4040.9933    -51591.24   0.14742591 
  154800    290.44728   -244.60214    148848.11    -47566.55     3988.594   -51555.144   0.14547026 
  155000    288.94303   -599.93582    149304.03   -47551.557    3967.9367   -51519.493   0.14980008 
[...]
  163200    288.05033    -431.5053     149138.1   -47619.192    3955.6776   -51574.869   0.14378161 
  163400    288.93225   -614.73578    149348.87    -47651.48    3967.7886   -51619.269   0.14397213 
  163600    289.95587   -512.13184    149194.43   -47602.247    3981.8457   -51584.093   0.14343375 
  163800    289.70981   -350.28236    149018.27   -47662.883    3978.4666    -51641.35   0.14288642 
  164000     281.3092   -527.89425    149215.87   -47677.976    3863.1044   -51541.081   0.14551642 
  164200    283.67978   -660.93262    149369.01   -47674.477    3895.6587   -51570.136   0.14398078 
  164400     291.9602   -417.74271    149130.45   -47618.641    4009.3703   -51628.011   0.13915319 
  164600    289.47655   -340.22496    149033.44   -47597.422    3975.2634   -51572.686   0.14539773 
  164800    285.11482   -572.64025    149320.47   -47633.495    3915.3655    -51548.86   0.14525007 
  165000    287.31526   -614.43046    149344.97   -47609.656    3945.5832    -51555.24   0.14931544 
  165200    287.18589   -381.02781     149036.2   -47607.827    3943.8066   -51551.634   0.14630322 
  165400    286.70827   -401.05633    149077.15   -47636.568    3937.2477   -51573.815   0.14779478 
  165600    290.88275   -657.44014    149409.15   -47573.157    3994.5741   -51567.731   0.14683747 
  165800     292.1596   -589.89123    149318.61   -47598.472    4012.1086   -51610.581   0.14880704 
  166000    292.47365   -283.78964    148958.17   -47560.436    4016.4212   -51576.858   0.14903828 
  166200    287.45878   -458.11584    149120.56   -47590.554    3947.5541   -51538.108   0.14730911 
  166400     289.2123   -733.72853    149495.58   -47582.607    3971.6345   -51554.242    0.1482609 
  166600    294.23055     -511.731    149214.32   -47580.549    4040.5481   -51621.097   0.14883945 
  166800    287.01562   -239.05157    148812.01   -47642.061    3941.4684   -51583.529   0.14812341 
  167000    283.21438   -537.42677    149187.72   -47640.857    3889.2675   -51530.125   0.15041386 
  167200    288.80945   -844.94512    149606.74   -47584.703    3966.1023   -51550.805   0.15086863 
  167400    285.95888   -471.05907    149115.47   -47634.562    3926.9565   -51561.519   0.14881022 
  167600    286.26706   -123.69452    148735.02    -47618.45    3931.1888   -51549.639   0.14527075 
  167800    288.93198   -612.12648    149423.95   -47683.879     3967.785   -51651.663   0.14241362 
  168000     287.9704   -852.17726    149718.73   -47667.504    3954.5799   -51622.084   0.14714456 
  168200    281.94453   -276.68023    148848.25   -47672.106    3871.8292   -51543.936   0.14683859 
  168400    288.93096    -125.7162    148673.95   -47631.353     3967.771   -51599.124   0.14530786 
  168600    290.80704   -849.72981    149658.22   -47635.372    3993.5345   -51628.907   0.14968909 
  168800     292.3104   -828.35102    149669.67   -47674.132    4014.1794   -51688.311   0.14384005 
  169000     286.1945    -63.49132    148667.23   -47665.548    3930.1922   -51595.741   0.14090675 
  169200    289.17711   -219.48841    148855.45   -47636.898    3971.1513   -51608.049   0.14348666 
  169400    288.06083    -909.2129    149774.72   -47655.458    3955.8218    -51611.28   0.14503072 
  169600    290.14266   -644.31813    149405.72   -47668.116    3984.4107   -51652.527   0.14500064 
  169800    289.95291   -65.045504    148659.55   -47678.344     3981.805   -51660.149   0.14194423 
  170000    287.47586   -448.11553    149131.42   -47716.423    3947.7887   -51664.212   0.14304293 
  170200    289.08154   -837.07465    149692.39   -47720.346    3969.8388   -51690.185    0.1453893 
  170400    285.42961   -501.95435    149194.94   -47694.301    3919.6884   -51613.989   0.14562247 
  170600    288.83805   -193.75078    148804.34   -47678.933    3966.4951   -51645.428   0.14446728 
  170800    283.80187    -578.1027    149325.17   -47699.675    3897.3353    -51597.01    0.1445829 
  171000    289.64427   -775.70674     149565.1   -47696.834    3977.5666   -51674.401   0.14367032 
  171200    283.87746   -361.23661    149057.42   -47727.595    3898.3734   -51625.968   0.14123023 
  171400    287.41342   -308.49027    148928.01    -47725.04    3946.9312   -51671.971   0.13928177 
  171600    284.44994   -626.52058    149406.21   -47685.695    3906.2349    -51591.93   0.14397052 
  171800    284.78253   -677.13178    149464.69   -47662.947    3910.8023   -51573.749    0.1466996 
  172000    287.74379   -331.45634     148996.7   -47672.775     3951.468   -51624.243   0.14598552 
  172200    287.19734   -350.92915    149021.03   -47678.962    3943.9638   -51622.925   0.14482483 
  172400    287.66919   -694.41409    149458.18   -47643.542    3950.4436   -51593.985   0.14746295 
  172600    288.77356   -585.91304    149370.77   -47628.465    3965.6094   -51594.075   0.14669409 
  172800    287.39824   -341.96203    148984.34   -47639.042    3946.7227   -51585.765   0.14517582 
  173000    285.73166   -447.61286    149111.13   -47657.482    3923.8363   -51581.318   0.14642425 
  173200    288.22962   -672.34316     149475.5   -47691.444    3958.1398   -51649.583   0.14233443 
  173400    286.33244   -557.63814    149275.47   -47678.968    3932.0865   -51611.054   0.14978486 
  173600    288.93945   -289.91529    148948.65   -47633.047    3967.8875   -51600.934   0.14515827 
  173800     288.6692   -542.14159    149267.91   -47632.472    3964.1763   -51596.649   0.14604035 
  174000    287.46718   -695.59394    149537.49   -47592.677    3947.6695   -51540.347   0.15176111 
  174200    288.92405   -449.94244     149176.1   -47589.558    3967.6761   -51557.234   0.14747317 
  174400    291.99334   -314.97443    148980.34   -47574.579    4009.8254   -51584.405   0.14636158 
  174600    293.63144   -585.60985    149381.32   -47583.997    4032.3207   -51616.318   0.14418508 
  174800    291.01283   -646.04376    149520.94   -47545.115    3996.3605   -51541.475   0.14734762 
  175000    291.67954   -390.96849    149131.15   -47596.256     4005.516   -51601.772   0.14551193 
  175200    287.47401   -339.86301    149052.58   -47594.091    3947.7633   -51541.854   0.14725405 
  175400    291.12327   -651.31036    149443.49   -47601.321    3997.8771   -51599.198    0.1477975 
  175600    291.19538   -653.86881    149434.02   -47612.244    3998.8674   -51611.111   0.14837922 
  175800    290.57405   -309.92907    149008.67   -47599.206    3990.3349   -51589.541   0.14401351 
  176000    289.37498   -360.79056    149090.57   -47586.245    3973.8686   -51560.113   0.14474295 
  176200    295.75538   -692.64563    149531.76    -47532.07    4061.4879   -51593.558   0.14279179 
  176400    291.14726   -575.87114    149351.57   -47571.888    3998.2065   -51570.094   0.14639407 
  176600    290.21935    -305.7477    148894.77   -47554.847    3985.4639   -51540.311    0.1486783 
  176800    292.16496   -448.63224    149166.54   -47561.255    4012.1822   -51573.438   0.14562107 
  177000    290.81092    -757.3346     149616.4   -47572.501    3993.5877   -51566.088   0.14653141 
  177200    293.70234   -484.84208    149263.55   -47589.688    4033.2943   -51622.983    0.1446435 
  177400    285.45315   -187.64211    148829.04   -47681.266    3920.0116   -51601.277   0.14504179 
  177600    287.12724   -501.26973    149235.75   -47644.469    3943.0013    -51587.47   0.14833593 
  177800    290.12318   -813.55505    149609.93   -47618.996    3984.1433   -51603.139   0.15107788 
  178000    289.91189   -399.25707    149104.48    -47580.46    3981.2416   -51561.701   0.14639173 
  178200    293.96506   -192.30314    148814.15   -47619.142    4036.9022   -51656.044   0.14267358 
  178400     286.2651    -655.3614    149417.79   -47590.887    3931.1618   -51522.049   0.14743268 
  178600      289.332   -794.76732    149615.93   -47603.544    3973.2783   -51576.822   0.15124608 
  178800    294.39713   -273.71374    148931.58   -47577.902    4042.8356   -51620.737   0.14562627 
  179000    290.43127   -274.73106    148865.07   -47552.771    3988.3741   -51541.145   0.15090027 
  179200    285.86555   -832.26653    149595.17   -47571.635    3925.6749    -51497.31    0.1584733 
  179400    292.92005   -695.53649    149484.95   -47544.943    4022.5515   -51567.495   0.15349306 
  179600    290.42679   -155.49822    148700.78    -47556.28    3988.3125   -51544.593   0.15496948 
  179800    293.13589   -384.89658    149009.97   -47585.528    4025.5156   -51611.043   0.15260016 
  180000     292.2603   -872.29735    149724.01   -47544.177    4013.4914   -51557.668   0.15191585 
  180200    291.41513   -490.93543    149239.84   -47509.666     4001.885   -51511.551   0.15051128 
  180400    293.78099   -130.22454    148642.28   -47469.988    4034.3744   -51504.363   0.15155273 
  180600    294.58963   -559.26821    149260.45    -47555.44    4045.4791    -51600.92   0.14949115 
  180800    295.39375   -877.50916    149718.97   -47513.719    4056.5218   -51570.241   0.15535493 
  181000    294.54662   -374.74909    149070.32   -47560.296    4044.8886   -51605.185   0.14549698 
  181200    291.73335   -195.17681    148800.44   -47546.784    4006.2551    -51553.04    0.1472031 
  181400    287.05537   -681.96874    149450.23   -47581.385    3942.0143   -51523.399   0.15163612 
  181600    287.91046   -769.58035    149547.87   -47600.988    3953.7568   -51554.744   0.15262211 
  181800    289.15905   -316.37849    148940.56   -47576.458    3970.9032   -51547.361   0.15034633 
  182000    288.94781   -272.11712    148965.34   -47585.734    3968.0023   -51553.736   0.14304177 
  182200    289.43767   -701.95466    149517.25   -47596.914    3974.7294   -51571.643   0.14882671 
  182400    292.82197   -611.76988    149399.58   -47599.219    4021.2046   -51620.423   0.14811697 
  182600    290.81392   -301.74631     148955.1   -47565.804    3993.6289   -51559.433   0.14909838 
  182800    294.85424   -432.22702    149166.35   -47530.372    4049.1129   -51579.485   0.14500119 
  183000    288.46829   -710.47538    149508.78   -47528.301    3961.4173   -51489.719   0.15393752 
  183200    293.17665   -513.62801    149273.08   -47513.065    4026.0753    -51539.14   0.15063666 
  183400    290.08052   -320.71414    149039.83   -47522.074    3983.5575   -51505.632   0.15233072 
  183600    290.73013   -566.86791    149288.73   -47550.362    3992.4782    -51542.84   0.15261893 
  183800     290.6837   -678.46666    149423.15   -47581.906    3991.8406   -51573.747   0.15174947 
  184000    290.92077   -462.73857    149168.18   -47597.013    3995.0962   -51592.109   0.15285187 
  184200    290.10044   -420.47931       149079   -47640.486     3983.831   -51624.317   0.14775419 
  184400    286.28724   -559.75708    149287.22    -47648.35    3931.4659   -51579.816   0.14917555 
  184600    289.06266   -593.48041    149331.66   -47655.916    3969.5795   -51625.495   0.14537454 
  184800    289.68031   -405.28889    149093.81   -47645.532    3978.0615   -51623.594   0.14205283 
  185000    287.02105   -410.51515    149092.97   -47635.503     3941.543   -51577.046   0.14722679 
  185200    288.89877   -558.36281    149322.12   -47691.337     3967.329   -51658.666   0.14360754 
  185400     286.9659    -580.2662    149272.35    -47668.99    3940.7855   -51609.775   0.14932601 
  185600    291.00321   -421.00178    149045.66   -47674.388    3996.2284   -51670.616   0.14517757 
  185800    285.84795   -498.13021    149150.22   -47618.432    3925.4332   -51543.865   0.14835505 
  186000    288.39244   -615.45234    149383.02   -47603.033    3960.3757   -51563.409   0.15093699 
  186200    289.27082   -567.79119    149252.82   -47594.555    3972.4382   -51566.993     0.153063 
  186400    289.99031    -337.8861    149026.21   -47545.474    3982.3186   -51527.793   0.14955656 
  186600    292.63108   -496.40413    149229.99   -47579.443    4018.5831   -51598.026   0.14316558 
  186800    292.93187   -656.61245    149438.66   -47603.996    4022.7138    -51626.71   0.14624893 
  187000    285.88262   -453.32648    149192.52   -47575.805    3925.9093   -51501.714   0.14980237 
  187200    289.39691   -384.62363    149047.29   -47597.991    3974.1697   -51572.161    0.1502292 
  187400    289.96939    -566.4186    149308.84   -47581.184    3982.0312   -51563.215   0.14973296 
  187600    292.45094   -620.06241    149423.03   -47620.839    4016.1094   -51636.948   0.14500432 
  187800    289.09708   -453.13498    149116.64   -47612.034    3970.0522   -51582.086   0.14906209 
  188000    289.24823   -363.21459    149069.34   -47585.409    3972.1279   -51557.537   0.14856429 
  188200     287.6366   -633.39088    149387.69   -47574.609     3949.996   -51524.605   0.15350486 
  188400    294.66168    -575.1351    149345.88   -47562.608    4046.4686   -51609.076   0.14823691 
  188600     291.5057   -286.11485    148962.07   -47570.523    4003.1288   -51573.651   0.14373475 
  188800    288.31586    -416.6653    149087.57     -47583.8    3959.3241   -51543.124    0.1467688 
  189000    288.43206   -791.52059    149586.33   -47571.529    3960.9198   -51532.449   0.14816791 
  189200    288.23072   -590.58302    149334.83   -47576.307    3958.1548   -51534.462   0.14405024 
  189400    288.85647   -92.121792    148710.89   -47542.346     3966.748   -51509.094   0.14311935 
  189600    290.79808   -470.71108    149169.23   -47556.106    3993.4113   -51549.518   0.14458625 
  189800    288.89692   -973.12231     149844.1   -47586.996    3967.3035   -51554.299   0.15359514 
  190000    286.16132   -414.56854       149123   -47623.868    3929.7366   -51553.605   0.14546046 
  190200    289.09244    18.903653     148502.4   -47601.815    3969.9885   -51571.803   0.14491435 
  190400    292.52904   -676.85275    149426.63   -47597.749    4017.1819   -51614.931   0.14801111 
  190600    291.67801   -971.28767    149904.07   -47533.137    4005.4951   -51538.632   0.14931999 
  190800     290.5648   -256.97081    148907.68   -47574.239    3990.2078   -51564.447   0.14621027 
  191000    283.78212   -97.597224    148641.58   -47589.651    3897.0641   -51486.715    0.1479473 
  191200    290.24744   -820.01495    149630.96    -47578.23    3985.8496   -51564.079   0.14686181 
  191400    290.34629   -846.66491    149664.11   -47600.755    3987.2071   -51587.962   0.14981526 
  191600     289.2861   -169.30308    148780.77   -47561.918     3972.648   -51534.566   0.14938634 
  191800    288.36913   -285.35541    148935.27   -47596.658    3960.0556   -51556.714   0.14681541 
  192000     288.1936   -822.90979    149680.51   -47590.399    3957.6451   -51548.044   0.15244898 
  192200    294.16274   -631.55486    149423.43   -47561.765    4039.6169   -51601.382    0.1496055 
  192400    289.35257   -190.64457    148825.08   -47572.358    3973.5608   -51545.919   0.14909669 
  192600    289.47009   -465.29778     149131.5   -47602.115    3975.1746    -51577.29   0.14949347 
  192800     289.1617   -772.17105    149574.35   -47573.907    3970.9396   -51544.847   0.14951553 
  193000    288.22745    -488.0933    149230.77   -47566.828    3958.1099   -51524.938   0.15050499 
  193200    296.39305    -271.8092    148927.35   -47523.668    4070.2448   -51593.913   0.14093551 
  193400    294.60236   -548.31914     149317.5   -47523.978     4045.654   -51569.632   0.14473113 
  193600    291.87327   -707.29485    149550.22   -47534.051    4008.1765   -51542.228   0.15226834 
  193800    290.44644   -371.31222     149118.6   -47585.599    3988.5824   -51574.181   0.14237567 
  194000    290.65953    -271.4415    148950.85   -47613.122    3991.5087   -51604.631   0.14463902 
  194200    292.34223   -619.66934    149395.88   -47596.771    4014.6166   -51611.387   0.14815003 
  194400    288.35324   -646.40875    149469.53    -47574.64    3959.8374   -51534.478   0.15092769 
  194600    291.01176   -341.84587    149031.73   -47604.566    3996.3458   -51600.911   0.14738892 
  194800    292.29077    -363.1364    149017.95   -47590.774    4013.9098   -51604.684   0.14391141 
  195000    288.75931    -670.5104    149426.34   -47569.525    3965.4138   -51534.938   0.15043604 
  195200    289.05351   -618.19036    149366.09    -47555.22    3969.4539   -51524.673   0.14739354 
  195400    288.69054   -327.33462    148984.03   -47560.294    3964.4693   -51524.764    0.1499611 
  195600    291.38234   -419.99893    149130.49   -47565.725    4001.4347    -51567.16   0.14838122 
  195800    287.43857   -707.15445    149491.04   -47607.231    3947.2766   -51554.508   0.14778388 
  196000    289.76201   -480.19721    149250.44   -47579.502    3979.1835   -51558.685   0.14839951 
  196200    286.49523   -275.10204    148944.35   -47568.611    3934.3221   -51502.933   0.15017694 
  196400    290.65999   -520.24257     149254.4    -47567.36     3991.515   -51558.875   0.15137519 
  196600    287.76118   -675.90783    149472.73   -47631.147    3951.7068   -51582.853   0.14826343 
  196800    290.18564   -401.89969    149119.11   -47623.785     3985.001   -51608.786   0.14102983 
  197000    287.71423   -306.63146    148963.81   -47634.697    3951.0621   -51585.759   0.14130985 
  197200    286.70194   -616.71609    149318.22   -47688.885    3937.1607   -51626.046   0.14572277 
  197400    289.12221     -627.311    149375.12   -47644.875    3970.3973   -51615.273   0.14806602 
  197600    291.82561   -359.66046    149038.63   -47560.423    4007.5221   -51567.945   0.14403388 
  197800    289.57768   -401.41474    149082.97   -47547.851    3976.6521   -51524.503   0.14336481 
  198000    284.83739   -670.27963    149409.94   -47573.942    3911.5557   -51485.498   0.15021067 
  198200    292.41157   -600.38203       149312   -47600.573    4015.5688   -51616.141   0.15061543 
  198400    288.81928   -358.36382    149004.03    -47529.55    3966.2373   -51495.787   0.15192967 
  198600    291.68218   -474.29795    149171.68   -47519.325    4005.5523   -51524.878   0.15159449 
  198800    288.53056   -695.98329    149464.18   -47548.862    3962.2724   -51511.134    0.1541657 
  199000    292.39026    -502.9897    149259.63   -47556.582    4015.2761   -51571.858   0.14502997 
  199200    290.62125   -349.39681    149032.31   -47553.057     3990.983    -51544.04   0.14472803 
  199400    288.45812   -513.56001     149257.9   -47562.664    3961.2777   -51523.942   0.14555672 
  199600    287.95485    -606.5134    149419.87   -47583.606    3954.3664   -51537.972   0.14659274 
  199800    288.24341   -455.05136    149161.16    -47564.26    3958.3292   -51522.589     0.150402 
  200000    286.03921   -391.87922    149057.16   -47584.982    3928.0598   -51513.042    0.1487519 
Loop time of 108.509 on 6 procs for 200000 steps with 4608 atoms

Performance: 796.247 ns/day, 0.030 hours/ns, 1843.163 timesteps/s
98.0% CPU use with 6 MPI tasks x no OpenMP threads

MPI task timing breakdown:
Section |  min time  |  avg time  |  max time  |%varavg| %total
---------------------------------------------------------------
Pair    | 76.658     | 77.152     | 78.111     |   5.6 | 71.10
Neigh   | 12.156     | 12.343     | 12.651     |   6.0 | 11.38
Comm    | 8.3612     | 9.0323     | 9.6075     |  13.0 |  8.32
Output  | 3.0201     | 3.0211     | 3.0248     |   0.1 |  2.78
Modify  | 5.5799     | 5.7041     | 5.8126     |   2.9 |  5.26
Other   |            | 1.256      |            |       |  1.16

Nlocal:        768.000 ave         779 max         763 min
Histogram: 2 1 0 2 0 0 0 0 0 1
Nghost:        1394.50 ave        1406 max        1386 min
Histogram: 2 0 1 0 0 1 0 0 1 1
Neighs:        0.00000 ave           0 max           0 min
Histogram: 6 0 0 0 0 0 0 0 0 0
FullNghs:      21872.0 ave       22213 max       21744 min
Histogram: 2 2 1 0 0 0 0 0 0 1

Total # of neighbors = 131232
Ave neighs/atom = 28.479167
Neighbor list builds = 12562
Dangerous builds = 0
write_data		data.${NAME}
write_data		data.ice_290K_-500atm_ML
System init for write_data ...
Total wall time: 0:02:40
