

read_data data.ice_${TEMP}K_${PRES}atm_ML group ice
read_data data.ice_290K_${PRES}atm_ML group ice
read_data data.ice_290K_-500atm_ML group ice
Reading data file ...
  orthogonal box = (-0.041013163 -0.036456145 -0.036456145) to (57.311523 50.943576 50.943576)
  3 by 1 by 2 MPI processor grid
  reading atoms ...
  4608 atoms
  reading velocities ...
  4608 velocities
  read_data CPU = 0.025 seconds
read_data data.liq_${TEMP}K_${PRES}atm_ML add append shift ${X_HI} ${YZ_LO} ${YZ_LO} group water
read_data data.liq_290K_${PRES}atm_ML add append shift ${X_HI} ${YZ_LO} ${YZ_LO} group water
read_data data.liq_290K_-500atm_ML add append shift ${X_HI} ${YZ_LO} ${YZ_LO} group water
read_data data.liq_290K_-500atm_ML add append shift 50.9435761450618 ${YZ_LO} ${YZ_LO} group water
read_data data.liq_290K_-500atm_ML add append shift 50.9435761450618 0.0364561450607681 ${YZ_LO} group water
read_data data.liq_290K_-500atm_ML add append shift 50.9435761450618 0.0364561450607681 0.0364561450607681 group water
Reading data file ...
  orthogonal box = (-0.041013163 -0.086086674 -0.086086674) to (104.54760 51.066119 51.066119)
  3 by 1 by 2 MPI processor grid
  reading atoms ...
  4608 atoms
  reading velocities ...
  4608 velocities
  read_data CPU = 0.010 seconds

write_data data.icewater_test
System init for write_data ...
WARNING: Communication cutoff is 0.0. No ghost atoms will be generated. Atoms may get lost. (../comm_brick.cpp:167)

# Define potential
#
pair_style sw
pair_coeff * * /data/emrosky-sim/Freezing_Simulations/Melting/MLmW_fancy/ML_mW.sw mW
Reading sw potential file /data/emrosky-sim/Freezing_Simulations/Melting/MLmW_fancy/ML_mW.sw with DATE: 2019-02-27

# Delete water and ice atoms that are overlapping
#
delete_atoms overlap 2.5 water ice
System init for delete_atoms ...
Neighbor list info ...
  update every 1 steps, delay 10 steps, check yes
  max neighbors/atom: 2000, page size: 100000
  master list distance cutoff = 6.0032907
  ghost atom cutoff = 6.0032907
  binsize = 3.0016454, bins = 35 18 18
  2 neighbor lists, perpetual/occasional/extra = 1 1 0
  (1) command delete_atoms, occasional, copy from (2)
      attributes: full, newton on
      pair build: copy
      stencil: none
      bin: none
  (2) pair sw, perpetual
      attributes: full, newton on
      pair build: full/bin/atomonly
      stencil: full/bin/3d
      bin: standard
Deleted 711 atoms, new total = 8505

# set timestep
#
timestep 10.0

# Define output
#
compute 1 all msd
thermo 50
thermo_style custom step temp press vol etotal ke pe c_1[4]

# Neighbor lists
#
neigh_modify delay 0 every 1 check yes

# Set fixes
#
fix 1 all momentum 10 linear 1 1 1 rescale
fix 2 all nph iso ${PRES} ${PRES} ${PCOUPL}
fix 2 all nph iso -500 ${PRES} ${PCOUPL}
fix 2 all nph iso -500 -500 ${PCOUPL}
fix 2 all nph iso -500 -500 10000.0
fix 3 all temp/csvr ${TEMP} ${TEMP} ${TCOUPL} 837492
fix 3 all temp/csvr 290 ${TEMP} ${TCOUPL} 837492
fix 3 all temp/csvr 290 290 ${TCOUPL} 837492
fix 3 all temp/csvr 290 290 5000.0 837492


# Fix ice atoms in place
#
velocity ice set 0.0 0.0 0.0
fix 4 ice setforce 0.0 0.0 0.0

# Run 1.0 ns equilibration of water
#
dump 1 all atom 1000 eq.all.${NAME}.dump
dump 1 all atom 1000 eq.all.coexist_290K_-500atm_ML.dump
run 100000
Neighbor list info ...
  update every 1 steps, delay 0 steps, check yes
  max neighbors/atom: 2000, page size: 100000
  master list distance cutoff = 6.0032907
  ghost atom cutoff = 6.0032907
  binsize = 3.0016454, bins = 35 18 18
  1 neighbor lists, perpetual/occasional/extra = 1 0 0
  (1) pair sw, perpetual
      attributes: full, newton on
      pair build: full/bin/atomonly
      stencil: full/bin/3d
      bin: standard
Per MPI rank memory allocation (min/avg/max) = 4.592 | 4.599 | 4.605 Mbytes
Step Temp Press Volume TotEng KinEng PotEng c_1[4] 
       0    131.69187   -1035.3423    273661.15   -83826.852     3338.232   -87165.084            0 
      50    159.75252   -852.55546    272449.91   -83516.731    4049.5361   -87566.268   0.85731673 
     100    166.41238   -290.65627     270127.2   -83183.016    4218.3556   -87401.372    1.8072075 
     150    173.30281   -4.0460847    269140.88   -82847.161    4393.0197   -87240.181    2.8350719 
     200    175.66792   -135.82429    269936.09    -82614.66    4452.9726   -87067.632    3.7521517 
     250    179.26201   -400.69178    271440.82   -82312.562    4544.0784    -86856.64    4.8067669 
     300    186.24686   -960.77272    272609.78   -81973.958    4721.1361   -86695.095    6.0548451 
     350    188.00151   -773.60604    272420.17   -81756.095    4765.6142   -86521.709    7.3276029 
     400    195.13611   -434.20837    271346.49   -81539.109     4946.468   -86485.577    8.6524669 
     450    200.45846   -258.12749    270856.89     -81280.1    5081.3833   -86361.483    10.005494 
     500    202.00993   -255.42249       271065   -81081.463     5120.711   -86202.174    11.654693 
     550     205.6526   -313.80698    271826.33    -80882.95    5213.0484   -86095.998    13.337488 
     600    205.08202   -609.68475    272758.33    -80679.32     5198.585   -85877.905    15.131562 
     650    211.79684   -635.57381     272925.9   -80479.629    5368.7976   -85848.426     16.93585 
     700    215.41802   -262.81561    272925.08   -80285.061    5460.5902   -85745.651     18.82535 
     750    219.68431    -343.8788    272991.61   -80127.784    5568.7354   -85696.519    20.798577 
     800     222.7576   -692.54199    273060.92   -79939.278    5646.6397   -85585.918    22.702423 
     850    230.25834   -364.29349    272913.37   -79755.397    5836.7747   -85592.172    24.502847 
     900    231.04767   -587.67786    273225.86    -79589.46    5856.7831   -85446.243    26.754042 
     950    230.70485   -302.43495    273687.25   -79427.174    5848.0931   -85275.267    28.924497 
    1000    230.98518   -598.69927    274087.23   -79279.453    5855.1991   -85134.652    31.073294 
    1050    237.24364   -576.24819    273896.14   -79159.754    6013.8436   -85173.598    33.148306 
    1100    242.00132   -481.86306    273584.48   -79058.929    6134.4452   -85193.374    35.514455 
    1150     242.4664   -498.79454    273660.87   -78943.382    6146.2343   -85089.616    37.979053 
    1200    239.61094   -434.53336     274157.8   -78838.296    6073.8519   -84912.148    40.250813 
    1250     246.3443   -365.88854    274614.37   -78737.834    6244.5346   -84982.369    42.762539 
    1300    246.52855   -671.64372    274707.71   -78655.018    6249.2052   -84904.223    45.414968 
    1350    245.37525   -587.23458     274238.9   -78567.042    6219.9703   -84787.012    47.904088 
    1400    249.28877   -249.27915     273771.3   -78444.977    6319.1733    -84764.15    50.419328 
    1450    252.69411   -332.74578    274028.38   -78337.921    6405.4947   -84743.416    53.220355 
    1500     252.8829   -527.43421    274963.68    -78255.75    6410.2803    -84666.03     56.32642 
    1550    256.98802   -887.54172    275496.07   -78168.855    6514.3402   -84683.195    59.228278 
    1600    256.35736   -408.53309    275228.54   -78079.219    6498.3537   -84577.573     62.21697 
    1650    257.89021   -544.44451    274882.46   -78017.593    6537.2095   -84554.802    64.999674 
    1700    261.65415   -297.20739    274552.61   -77921.315    6632.6209   -84553.936    67.516278 
    1750    256.08359   -263.88716    274858.13   -77852.942     6491.414   -84344.356    70.588238 
    1800    257.68022   -431.35851    275489.38    -77748.41    6531.8867   -84280.296    73.465595 
    1850    263.22288   -605.35028    275781.29   -77656.551    6672.3864   -84328.937     75.84986 
    1900    261.95165   -804.47651    275475.99   -77566.659    6640.1622   -84206.822    78.336065 
    1950    272.05619   -243.04217    275082.54   -77495.205    6896.3002   -84391.505    81.161319 
    2000    271.44745   -446.10058     275286.6   -77412.032    6880.8695   -84292.901    84.073761 
    2050    264.63192   -622.26416    275656.99   -77383.239    6708.1039   -84091.343    86.989366 
    2100    267.09687   -450.61292    275871.63    -77347.62    6770.5874   -84118.207    89.592291 
    2150    267.75908   -612.61164    275939.05   -77279.441    6787.3737   -84066.814    92.135866 
    2200    272.87266    -555.8117    275977.99    -77213.71    6916.9968   -84130.707    94.942762 
    2250    275.75642   -700.84701    275892.94   -77180.703    6990.0966     -84170.8    98.017862 
    2300    272.17823   -430.75055    275601.45   -77088.323    6899.3939   -83987.717     100.9949 
    2350     272.7403   -564.40419    275595.62   -77001.758    6913.6416     -83915.4    104.60609 
    2400     274.4783   -641.60429    275929.99   -76969.294     6957.698   -83926.992    107.92279 
    2450    275.50628   -571.81379    276173.35   -76920.724    6983.7559    -83904.48    110.86468 
    2500      283.819   -476.04884    276071.95   -76852.519    7194.4736   -84046.992    114.16539 
    2550    278.11187   -167.21177    276078.81   -76819.946    7049.8046   -83869.751    117.60156 
    2600    277.97358   -699.63996    276472.67   -76784.527     7046.299   -83830.826    120.46769 
    2650     277.5348   -630.08986    276729.91   -76697.483    7035.1765   -83732.659    123.97999 
    2700    285.71467   -466.80936     276541.7   -76667.332    7242.5264   -83909.859    127.32047 
    2750    285.50486   -547.01532    276347.82   -76685.235     7237.208   -83922.443    130.47533 
    2800    281.91554   -108.84297    276391.75   -76656.437    7146.2231    -83802.66    133.97974 
    2850    283.05563   -637.44558    276854.83   -76663.503    7175.1229   -83838.626    136.86773 
    2900    275.90696   -594.31218    277121.48   -76661.192    6993.9127   -83655.105    139.56677 
    2950     283.9619   -685.52273    276711.43   -76657.628     7198.096   -83855.724     142.3028 
    3000    287.16101   -272.18133    275779.66   -76617.056    7279.1894   -83896.246    145.19156 
    3050    283.84975   -30.841282    275438.53   -76619.836    7195.2529   -83815.089    148.30822 
    3100    282.42562   -382.03864    276114.72   -76601.913    7159.1529   -83761.066    151.53202 
    3150    279.29871   -760.18506    276929.52   -76594.763    7079.8895   -83674.653    154.87383 
    3200    283.51627   -809.04745    277061.45   -76550.239    7186.7996   -83737.039    158.65279 
    3250    286.82069   -371.95401    276436.11   -76526.678    7270.5627   -83797.241    161.59436 
    3300    293.08573   -576.56744    276050.43   -76496.465    7429.3741   -83925.839    164.29336 
    3350    289.18603   -287.35978    276022.62   -76396.295    7330.5213   -83726.816    167.53331 
    3400    287.60205   -397.83579    276277.29   -76440.758    7290.3693   -83731.127    171.16223 
    3450    282.65257    -587.7397    276859.86   -76452.802    7164.9059   -83617.708    174.79232 
    3500    282.43505   -692.66845    277167.59   -76439.846     7159.392   -83599.238    178.32779 
    3550    284.71065   -480.74313    277070.51   -76392.813    7217.0758   -83609.889    180.85908 
    3600    285.92631   -327.25191    276400.35   -76405.858    7247.8913   -83653.749    183.10806 
    3650    288.55518   -395.08664    276147.59   -76415.397    7314.5302   -83729.927    187.04498 
    3700    286.14065   -354.08178    276377.89   -76412.555    7253.3245   -83665.879    190.54922 
    3750    288.52722    -824.7745    276842.71    -76425.51    7313.8213   -83739.332    194.33225 
    3800    285.12658   -802.59005    277070.39   -76421.935    7227.6192   -83649.554    197.33215 
    3850    287.32652   -670.10985     276924.8   -76408.166     7283.385   -83691.551    200.50552 
    3900    289.32992   -545.79334    276412.34   -76419.507    7334.1688   -83753.676    203.78689 
    3950    288.11464   -489.08526     275980.8   -76376.251     7303.363   -83679.614    207.96341 
    4000    286.42079   -267.18934    276021.87   -76384.622    7260.4259   -83645.048    211.27432 
    4050    291.89249   -472.68859    276763.12   -76377.054    7399.1269   -83776.181     214.7878 
    4100    284.38308    -822.8381    277265.93   -76360.484    7208.7722   -83569.256    218.26733 
    4150    291.62127   -539.07955    276819.82   -76327.561    7392.2519   -83719.813    221.52017 
    4200    291.43078    -405.5129    276309.34   -76332.846    7387.4232    -83720.27    224.74828 
    4250     290.3252   -339.51758    276239.76   -76306.694    7359.3978   -83666.092    226.90364 
    4300    292.17817   -409.89102    276476.72   -76329.685    7406.3686   -83736.053     229.4845 
    4350     285.9039   -722.10162    276935.77   -76337.213    7247.3232   -83584.536    233.36116 
    4400    286.63635   -263.15308     277172.6   -76324.224    7265.8899   -83590.114    238.15413 
    4450     289.5624   -426.44136    277228.89   -76262.615    7340.0618   -83602.677    242.09071 
    4500    287.93148   -541.24152    276852.45   -76216.538    7298.7199   -83515.258    244.91775 
    4550    293.89665   -491.09421    276307.84   -76178.337      7449.93   -83628.267       248.15 
    4600    291.57278   -224.33334    276208.03   -76182.686    7391.0225   -83573.709    251.87456 
    4650    291.55845   -389.20117    276690.66   -76121.135    7390.6593   -83511.795    256.02692 
    4700    293.82772   -740.76772    277236.35   -76100.009    7448.1826   -83548.192    259.93847 
    4750     291.1186   -542.91831    277297.08   -76117.964    7379.5097   -83497.474    262.75812 
    4800    294.30737   -595.97344    277048.03   -76117.757    7460.3413   -83578.098    266.24416 
    4850    294.69546   -514.92286    276744.11   -76125.331    7470.1788    -83595.51    269.53336 
    4900    295.52058   -629.11193    276749.02   -76125.733    7491.0948   -83616.828    272.58157 
    4950    290.45057   -458.19068    276897.11   -76133.405    7362.5759   -83495.981    276.28547 
    5000    291.44304   -641.26603     277266.7   -76152.537    7387.7339   -83540.271    280.45217 
    5050    286.60116   -476.75151    277252.99   -76158.871     7264.998   -83423.869    285.21007 
    5100    292.27892   -294.89425    276814.03   -76178.787    7408.9224   -83587.709    289.59128 
    5150    292.21913   -175.68068    276719.52   -76209.269    7407.4068   -83616.676    294.30904 
    5200     290.0837   -677.28322     277077.7   -76207.676    7353.2762   -83560.952    298.44228 
    5250    292.39398    -516.4148    277347.23   -76191.843    7411.8391   -83603.682    302.98399 
    5300    288.59392   -399.77236    277410.69   -76175.019     7315.512   -83490.531    307.10699 
    5350    294.02805   -627.12807    277262.03   -76143.994    7453.2609   -83597.255    311.31305 
    5400    286.06894   -447.48788    276979.33    -76194.23    7251.5069   -83445.737    315.22616 
    5450    292.87443   -587.20613    276868.98   -76176.855    7424.0178   -83600.872    318.56819 
    5500    289.33738   -405.98493     277039.8   -76176.414    7334.3579   -83510.772    322.31597 
    5550    290.91005   -857.20166     277333.9   -76216.206    7374.2232   -83590.429    326.51074 
    5600    287.62069   -549.61292    277205.56   -76272.138    7290.8417   -83562.979    330.28633 
    5650    284.67137   -485.56485    276748.68   -76355.384      7216.08   -83571.464    332.70006 
    5700    288.47295   -153.51492    276188.07   -76336.426    7312.4456   -83648.872    333.95255 
    5750    287.15481   -475.67926    276146.64   -76308.925    7279.0324   -83587.957    338.25254 
    5800    287.11839   -263.47681    276544.28   -76310.579    7278.1091   -83588.688    342.31345 
    5850    289.23716   -613.05105    277168.08   -76234.685    7331.8173   -83566.502    345.83994 
    5900     293.0845   -598.59715    277130.43   -76266.166    7429.3429   -83695.509    348.82346 
    5950    285.94794   -186.86919    276760.97   -76272.903    7248.4397   -83521.343    351.11908 
    6000    286.69718   -486.75446    276607.81   -76274.188    7267.4319    -83541.62    354.87915 
    6050    289.58525   -356.11284    276626.97   -76224.688    7340.6411   -83565.329    357.76665 
    6100    286.33815   -465.55073    276887.79   -76223.239     7258.331    -83481.57    361.15495 
    6150    288.89298   -562.85926     277030.2   -76210.261    7323.0929   -83533.354    364.56099 
    6200    290.25486   -434.53657    276919.35   -76236.018    7357.6149   -83593.633     367.6322 
    6250    293.01412    -412.0935    276527.38   -76223.805    7427.5588   -83651.363    369.66226 
    6300    295.25821   -430.20002    276378.82   -76190.889    7484.4439   -83675.333    372.42264 
    6350    292.19209      -432.97    276620.32   -76166.459    7406.7213   -83573.181    376.37639 
    6400    289.88408   -469.36722    277014.73   -76222.183    7348.2161   -83570.399    379.64631 
    6450    289.34037   -733.01298    277359.62   -76228.619    7334.4336   -83563.053    382.59109 
    6500    291.97905   -458.22656    277203.78   -76175.765     7401.321   -83577.086    385.55486 
    6550    294.16873    -518.8186    276936.44   -76162.869    7456.8267   -83619.695    387.99658 
    6600    295.10101   -326.49991    276573.37   -76181.949     7480.459   -83662.408     390.1873 
    6650     291.5673   -413.36253    276715.05   -76220.466    7390.8838   -83611.349    392.82281 
    6700    290.33898   -264.53437     276884.1   -76237.021    7359.7472   -83596.768    395.36351 
    6750    289.58958   -400.62534    276973.94   -76257.152     7340.751   -83597.903    396.93893 
    6800    285.77769   -360.97861    276937.84   -76225.874    7244.1241   -83469.998     399.6111 
    6850    291.58031   -553.89151    276852.26   -76225.644    7391.2134   -83616.858    402.49887 
    6900    287.12666   -461.40205    276600.41   -76195.474    7278.3188   -83473.793    405.40812 
    6950    293.83073    -255.1658    276446.76   -76193.708    7448.2588   -83641.967    408.45467 
    7000    293.35729   -484.10054    276874.33   -76175.077    7436.2578   -83611.334    413.87298 
    7050    291.97443   -431.42391    277456.67   -76152.674    7401.2041   -83553.878    417.74912 
    7100    290.54638   -862.39332    277571.59   -76148.973    7365.0046   -83513.978    420.43093 
    7150    291.07449   -686.03386    277057.38   -76212.059    7378.3915    -83590.45    422.69452 
    7200    287.15155   -323.71218    276327.56   -76258.133    7278.9496   -83537.082     424.9407 
    7250    290.56488   -192.71259     276089.1   -76210.308    7365.4736   -83575.781    427.50588 
    7300    290.08209   -334.70735    276416.72   -76183.742    7353.2355   -83536.978    431.61151 
    7350      291.659   -562.10937    277067.62   -76171.213    7393.2081   -83564.421    435.15877 
    7400    289.74463   -1005.7284    277642.78   -76125.293    7344.6812   -83469.974    438.53293 
    7450    289.77353   -816.30197     277743.4    -76096.87    7345.4138   -83442.284    441.18629 
    7500    294.11022   -600.51594    277107.58   -76166.034    7455.3437   -83621.378    443.32195 
    7550    290.32294   -474.10064     276586.1   -76199.967    7359.3407   -83559.308    446.71288 
    7600    295.85507   -734.56692    276574.91    -76150.84    7499.5736   -83650.413    449.53405 
    7650    290.28167   -85.069131    276638.59   -76163.212    7358.2945   -83521.506    453.63196 
    7700     288.9584   -433.59619    276964.35   -76144.598    7324.7512    -83469.35    456.63682 
    7750    291.31513   -316.12898    277242.29   -76114.744    7384.4914   -83499.235    460.47046 
    7800    288.58093   -409.40741    277398.75   -76145.746    7315.1827   -83460.928    464.24879 
    7850    291.54486   -691.71599    277257.92   -76123.271    7390.3149   -83513.586    467.80907 
    7900    295.79542   -688.67355    277059.34   -76168.438    7498.0615   -83666.499    471.32589 
    7950    295.18298   -330.67373    276843.19   -76214.322    7482.5369   -83696.859    474.58374 
    8000    293.23301   -446.45527       276888   -76207.312    7433.1075   -83640.419    477.41297 
    8050    288.21121   -527.92049    277121.98   -76184.819    7305.8108   -83490.629    480.41585 
    8100    289.39879   -609.88136    277091.47   -76227.217    7335.9146   -83563.131    483.19459 
    8150    295.71417    -787.9078    276823.77   -76178.562    7496.0018   -83674.564    486.72585 
    8200    290.59278   -444.62215    276752.16   -76202.691    7366.1808   -83568.872    489.99973 
    8250    293.03626   -661.44893    276790.03   -76201.622      7428.12   -83629.742    493.38485 
    8300    291.90694   -382.52031    276733.11    -76184.28    7399.4932   -83583.773    496.02363 
    8350    284.19708   -514.15031    276854.15   -76234.662    7204.0575   -83438.719    499.20732 
    8400    294.89067   -846.13096    277179.23   -76232.642    7475.1271   -83707.769    501.62003 
    8450    287.69077   -538.70283    277147.84   -76234.298    7292.6184   -83526.916    505.58666 
    8500    287.96162   -487.98754    276865.96   -76209.858    7299.4839   -83509.342    508.22912 
    8550    293.86772   -439.96565    276458.12   -76244.862    7449.1967   -83694.059    510.54679 
    8600     289.5977    -310.8653    276435.94   -76238.772    7340.9567   -83579.728    514.64242 
    8650    290.82159    -424.3049    276808.31   -76236.336    7371.9809   -83608.316    517.99407 
    8700    286.39481   -595.64557    277099.29   -76227.144    7259.7672   -83486.912    521.71322 
    8750    295.15029    -476.1154    277059.07    -76193.81    7481.7082   -83675.518    524.69529 
    8800    291.23302   -526.62078    276848.81    -76223.77    7382.4101    -83606.18    527.56763 
    8850    292.05214   -302.03803    276634.62   -76262.062    7403.1739   -83665.236    531.39865 
    8900    291.05035   -843.85275    276651.43   -76292.269    7377.7796   -83670.048    534.62206 
    8950    291.89594   -311.25069    276333.85   -76281.933    7399.2144   -83681.147    539.25488 
    9000    291.25576    -355.5477    276502.45   -76267.545    7382.9866   -83650.532    542.33275 
    9050    287.66455   -620.37211    277068.09   -76254.386    7291.9536   -83546.339    545.88929 
    9100    288.57562   -731.11373    277486.26   -76315.229    7315.0481   -83630.277    549.39252 
    9150     290.3612   -749.06421    277147.24   -76277.373    7360.3105   -83637.683     551.4654 
    9200    290.26988   -347.87232    276319.43   -76284.825    7357.9955    -83642.82    553.10744 
    9250    292.53568   -205.39243    276118.19   -76326.497    7415.4311   -83741.928      555.988 
    9300    291.77838    -469.2058     276659.2   -76374.908    7396.2343   -83771.142    560.84175 
    9350    288.42329   -551.31717    276958.59   -76351.879    7311.1869   -83663.065    563.19653 
    9400    289.52883   -705.45219    276984.91   -76342.779    7339.2108   -83681.989    565.94529 
    9450    291.60052   -515.99882    276555.27   -76305.641    7391.7257   -83697.366    566.93933 
    9500    285.94682   -212.62184    276291.81   -76324.132    7248.4113   -83572.543    568.58287 
    9550     287.4602   -410.84812    276744.68   -76311.625    7286.7735   -83598.398      571.154 
    9600    284.56363   -523.13153    277354.18   -76280.006     7213.349   -83493.355     574.2156 
    9650     289.9616   -707.40798    277537.32   -76307.813    7350.1811   -83657.994    577.57918 
    9700    290.74418   -586.88316    276879.54   -76315.199    7370.0186   -83685.217    579.58879 
    9750    290.89822    102.71799    276310.75   -76317.996    7373.9233   -83691.919    582.05823 
    9800    289.62515   -564.25057    276639.29   -76322.737    7341.6525    -83664.39    586.41224 
    9850     285.5073   -534.17913    277008.43    -76310.93    7237.2699   -83548.199    589.85012 
    9900     284.9247   -871.84171    277156.58   -76307.063    7222.5017   -83529.565    592.79046 
    9950     289.0723   -502.09586    277036.35   -76273.716    7327.6384   -83601.355    595.54777 
   10000    284.94523   -443.38817    276798.21    -76267.06     7223.022   -83490.082    597.55095 
   10050     287.8583   -388.21315     276802.7   -76267.607    7296.8649   -83564.472    601.63092 
   10100    292.94805    -429.7139    276917.99    -76243.75    7425.8841   -83669.634    605.22036 
   10150    291.24414   -656.41118    277016.17   -76215.368     7382.692    -83598.06    608.67477 
   10200    288.27041   -519.59583    276967.12   -76203.849    7307.3113    -83511.16    611.75649 
   10250    296.18539   -535.64114     277116.1    -76216.11    7507.9467   -83724.057    615.53037 
   10300    288.61132   -613.26451    277346.52   -76184.273     7315.953   -83500.226    620.27182 
   10350    291.93471   -372.29291    277080.77   -76191.819     7400.197   -83592.016    623.16864 
   10400    293.49672   -497.84175    276627.33   -76263.411    7439.7923   -83703.204    625.22856 
   10450    292.58696   -365.48156    276505.88   -76245.139     7416.731    -83661.87    626.95799 
   10500    285.26035   -514.46893    276885.48    -76234.33      7231.01    -83465.34    630.09154 
   10550    290.79718   -486.10777    277299.54    -76217.44    7371.3622   -83588.803    634.76135 
   10600    286.97735   -717.21065    277443.46   -76212.961    7274.5338   -83487.495    638.10011 
   10650    293.18565   -556.84936    277100.79   -76191.891     7431.907   -83623.798    640.07199 
   10700    286.65652   -274.87794    276502.24   -76222.644    7266.4012   -83489.045    642.38133 
   10750    295.30147   -259.81539    276093.57    -76200.78    7485.5405    -83686.32    645.49584 
   10800     288.3789   -383.39754    276161.97   -76223.895    7310.0616   -83533.957    648.00639 
   10850    296.28844   -427.47268    276717.46   -76170.417    7510.5591   -83680.976    650.43089 
   10900     285.0863   -663.32145    277432.76   -76160.993     7226.598   -83387.591    655.30317 
   10950    291.72237   -434.81386    277568.79   -76171.183    7394.8146   -83565.998    658.30171 
   11000    293.14289   -560.27784     277077.5   -76213.945     7430.823   -83644.768    660.78681 
   11050     284.2656   -309.63646    276615.06   -76239.827    7205.7943   -83445.621    662.21944 
   11100    294.10326   -266.49713     276525.6   -76226.105    7455.1674   -83681.272    664.03225 
   11150    292.09168   -490.66316    276719.28   -76236.792    7404.1762   -83640.969    666.82981 
   11200    290.59239   -423.10918    276804.78   -76224.215    7366.1708   -83590.385    670.02136 
   11250    292.10992   -529.69643    276738.53   -76261.061    7404.6385     -83665.7    671.87532 
   11300    292.42244   -485.07867    276615.89   -76247.545    7412.5606   -83660.106    672.99419 
   11350    290.89684   -851.69402    276847.16   -76278.733    7373.8884   -83652.621    675.11443 
   11400    289.04903   -678.96098       276960   -76283.769    7327.0485   -83610.817    678.12672 
   11450     288.2447   -603.55608    276905.86   -76328.807    7306.6596   -83635.467     681.5557 
   11500    293.05623   -613.03919    276774.12   -76325.284    7428.6264    -83753.91    684.80655 
   11550    286.26603   -357.96593    276626.74   -76348.798    7256.5028   -83605.301    687.40293 
   11600    287.41901   -351.83422    276469.62    -76330.13    7285.7294    -83615.86    690.12034 
   11650    288.13841   -505.63976    276511.75    -76311.69    7303.9655   -83615.656    691.93373 
   11700    288.93466   -403.99852    276958.11   -76275.158    7324.1493   -83599.308    695.54469 
   11750    287.99348   -752.41452       277335   -76290.054    7300.2916   -83590.345    699.39959 
   11800     290.0855   -438.28114    277125.98   -76310.252     7353.322   -83663.574    703.17311 
   11850    292.08771   -485.25358    276974.96   -76238.798    7404.0754   -83642.873     705.0055 
   11900    285.96175   -596.44524    277031.11   -76314.892    7248.7898   -83563.682    707.51654 
   11950    286.78566   -429.24158     276854.5   -76308.059    7269.6748   -83577.734    709.91942 
   12000    289.42387   -435.58659     276628.6   -76321.093    7336.5502   -83657.644    710.96512 
   12050    291.05301   -323.78261    276409.32   -76309.497    7377.8471   -83687.344    714.32841 
   12100    287.42412    -370.2835    276621.19   -76276.928    7285.8589   -83562.787    717.61543 
   12150     288.4478   -184.11368    276977.39   -76270.282    7311.8081    -83582.09    721.04981 
   12200     285.8442   -893.53644    277492.53   -76246.995    7245.8101   -83492.805    724.04328 
   12250    289.34859   -760.79824    277158.93   -76216.951    7334.6421   -83551.593    725.43403 
   12300    291.56522   -436.63791    276658.57   -76239.052    7390.8311   -83629.883    725.69846 
   12350    289.18026   -314.61242     276580.9   -76271.632    7330.3751   -83602.007    727.68641 
   12400     288.1138   -606.39205    277061.38   -76297.886    7303.3416   -83601.228    731.28697 
   12450    283.48183   -798.92347    277245.37   -76270.799    7185.9267   -83456.726    734.05615 
   12500    286.02129   -385.72248    276925.11   -76241.445    7250.2991   -83491.744    736.62569 
   12550    286.73707   -421.82752    276493.74   -76290.884    7268.4432   -83559.328    738.18107 
   12600    291.15211   -436.44152    275978.46   -76246.038    7380.3592   -83626.397    738.93006 
   12650    286.92939   -513.68625    276471.62    -76256.24    7273.3181   -83529.558    742.29947 
   12700    286.69714   -574.24855    277183.73   -76226.855     7267.431   -83494.286    745.53746 
   12750    283.88349   -576.64484    277271.31   -76275.452    7196.1082    -83471.56    747.58109 
   12800    286.11094   -126.83324    277016.28   -76293.276    7252.5716   -83545.847    749.03731 
   12850    291.14156   -223.35695    276655.59   -76285.673    7380.0917   -83665.765    750.57139 
   12900    292.75626   -345.51626    276383.48   -76269.111    7421.0224   -83690.133    752.62522 
   12950    288.17787   -469.70779    276295.32   -76282.746    7304.9658   -83587.712    755.01353 
   13000    295.00972   -583.97054    276617.34   -76263.314    7478.1451   -83741.459    758.20751 
   13050    288.51459   -564.51809     277236.6   -76236.705    7313.5011   -83550.206    763.81798 
   13100     288.3106   -733.17565    277670.53   -76212.068    7308.3303   -83520.398    766.51356 
   13150    289.87736   -521.70103    277290.75   -76235.184    7348.0458    -83583.23    766.22059 
   13200    290.79355   -145.94978     276528.9   -76257.366    7371.2701   -83628.636    768.03741 
   13250    286.13665   -230.03202    276104.69   -76309.556    7253.2232   -83562.779    769.30433 
   13300    289.21258    -340.8754    276096.45   -76313.936    7331.1943    -83645.13    772.11996 
   13350    289.67116     -582.288    276440.48   -76294.179    7342.8187   -83636.997    775.28218 
   13400    287.54985     -451.925    277046.86   -76317.705     7289.046   -83606.751     777.8483 
   13450    289.44542   -713.35851    277559.49   -76340.871    7337.0966   -83677.967    781.64663 
   13500    290.51437   -799.29407     277372.9   -76306.397    7364.1932    -83670.59    783.92863 
   13550    285.20361   -540.97335     276623.5   -76392.801    7229.5718   -83622.373    784.67882 
   13600     288.7019   -179.03647    275985.77   -76407.748    7318.2492   -83725.997    786.14211 
   13650    289.88494   -263.94158    276030.67   -76414.494     7348.238   -83762.732    789.55084 
   13700    286.27581   -406.23458    276534.28    -76405.06    7256.7507   -83661.811    793.17783 
   13750    287.80945   -683.18407    277280.45   -76379.629    7295.6266   -83675.256      797.765 
   13800    284.14584   -750.19344    277552.43   -76421.121    7202.7586    -83623.88    800.59118 
   13850    284.08959   -689.71209    277097.69   -76412.033    7201.3328   -83613.366    802.44128 
   13900    283.94416   -386.74694    276313.69   -76389.369    7197.6461   -83587.016    804.36898 
   13950    287.04264   -249.14212    276033.56   -76408.526     7276.189   -83684.715    805.84309 
   14000    286.94901   -630.67567    276633.46   -76352.892    7273.8155   -83626.707    809.37964 
   14050    284.88366   -512.22417    277008.97   -76331.345    7221.4614   -83552.807    813.30062 
   14100    289.42105   -603.61193    277070.82   -76321.173    7336.4787   -83657.652    814.71583 
   14150    288.43202   -453.42711    276619.75   -76328.401     7311.408   -83639.809    816.58296 
   14200    288.38016    -163.7418    276190.72   -76319.774    7310.0936   -83629.867    818.57015 
   14250    289.57632    -534.8994    276395.35   -76244.324    7340.4148   -83584.739    822.01845 
   14300    289.47485    -523.7135    276706.47   -76269.987    7337.8425   -83607.829    824.92961 
   14350    291.13833    -588.9229    276995.53    -76263.28    7380.0099    -83643.29    827.96404 
   14400    289.73457   -444.03812    276998.96   -76239.882    7344.4262   -83584.309     830.2809 
   14450    290.95416   -296.70741    276694.38   -76298.267    7375.3413   -83673.608    832.36424 
   14500     290.4616   -644.76808    276918.21   -76307.602    7362.8556   -83670.458    834.86518 
   14550     285.4378   -578.75788    277342.35   -76348.266    7235.5081   -83583.774    836.73049 
   14600    286.28382   -692.45282    277337.82   -76332.996    7256.9537   -83589.949    839.48127 
   14650    291.06361   -637.16303    276754.51   -76350.939    7378.1158   -83729.055    841.55534 
   14700      289.998   -491.48695    276224.24   -76327.562    7351.1039   -83678.666     842.3847 
   14750     288.7373   -233.97197    276146.39   -76336.422    7319.1467   -83655.568    844.48851 
   14800    286.12114   -581.82823    276671.62   -76382.966    7252.8299   -83635.796    846.90299 
   14850    285.63795   -357.12347    277087.53   -76385.152    7240.5817   -83625.734    851.38974 
   14900    287.71888   -729.94402    277220.31   -76396.203    7293.3309   -83689.534    855.65744 
   14950    286.29393   -647.07591    276717.47   -76468.256    7257.2101   -83725.466    856.90398 
   15000    289.79694   -381.09907    275978.59   -76463.367    7346.0072   -83809.374    856.76663 
   15050    287.08252   -469.29787    275785.65   -76467.041    7277.1998   -83744.241    858.49514 
   15100    287.74029   -433.77641    276381.64   -76446.448    7293.8735   -83740.322    862.11576 
   15150    289.34995   -906.08529    277175.94   -76448.982    7334.6764   -83783.658     866.0785 
   15200     284.2939   -698.68848    277074.89   -76434.657    7206.5116   -83641.169    868.80904 
   15250    287.19026   -385.60357    276547.61   -76441.239    7279.9309    -83721.17    869.00999 
   15300    288.51056    -607.9379     276301.1   -76398.434     7313.399   -83711.833    870.59498 
   15350    284.00999   -610.81894    276259.96   -76400.888    7199.3149   -83600.203    872.58112 
   15400    290.70901   -170.32853    276300.64   -76365.401    7369.1271   -83734.528    874.96602 
   15450    286.64716   -380.49193    276580.09   -76368.405     7266.164   -83634.569    879.30738 
   15500    291.88759   -778.36372    276928.89    -76356.84    7399.0026   -83755.842    882.32987 
   15550    289.77196   -679.17539    277097.31   -76363.727    7345.3739     -83709.1    886.18277 
   15600    286.58643    -736.2077    276929.64   -76354.238    7264.6246   -83618.862    887.91173 
   15650     283.3098   -284.57395    276361.69    -76360.17    7181.5658   -83541.736    888.25988 
   15700    288.37032   -368.53532    276080.46   -76340.152    7309.8441   -83649.996    890.37826 
   15750    291.82334   -691.87698    276535.98   -76342.173     7397.374   -83739.547    894.26964 
   15800    283.84123   -820.37378    277114.06   -76326.249    7195.0372   -83521.286     897.7394 
   15850    284.30082   -668.03457    277100.59   -76304.174     7206.687   -83510.861     898.0049 
   15900    294.79194   -561.42587    276620.33   -76315.661    7472.6244   -83788.286    899.52035 
   15950    287.56515   -18.981501    276231.35   -76286.846    7289.4339    -83576.28    901.88497 
   16000    290.32904   -619.70768     276545.7   -76267.455    7359.4952    -83626.95    906.33566 
   16050     288.6573   -562.43446     276873.7   -76212.195    7317.1186   -83529.313    909.36995 
   16100    290.56232   -643.76173    277135.66   -76206.763    7365.4087   -83572.172    911.84428 
   16150     292.7157   -341.30795    277133.62   -76210.849    7419.9943   -83630.843     914.7635 
   16200    295.44875   -697.27004    277094.21   -76165.607    7489.2738   -83654.881    919.44011 
   16250    289.58621    -193.9361    276676.26   -76149.227    7340.6654   -83489.892    920.87153 
   16300    293.58697    -216.4956    276494.12   -76169.813      7442.08   -83611.893     923.0199 
   16350    288.73139    -332.0224    276917.65   -76191.613    7318.9967    -83510.61    927.07281 
   16400    291.96065   -520.28857    277173.24   -76169.851    7400.8547   -83570.706    932.03484 
   16450    286.82954   -484.04752     276973.9   -76202.784     7270.787   -83473.571    934.47567 
   16500    294.37099   -622.09039    276732.16   -76178.828     7461.954   -83640.782    935.33853 
   16550    294.25291   -67.603985    276312.65   -76154.706    7458.9607   -83613.667    937.32502 
   16600    290.25755   -293.14103    276486.76   -76134.078    7357.6832   -83491.761    940.87225 
   16650    290.77592   -397.49622    277153.84   -76071.132    7370.8233   -83441.955    943.79428 
   16700    288.76501   -669.63466    277317.04   -76150.436     7319.849   -83470.285    946.83904 
   16750    290.86322   -701.67678     277054.2   -76167.126     7373.036   -83540.162    948.12577 
   16800    290.85512   -585.08544    276789.48    -76182.86    7372.8307   -83555.691    949.23939 
   16850    287.95172   -649.73009    276862.59   -76215.699    7299.2331   -83514.933    950.58463 
   16900     292.5204   -486.72928    276888.69   -76209.558    7415.0437   -83624.602    952.98963 
   16950    289.82384   -373.85779    276892.58   -76168.819     7346.689   -83515.508    954.63442 
   17000    294.98488   -505.60886    276834.75   -76211.554    7477.5153    -83689.07    957.59663 
   17050    291.87845   -387.97108     277004.1   -76173.565    7398.7709   -83572.336    961.56291 
   17100    293.84746   -607.36063    277482.37   -76178.453     7448.683   -83627.136    964.36653 
   17150    295.88623   -783.72047    277777.15   -76120.635    7500.3635   -83620.998     966.3865 
   17200    290.91766   -417.44186    277250.47   -76082.758    7374.4161   -83457.174    965.91689 
   17250     288.4403   -475.86794    276667.27   -76094.797    7311.6179   -83406.415    967.95273 
   17300    292.44558   -292.43089    276541.81   -76053.304    7413.1471   -83466.451    970.44191 
   17350    293.61999    -538.3161    276844.02   -76089.622    7442.9168   -83532.539    972.63728 
   17400     292.8432    -688.0692    277288.63   -76110.931    7423.2262   -83534.158    976.25161 
   17450    292.88395   -962.41369     277423.9   -76073.545    7424.2592   -83497.804    979.41055 
   17500    292.14419   -380.68639    276746.85   -76132.917    7405.5073   -83538.424    979.32644 
   17550    289.53637   -372.64041    276287.08   -76179.512    7339.4021   -83518.914    980.68613 
   17600    293.39268   -465.00342    276646.48   -76154.064    7437.1549   -83591.218    982.70505 
   17650     291.9395   -557.85915    277346.73   -76098.108    7400.3184   -83498.426    986.23042 
   17700    292.31696   -728.81662     277797.9   -76071.744    7409.8866   -83481.631    990.66875 
   17750    292.52604   -536.92181    277577.63   -76061.454    7415.1867    -83476.64    991.86414 
   17800    295.03397   -704.91445    277116.75    -76064.42    7478.7597    -83543.18    992.68629 
   17850    290.14013   -163.72096    276610.06   -76091.561    7354.7065   -83446.268    996.52262 
   17900    293.88976   -525.57982    276794.78   -76122.129    7449.7552   -83571.884      1000.09 
   17950    292.91754   -680.60681    277148.45   -76137.292    7425.1108   -83562.403    1002.1012 
   18000    295.20367   -662.02217    277110.32   -76191.216    7483.0615   -83674.277    1003.4164 
   18050     291.1336   -372.88296    276873.36   -76223.484    7379.8898   -83603.374    1004.9715 
   18100    290.29848   -268.07626    276686.21   -76261.744    7358.7205   -83620.465    1007.4034 
   18150    289.21871    -569.9338     276443.1   -76294.169    7331.3496   -83625.518    1007.2611 
   18200     292.6595   -329.86281     276244.9   -76238.116    7418.5698   -83656.685    1009.0889 
   18250    293.25764   -456.18605    276643.28    -76187.21    7433.7319   -83620.942    1011.5131 
   18300    296.64802   -521.89583    277186.46   -76177.374    7519.6738   -83697.048    1013.6426 
   18350    288.29718   -765.47195    277461.51   -76158.605      7307.99   -83466.595    1017.6451 
   18400     286.7128   -431.59726    277423.62    -76161.29     7267.828   -83429.118    1020.2265 
   18450    291.59527   -583.95067    277273.27    -76187.39    7391.5926   -83578.983    1021.9958 
   18500    292.89379   -597.45825    276745.87   -76157.783    7424.5086   -83582.291    1023.2063 
   18550    293.23483   -300.66058    276503.19   -76135.663    7433.1536   -83568.817    1025.0901 
   18600    295.26874   -198.77631    276672.78   -76109.863    7484.7108   -83594.574    1027.0767 
   18650    292.75033   -470.95386    276973.31    -76125.82    7420.8722   -83546.692    1029.7976 
   18700    294.53461   -738.27757    277181.52   -76144.351    7466.1014   -83610.453    1033.1127 
   18750    292.96812   -376.29351    276971.72    -76068.64    7426.3928   -83495.033    1035.8114 
   18800    293.73653   -518.66183    276963.48   -76084.813     7445.871   -83530.684    1039.1023 
   18850    288.25607    -570.9804    277144.99   -76109.375    7306.9479   -83416.323     1042.183 
   18900    292.76959   -477.19796    277309.17   -76125.214    7421.3603   -83546.574    1044.8528 
   18950    285.11928   -129.92752    277135.62    -76160.11    7227.4341   -83387.544    1048.9432 
   19000    289.77334   -569.38304    277011.34   -76132.927     7345.409   -83478.336    1051.2052 
   19050    297.13922   -423.77569    277108.45   -76115.897    7532.1253   -83648.022    1055.1422 
   19100    292.51692   -418.50314    277255.88   -76153.445    7414.9553     -83568.4    1057.1441 
   19150    290.95364    -681.0288    277468.79   -76122.692    7375.3283   -83498.021     1058.276 
   19200    295.39188   -559.92809    277185.46   -76140.429    7487.8323   -83628.261    1060.6289 
   19250     288.9113   -682.92781     276714.8   -76132.815    7323.5573   -83456.372    1061.4976 
   19300      293.932   -568.14347    276485.84   -76155.495     7450.826   -83606.321    1061.5416 
   19350    293.60809   -471.51497    276634.77   -76188.763    7442.6153   -83631.378    1062.7474 
   19400    293.47696   -597.33519    276976.38   -76200.616    7439.2913   -83639.908    1066.4297 
   19450    289.19221   -580.48813    277134.33    -76226.92     7330.678   -83557.598     1069.463 
   19500    289.73043   -787.35531    277173.03   -76290.821    7344.3212   -83635.143    1071.6049 
   19550    291.99521   -518.40554    276689.94    -76222.42    7401.7306   -83624.151    1073.1453 
   19600    292.21432   -221.26555    276282.33   -76212.146    7407.2849   -83619.431    1075.4545 
   19650    292.17933   -174.70171    276434.65   -76177.524     7406.398   -83583.922    1077.4314 
   19700    291.34389   -599.68625    277008.15   -76123.873    7385.2204   -83509.093    1081.1627 
   19750    292.69922   -985.33187    277450.57   -76138.453    7419.5766   -83558.029    1084.4119 
   19800    292.67202   -746.74445    277035.47    -76172.24     7418.887   -83591.127    1086.4713 
   19850    294.71146   -165.39462     276408.5   -76151.735    7470.5845    -83622.32    1087.7225 
   19900    292.23654    -535.5337    276573.62   -76091.172    7407.8483    -83499.02     1090.543 
   19950    291.07812   -377.92728    276967.66   -76095.347    7378.4835   -83473.831    1094.3607 
   20000    291.13186     -644.224    277357.78   -76058.419    7379.8459   -83438.265    1096.5659 
   20050    292.12731   -789.52017    277420.36   -76098.787    7405.0794   -83503.867    1097.5134 
   20100    289.32799   -723.78752    277139.79   -76117.974    7334.1199   -83452.093    1100.7112 
   20150     293.8009    -605.2791    276930.54   -76151.158    7447.5029   -83598.661    1101.9369 
   20200    290.83969   -524.89162    276546.19   -76141.679    7372.4397   -83514.118    1104.6016 
   20250    289.98592   -170.42886    276237.79   -76171.644    7350.7976   -83522.442    1106.8832 
   20300    294.90683   -532.15193    276673.69   -76149.189    7475.5369   -83624.726    1111.2961 
   20350    290.05383   -399.59848    277211.49   -76144.056     7352.519   -83496.575    1115.8355 
   20400    287.91676   -739.66006    277861.83   -76107.849    7298.3468   -83406.196    1119.5033 
   20450     293.8996   -831.05849    277721.36   -76065.333    7450.0047   -83515.337    1122.1939 
   20500     297.9428   -485.18166    276908.09   -76074.967     7552.495   -83627.462    1121.8665 
   20550    294.81614    -344.7549    276685.66   -76066.317    7473.2378   -83539.555    1123.8012 
   20600    291.36487   -417.00572    276814.01   -76054.405    7385.7522   -83440.157    1127.9006 
   20650     296.8637   -586.84594     277038.1   -76005.399    7525.1412    -83530.54    1131.2695 
   20700    294.67601   -746.46074    277180.52   -76084.181    7469.6858   -83553.867    1133.9144 
   20750    293.86581   -116.92427    277191.96   -76084.316    7449.1482   -83533.464    1135.7438 
   20800    290.78706   -679.86221    277124.62    -76065.17    7371.1055   -83436.275    1138.8508 
   20850    294.90474   -565.00309    277017.68   -76069.944    7475.4837   -83545.428    1140.1396 
   20900    296.22263    -500.5578    276915.05   -76008.985    7508.8908   -83517.876    1141.8456 
   20950    292.70938   -397.12951    276984.93   -76066.977    7419.8341   -83486.811    1144.0781 
   21000    294.10096   -231.79861    276925.09    -76093.57    7455.1089   -83548.679    1146.3585 
   21050    292.19015   -353.40317    277169.67   -76047.719    7406.6723   -83454.391     1147.339 
   21100    294.36548   -440.70136    277545.34   -76024.365    7461.8143   -83486.179    1149.1414 
   21150    287.86548    -691.7109    277635.73   -76057.332     7297.047   -83354.379    1153.6495 
   21200    292.97963   -635.93237    277057.92   -76081.585    7426.6845    -83508.27    1154.7657 
   21250    296.03123   -306.24436    276582.57   -76122.742     7504.039   -83626.781    1156.1608 
   21300    291.72783   -724.21027    276545.32   -76123.039     7394.953   -83517.992      1155.96 
   21350    294.39648   -484.07351    276815.82   -76193.625    7462.6001   -83656.225    1158.0589 
   21400     287.8387   -894.85923     277457.8   -76181.031    7296.3681   -83477.399    1162.5454 
   21450    288.71179   -762.46401    277728.62   -76165.098       7318.5   -83483.598    1166.3678 
   21500    292.88983   -511.11154    277314.83   -76139.861    7424.4083   -83564.269     1167.738 
   21550    291.21268   -247.33393    276809.81   -76149.233    7381.8946   -83531.127    1169.3649 
   21600    292.86523   -289.45356    276676.35   -76195.927    7423.7848   -83619.711    1171.3316 
   21650    292.63493   -680.05875     277019.5   -76206.246    7417.9468   -83624.193    1176.2254 
   21700    300.19867   -932.53091    277250.64   -76187.659    7609.6786   -83797.338    1180.8746 
   21750    289.22744   -500.42107    277145.67   -76187.601     7331.571   -83519.172     1182.919 
   21800    294.65273    -618.0902    276818.74   -76200.488    7469.0956   -83669.584    1184.7412 
   21850    295.38426   -408.35711    276647.26   -76205.314     7487.639   -83692.953    1187.3809 
   21900    294.47265   -633.25256    276836.11   -76185.764    7464.5309   -83650.295    1189.8872 
   21950     285.0989   -496.45201    276875.12    -76190.03    7226.9173   -83416.947    1192.1796 
   22000     295.3704   -402.95314    276576.59   -76156.069    7487.2879   -83643.357     1192.014 
   22050    294.16201    -264.8698    276785.91   -76139.633    7456.6565    -83596.29    1193.9936 
   22100    289.35124   -398.94967    277434.91   -76121.669    7334.7092   -83456.378    1197.4034 
   22150    292.60761    -704.7586    277739.11   -76103.198    7417.2542   -83520.452    1200.3449 
   22200    290.01777   -523.68256    277415.39   -76082.517    7351.6049   -83434.122    1203.2149 
   22250    293.46374   -656.68049    276797.45   -76105.527    7438.9561   -83544.484    1204.4306 
   22300    293.10531   -161.83156    276281.13   -76136.357    7429.8704   -83566.228    1205.1254 
   22350     292.9824   -605.88278    276596.27   -76146.897    7426.7548   -83573.652    1209.2745 
   22400    294.61873   -768.72993    277382.18   -76163.859    7468.2339   -83632.092    1213.2286 
   22450    291.33297   -610.77413     277860.9   -76129.572    7384.9436   -83514.515    1216.3913 
   22500     295.5765   -717.93702    277617.16   -76059.246    7492.5121   -83551.758    1219.6412 
   22550    291.65863   -340.80733    277008.28    -76092.13    7393.1988   -83485.329    1223.4377 
   22600    292.65424   -65.968464     276744.3   -76125.913    7418.4363    -83544.35    1225.4686 
   22650    294.69184   -704.88519     277078.3    -76101.91    7470.0871   -83571.997    1229.1816 
   22700    289.57856   -404.61261    277279.22   -76117.458    7340.4716   -83457.929    1231.5463 
   22750    294.96577   -781.60351    277141.07    -76091.26    7477.0308   -83568.291    1234.5853 
   22800    291.27481   -488.57077    276461.37   -76118.174    7383.4695   -83501.644    1234.6478 
   22850    287.38442    106.40907    275811.62   -76102.935    7284.8526   -83387.788    1234.6725 
   22900    293.73994   -449.77881    276375.82   -76055.777    7445.9575   -83501.735    1239.8027 
   22950    293.73859   -557.51262    277378.26   -76058.788    7445.9234   -83504.712     1245.315 
   23000    290.69179    -788.9639    277832.66   -76120.844    7368.6905   -83489.535    1249.6429 
   23050    297.31075   -553.40179    277638.62   -76110.713    7536.4734   -83647.186    1251.8965 
   23100    297.06647   -512.34833    277041.18   -76159.923    7530.2811   -83690.204    1252.6891 
   23150     297.7251   -564.35979    276524.74    -76173.71    7546.9767   -83720.687    1254.2226 
   23200    293.49666   -335.14228    276379.63   -76129.277    7439.7907   -83569.067    1255.5338 
   23250    293.87123   -299.50647    276888.93   -76118.362    7449.2857   -83567.648    1260.4764 
   23300    292.68141   -686.79456    277857.97   -76128.756    7419.1251   -83547.882    1265.7872 
   23350     291.5609   -988.00487    278110.92   -76136.981    7390.7214   -83527.703    1270.4221 
   23400    292.52947    -555.4958    277188.36    -76128.81    7415.2737   -83544.084    1270.4116 
   23450      290.179   -92.108761     276145.2   -76156.064     7355.692   -83511.756    1269.1517 
   23500     294.3468   -346.32384    275895.61   -76190.288    7461.3407   -83651.629    1272.3935 
   23550    292.42949   -264.62372    276520.92   -76191.414    7412.7393   -83604.153    1278.3469 
   23600    291.28333   -812.14006    277518.51   -76193.938    7383.6855   -83577.624    1282.8397 
   23650    286.88289   -674.17198    277552.26   -76222.827    7272.1396   -83494.966    1285.8326 
   23700    292.55957   -468.06406    276929.47   -76251.832    7416.0366   -83667.868    1286.1511 
   23750    293.78802   -515.35284    276461.02   -76249.265    7447.1762   -83696.441    1288.4425 
   23800    289.27309    1.1995526    276436.19   -76224.852    7332.7283    -83557.58    1289.3847 
   23850    293.19609   -366.19544    276814.38   -76189.418    7432.1716   -83621.589    1292.9032 
   23900    285.93104   -646.19599    277382.38    -76194.88    7248.0112   -83442.891    1296.5707 
   23950    287.21644   -705.57309    277462.66   -76237.112    7280.5946   -83517.706    1299.8498 
   24000    293.23188   -572.63433    276636.53   -76222.947    7433.0788   -83656.026    1300.6653 
   24050    287.05872   -220.69594    276163.75   -76215.843    7276.5964   -83492.439    1300.6734 
   24100    291.50702   -373.12571    276411.33   -76216.225    7389.3558   -83605.581    1304.1489 
   24150    290.04559   -374.44216     277036.2   -76184.255      7352.31   -83536.565    1307.8931 
   24200    285.42406   -585.17348    277270.96   -76190.459    7235.1599   -83425.618    1312.7691 
   24250    293.86834   -691.79922    277205.61   -76125.133    7449.2123   -83574.345    1313.2108 
   24300    293.33936   -472.74662    277057.01   -76152.563    7435.8034   -83588.366    1314.2841 
   24350     287.4031   -380.31601    276903.73    -76184.88    7285.3263   -83470.206    1315.9792 
   24400    288.57009   -365.01132    276857.44   -76203.767    7314.9081   -83518.675    1318.6096 
   24450    287.15345    -551.3291    276960.89   -76204.239    7278.9978   -83483.237    1322.5562 
   24500     287.4352   -315.49752    276888.75   -76207.185    7286.1399   -83493.324    1322.7246 
   24550    286.35002   -556.01616     276865.5   -76228.968    7258.6318   -83487.599    1324.6142 
   24600    289.73754   -645.85589    276800.58   -76256.729    7344.5015   -83601.231    1325.8783 
   24650    287.79403   -373.15183    276853.37   -76248.705    7295.2357   -83543.941    1327.6453 
   24700    289.02746   -412.26077     276946.3   -76250.774    7326.5018   -83577.275     1330.198 
   24750    287.35006   -320.88642    276826.17   -76235.489    7283.9818   -83519.471     1331.175 
   24800    288.70268   -729.44273    276692.34   -76256.893     7318.269   -83575.162    1334.0113 
   24850    292.75092   -453.04813    276489.54   -76261.124    7420.8872   -83682.011     1336.799 
   24900    292.02274   -148.71959    276565.39   -76295.325    7402.4286   -83697.754     1339.806 
   24950     285.8554   -359.97496    276853.26   -76292.052    7246.0938   -83538.145    1344.2358 
   25000    291.97571   -584.78236    277036.41   -76258.718    7401.2363   -83659.954    1345.3112 
   25050    293.20807     -740.783    276790.03    -76244.97    7432.4752   -83677.445    1346.1342 
   25100    288.98773   -390.09015    276391.99   -76276.356    7325.4947   -83601.851     1346.347 
   25150    289.20765    -396.2832    276421.73   -76255.472    7331.0693   -83586.541    1347.5692 
   25200    290.74646   -492.38161    276969.27   -76216.707    7370.0764   -83586.784    1351.3375 
   25250     291.2029   -481.73915     277288.6   -76200.075    7381.6466   -83581.721    1354.0066 
   25300    289.33787   -697.39908    277151.63   -76167.199    7334.3704   -83501.569    1356.2674 
   25350    289.63342   -466.48311    276928.54   -76171.882    7341.8621   -83513.744    1359.3986 
   25400    292.33548   -217.39199    276709.75    -76197.49    7410.3562   -83607.847    1360.3966 
   25450    286.50071   -456.18527    276770.48   -76223.065    7262.4517   -83485.516    1362.5102 
   25500    285.78211   -708.49671    276962.22   -76239.826    7244.2361   -83484.062    1365.9128 
   25550    294.48287   -489.63807    276986.16   -76248.305    7464.7899   -83713.095    1369.6827 
   25600    287.70959   -571.91064    276962.08   -76254.033    7293.0954   -83547.129    1371.5448 
   25650    290.87752   -404.41149    276703.36   -76244.503    7373.3985   -83617.902    1372.5192 
   25700    289.36421   -407.52111     276577.7   -76215.483     7335.038   -83550.521    1374.8296 
   25750    291.61457   -511.17439    276535.99   -76228.127     7392.082   -83620.209    1377.2851 
   25800    289.49752   -526.56232    276683.68   -76205.606    7338.4174   -83544.023     1381.593 
   25850     288.5088   -482.24415    277067.22   -76205.435    7313.3545   -83518.789    1386.3932 
   25900    291.64115   -607.16334       277366   -76234.463    7392.7556   -83627.219    1390.2042 
   25950    287.63651   -640.34121    277129.79   -76249.376    7291.2429   -83540.619    1390.4161 
   26000    290.48489   -599.32817    276528.74   -76280.987     7363.446   -83644.433    1390.2295 
   26050    292.51764   -419.27134    275932.95   -76292.312    7414.9736   -83707.285     1392.995 
   26100    290.83088     -442.816    276150.55   -76308.359    7372.2163   -83680.575    1397.7994 
   26150    286.11824   -568.79752    276862.35   -76240.144    7252.7566   -83492.901    1404.1341 
   26200    290.23731   -677.71808    277618.51    -76227.73      7357.17     -83584.9    1411.0775 
   26250    288.16487   -489.35406    277564.77    -76195.81    7304.6361   -83500.446    1414.9938 
   26300    290.89583   -484.97263    276863.76   -76199.851    7373.8628   -83573.714    1415.7821 
   26350    296.21538    -112.2963    276048.59   -76158.177     7508.707   -83666.884    1415.1375 
   26400     291.7012   -235.38559    276261.36   -76155.954    7394.2779   -83550.232    1418.9079 
   26450    290.33621   -319.86048    277109.49   -76196.497    7359.6771   -83556.174    1423.9322 
   26500     291.8723   -738.02845    277839.73   -76163.307    7398.6151   -83561.923    1431.6844 
   26550    289.15746    -688.4277    277700.17   -76203.415    7329.7971   -83533.212    1436.7491 
   26600     293.8075   -306.80601    276821.81   -76203.206      7447.67   -83650.876     1436.495 
   26650    289.83138    19.348564    276327.21   -76241.863    7346.8802   -83588.743    1436.6634 
   26700    287.01822   -436.72016    276620.88   -76293.704      7275.57   -83569.274      1440.92 
   26750    289.35194   -752.35277    277063.14   -76325.414    7334.7269   -83660.141    1444.8208 
   26800    286.70458   -418.26523    277086.97   -76322.106    7267.6195   -83589.726    1447.6477 
   26850    284.42445   -362.95345    276786.39    -76361.27    7209.8209   -83571.091    1445.9837 
   26900    287.76053   -437.16252    276366.08   -76386.267    7294.3867   -83680.654    1447.1596 
   26950     291.6426   -297.64953    276247.42   -76380.763    7392.7925   -83773.555    1448.3751 
   27000    286.85868    -219.9677    276633.99   -76393.287    7271.5259   -83664.813    1452.4664 
   27050    288.57919   -658.09266    277214.59    -76387.07    7315.1386   -83702.209    1457.8066 
   27100    285.91241   -673.55464    277356.57   -76417.901     7247.539    -83665.44    1462.2889 
   27150    290.39766   -253.94253    276677.68   -76328.888    7361.2348   -83690.122    1461.7672 
   27200    289.89566   -700.79124    276219.72   -76331.466    7348.5097   -83679.975     1462.149 
   27250    290.02974   -333.98118    276136.34   -76335.935    7351.9083   -83687.844    1462.9377 
   27300    285.59658   -681.92548    276803.98   -76312.747    7239.5331    -83552.28    1469.0849 
   27350    287.45969   -702.81865    276992.43   -76314.294    7286.7608   -83601.055     1473.893 
   27400    290.49956   -451.73974    276665.34   -76285.214    7363.8178   -83649.031    1476.7754 
   27450    293.09918   -402.65866    276605.38   -76250.883     7429.715   -83680.598     1480.459 
   27500    291.94331   -886.88202    277229.89   -76201.154     7400.415   -83601.569    1485.0745 
   27550    290.32712   -451.50648    277596.15   -76183.737    7359.4466   -83543.184    1488.5032 
   27600    288.11969   -712.77938    277742.77   -76159.118    7303.4909   -83462.609    1492.9057 
   27650     291.1564   -714.43131    277208.93   -76197.977    7380.4679   -83578.445    1494.1114 
   27700    293.37779   -700.36178    276603.81   -76207.847    7436.7775   -83644.624    1494.3924 
   27750     292.6162   -404.62491    276456.84   -76168.583    7417.4721   -83586.055    1497.0558 
   27800    287.59046   -34.173742     276962.3   -76218.418    7290.0757   -83508.494    1500.6716 
   27850    289.07326   -754.01294    277796.49   -76184.414    7327.6628   -83512.077    1505.1596 
   27900     296.3082   -723.80248    277905.76   -76110.242    7511.0598   -83621.302    1506.1833 
   27950    290.25226   -681.79944    277486.89   -76121.145    7357.5489   -83478.694    1506.7895 
   28000    289.85368   -92.460723    276890.73   -76132.554    7347.4454       -83480    1506.6249 
   28050    292.68468   -738.33341     276849.8   -76111.156     7419.208   -83530.364    1509.5404 
   28100    295.89714   -570.36826    277046.19   -76106.164    7500.6401   -83606.804    1512.3856 
   28150    288.47865   -538.91426    277147.87   -76138.715    7312.5901   -83451.305    1515.7931 
   28200    290.15619   -333.40985    276923.27   -76163.983    7355.1137   -83519.097    1517.5114 
   28250    291.50824   -413.06404     276971.8   -76110.298    7389.3866   -83499.684    1519.2406 
   28300    290.11348   -635.23177    277261.53   -76122.323     7354.031   -83476.354    1522.3695 
   28350    289.60616   -554.32952    277520.62   -76152.302    7341.1712   -83493.473    1528.2698 
   28400    292.31592   -528.93351    277569.73   -76146.784    7409.8603   -83556.644    1530.9353 
   28450    289.34513   -516.96645    277274.15   -76141.331    7334.5544   -83475.885    1533.3563 
   28500    299.21774   -280.61255    276894.38   -76098.112    7584.8131   -83682.925    1535.4812 
   28550     294.4334   -516.21481    276933.15   -76052.414    7463.5358    -83515.95    1541.8138 
   28600    295.71152   -517.17399    277018.35   -76017.781    7495.9347   -83513.716    1544.4586 
   28650    296.06322   -584.73555    277234.25   -76023.898    7504.8499   -83528.748    1548.6746 
   28700    295.87412   -532.23371     277771.9   -75980.046    7500.0565   -83480.103    1553.2553 
   28750    292.75695   -582.27997    277918.89   -76005.957    7421.0399   -83426.997    1557.6985 
   28800    295.49941   -773.25927     277480.5    -76084.01    7490.5579   -83574.568    1562.4189 
   28850    294.59643   -277.71743    276611.72    -76102.39    7467.6686   -83570.059     1562.389 
   28900    290.66895   -282.40288    276430.82   -76110.509    7368.1116   -83478.621    1564.3578 
   28950    290.77114   -453.35485    276800.91   -76124.554    7370.7019   -83495.256    1567.1809 
   29000    289.38967   -709.05686    277466.63   -76159.938    7335.6833   -83495.621    1572.3824 
   29050    292.25125    -448.7948    277259.12   -76165.963    7408.2209   -83574.184    1574.1858 
   29100    294.87036   -581.75729    277045.75    -76152.61    7474.6123   -83627.223    1577.9169 
   29150    291.40903   -521.10507    276926.88   -76168.352    7386.8717   -83555.224    1581.9505 
   29200    291.86968   -449.73292    276990.37   -76160.664    7398.5488   -83559.213    1582.2334 
   29250    294.92909   -716.71955    277096.03   -76114.357     7476.101   -83590.458    1586.1425 
   29300    292.45596   -467.32765    277021.13   -76157.412    7413.4103   -83570.822    1588.4802 
   29350    290.43681   -505.25263     277070.9   -76187.963     7362.227    -83550.19    1593.3097 
   29400    291.36067    -422.6261    277093.26   -76212.503    7385.6458   -83598.149    1597.8346 
   29450    288.89654   -634.87243    277088.19   -76213.818    7323.1832   -83537.001     1601.065 
   29500    294.16331   -389.86917    276789.17   -76224.769    7456.6894   -83681.459    1603.1717 
   29550    295.01898     -621.884    276591.47    -76195.38    7478.3797    -83673.76    1606.9835 
   29600     290.5359   -333.59265       276538   -76167.573    7364.7389   -83532.312    1609.7973 
   29650    294.09882   -506.72171    276873.22   -76147.818    7455.0546   -83602.873    1614.7021 
   29700     289.7763   -436.31667    277231.82   -76176.494    7345.4839   -83521.978    1618.9559 
   29750    289.58681   -808.94727    277377.57   -76154.597    7340.6806   -83495.278    1620.8077 
   29800    290.43875   -382.74173    276980.52   -76134.052    7362.2764   -83496.328    1620.5638 
   29850    294.96593   -267.88097    276670.65   -76131.763    7477.0348   -83608.798    1622.9734 
   29900    298.75908   -616.16891    276933.06   -76093.311    7573.1868   -83666.498    1627.2839 
   29950    294.96657   -410.30678    277297.23   -76082.661    7477.0511   -83559.712    1631.0849 
   30000    296.60903   -488.95748    277522.01   -76112.382    7518.6855   -83631.067    1633.8186 
   30050    293.77878    -378.1956    277404.35   -76143.632     7446.942   -83590.574    1636.6991 
   30100    291.35967   -488.80353    277013.81   -76096.738    7385.6206   -83482.359    1638.6153 
   30150    293.31582   -562.89484     276653.7   -76108.927    7435.2065   -83544.134    1640.5843 
   30200     296.9903   -541.94809    276429.32   -76114.305    7528.3504   -83642.655    1643.2168 
   30250    292.81098   -347.05651    276642.33   -76122.607    7422.4095   -83545.016    1649.1177 
   30300    291.20206   -334.15545    277118.39   -76095.594    7381.6252   -83477.219    1655.1687 
   30350     294.6617   -584.75513    277724.01   -76112.924     7469.323   -83582.247    1661.4226 
   30400    293.60655   -616.43623    277739.55   -76177.826    7442.5761   -83620.402    1663.3444 
   30450    290.03902   -464.37577    277211.53    -76205.43    7352.1436   -83557.574    1663.1693 
   30500    296.03118   -84.422929    276494.11   -76166.454    7504.0378   -83670.492    1662.5422 
   30550    289.33487    166.59318    276346.82   -76159.385    7334.2942   -83493.679    1664.3675 
   30600    291.85013   -270.26122    276909.51    -76196.67    7398.0531   -83594.723    1668.1081 
   30650    289.32063   -730.66315    277520.26    -76211.58    7333.9334   -83545.514    1671.8326 
   30700    290.73333   -487.62688    277453.19     -76210.2    7369.7435   -83579.944    1674.4161 
   30750    286.95056   -109.68127    276916.42   -76245.439    7273.8548   -83519.294    1675.4509 
   30800    290.54965   -552.07057    276940.34   -76292.884    7365.0874   -83657.972    1675.9341 
   30850    289.57173   -532.55615    277067.15    -76306.16    7340.2985   -83646.458    1680.9255 
   30900    285.45164   -707.38647    276928.77   -76285.172    7235.8591   -83521.031     1682.888 
   30950    291.28897   -379.07782    276661.86   -76302.352    7383.8283    -83686.18    1685.1669 
   31000    288.18064     -310.628    276570.76   -76305.284    7305.0358    -83610.32      1688.37 
   31050     291.2938   -622.93358    276795.01   -76298.628    7383.9509   -83682.579    1690.2346 
   31100    291.61241   -442.70836    276675.47   -76275.923    7392.0271    -83667.95    1692.2987 
   31150    293.31572    -259.7579    276535.91   -76251.598    7435.2041   -83686.802    1694.2416 
   31200    292.77385   -308.10181    276727.01   -76239.544    7421.4684   -83661.013    1697.6196 
   31250    293.54386   -366.34406    277044.78   -76234.679    7440.9872   -83675.666    1702.9612 
   31300    291.05865   -664.85888    277115.37   -76230.098    7377.9901   -83608.088     1706.963 
   31350    290.00841   -979.20934    276879.11   -76246.854    7351.3677   -83598.222    1709.5304 
   31400    287.53663   -467.37428    276296.65   -76272.656    7288.7111   -83561.367    1710.1284 
   31450    292.54627   -350.02381     276151.9   -76270.549    7415.6993   -83686.248    1713.1133 
   31500    289.00678   -552.81268     276846.5   -76265.394    7325.9776   -83591.372    1716.2858 
   31550    285.30884   -663.98135    277477.38   -76266.239    7232.2392   -83498.478    1720.0589 
   31600    292.83353   -718.12694    277351.18   -76282.554    7422.9812   -83705.535    1719.8995 
   31650    292.38144     -125.719    276732.93   -76230.994    7411.5212   -83642.515    1720.2235 
   31700    290.44652   -532.48623    276442.77   -76243.814    7362.4732   -83606.287    1721.3491 
   31750    294.30531   -445.11036    276493.62   -76237.064    7460.2889   -83697.353    1721.0765 
   31800    295.83914   -702.89821     276987.8   -76237.337    7499.1697   -83736.506    1724.6209 
   31850    287.16658   -469.41504    277197.51   -76275.687    7279.3307   -83555.018    1729.4275 
   31900    289.48148   -432.24343    277081.85   -76302.574    7338.0107   -83640.585    1732.4566 
   31950    289.46144    -452.6968    276928.61   -76268.274    7337.5028   -83605.777    1734.9139 
   32000    293.36658   -245.13399    276922.59   -76295.009    7436.4934   -83731.503     1735.181 
   32050    289.47722   -755.90153    277037.18   -76302.793    7337.9025   -83640.696    1737.8574 
   32100    292.54035   -644.12675    276750.27   -76283.481    7415.5494    -83699.03    1739.3987 
   32150    292.46885   -198.85926    276306.64   -76330.427    7413.7368   -83744.164    1738.4856 
   32200     291.6319   -598.51925     276563.5   -76298.356    7392.5213   -83690.877     1742.533 
   32250    287.68054   -551.15016    277103.64   -76265.167    7292.3589   -83557.526    1748.5012 
   32300    285.48998   -576.67898    277524.95   -76278.489    7236.8309   -83515.319     1754.516 
   32350    291.50151   -468.31204    277285.88   -76275.441    7389.2159   -83664.657    1756.0354 
   32400    289.67702   -514.81911    276770.34   -76276.327    7342.9674   -83619.295     1756.781 
   32450    288.96336   -618.25718    276612.95   -76311.715    7324.8769   -83636.592    1758.3504 
   32500     289.9836   -174.17608     276482.8   -76295.417    7350.7389   -83646.156    1758.9052 
   32550    289.44255    -555.9659    276765.26    -76306.66    7337.0237   -83643.684    1761.6687 
   32600    286.71724   -369.77809    276879.89   -76249.637    7267.9404   -83517.577    1763.8335 
   32650    288.80701   -538.72951    276821.04   -76249.632    7320.9137   -83570.546    1765.9285 
   32700    286.88691   -475.64084    276746.16   -76254.062    7272.2415   -83526.303    1767.9864 
   32750    293.43716   -367.63784    276665.53   -76237.054    7438.2825   -83675.337    1770.0302 
   32800    288.77181   -462.62756    276787.48   -76251.887    7320.0215   -83571.908    1772.0357 
   32850    291.19666   -704.17462    277015.09   -76239.723    7381.4885   -83621.211    1776.4676 
   32900    291.33736   -525.95538    277199.54   -76254.977    7385.0549   -83640.032     1780.093 
   32950    290.52854   -575.59746    277041.02   -76291.068    7364.5524    -83655.62    1781.9765 
   33000     294.3285   -415.78718    276601.12   -76253.132    7460.8768   -83714.009    1783.7583 
   33050    293.26042   -471.04044    276355.75   -76254.506    7433.8024   -83688.308     1785.584 
   33100    291.27462   -401.27501    276521.79   -76268.681    7383.4646   -83652.145    1789.7438 
   33150    292.02901   -723.76163    277111.42   -76275.419    7402.5874   -83678.007    1797.3804 
   33200    291.33078   -389.71805    277418.22   -76297.252    7384.8882    -83682.14    1801.8192 
   33250    290.98706   -823.31676    277411.69   -76302.218    7376.1753   -83678.393    1803.6812 
   33300     288.7083    -585.7648    276960.02   -76283.462    7318.4114   -83601.874    1804.3618 
   33350    285.71653   -411.87429    276646.96   -76325.491    7242.5738   -83568.065    1803.6685 
   33400    289.90784   -364.37491    276470.22   -76295.304    7348.8182   -83644.122    1807.4224 
   33450     289.2728   -385.49732    276625.85   -76274.328    7332.7207   -83607.049    1811.7097 
   33500    287.70183   -382.41789    277009.81   -76302.339    7292.8985   -83595.238    1815.4799 
   33550    284.03291   -733.58217    277108.47   -76276.895    7199.8959   -83476.791    1818.2487 
   33600    290.58503   -110.24314    276616.57   -76297.699    7365.9843   -83663.683    1820.3713 
   33650    291.39201   -591.50311    276578.12     -76308.6    7386.4402    -83695.04    1823.9185 
   33700    290.06711   -604.09477    276931.27   -76267.923    7352.8556   -83620.779    1827.9331 
   33750    290.95826    -790.7561    277171.78   -76248.335    7375.4452    -83623.78    1832.1154 
   33800    292.47037   -597.45895    277022.03   -76261.114    7413.7755    -83674.89    1832.8364 
   33850    292.99063   -566.40126    276737.88   -76273.848    7426.9635   -83700.811    1832.5722 
   33900     291.6997   -432.79979    276521.29   -76296.153    7394.2398   -83690.393    1835.9967 
   33950    291.61684   -433.93098    276538.17   -76306.224    7392.1394   -83698.364    1839.8844 
   34000    290.53848   -182.95885    276829.89   -76274.597    7364.8044   -83639.401    1843.4465 
   34050    287.24437   -670.23173    277169.75   -76281.581    7281.3025   -83562.884    1847.5346 
   34100    286.28575   -869.96604    277251.02   -76301.877    7257.0026    -83558.88    1850.4282 
   34150    291.68616   -809.10243     277070.2   -76303.986    7393.8967   -83697.883    1851.0063 
   34200    289.81503   -564.28606    276894.35   -76313.749    7346.4657   -83660.214    1851.8459 
   34250    286.82125    -684.5319    276881.99   -76303.598     7270.577   -83574.175     1855.772 
   34300    292.57146   -522.59564    276806.44   -76258.644     7416.338   -83674.982    1856.3894 
   34350     294.1209    -439.7646    276643.92   -76277.926    7455.6144   -83733.541    1857.4046 
   34400    288.35824   -348.89734    276483.81   -76320.263    7309.5379   -83629.801    1858.9733 
   34450    291.64258   -348.92476    276480.78   -76281.892    7392.7919   -83674.684    1863.0478 
   34500    287.19453   -610.72451     276736.7   -76322.202    7280.0391   -83602.241    1865.4674 
   34550    285.01586   -372.70644    277001.91   -76368.824    7224.8124   -83593.637    1869.0796 
   34600    288.01739   -599.28342    277272.94   -76398.331    7300.8977   -83699.229     1873.713 
   34650    285.66033   -726.96275    277174.95   -76364.315    7241.1492   -83605.464    1873.4373 
   34700    286.84674   -362.15165    276839.47    -76331.02    7271.2232   -83602.243    1871.8627 
   34750    286.35429   -707.70693    276587.37   -76358.961    7258.7401   -83617.701    1871.9334 
   34800    291.76284   -308.63104    276281.63   -76322.689    7395.8405   -83718.529    1872.4149 
   34850    290.16589    -219.0293    276189.89   -76363.269    7355.3596   -83718.629    1874.4724 
   34900    289.86892   -447.59312    276634.29   -76366.471    7347.8318   -83714.302    1878.0105 
   34950    285.81481   -439.43023    277183.59   -76301.379    7245.0648   -83546.444    1881.6635 
   35000    291.90076   -932.61438    277552.06   -76299.987    7399.3365   -83699.323    1885.2593 
   35050    289.88347   -591.54104    277006.85   -76289.042    7348.2006   -83637.242    1884.0145 
   35100    286.39318   -136.17538    276143.14   -76330.126    7259.7258   -83589.851    1880.8531 
   35150    287.66685   -126.22698    276032.51   -76348.366    7292.0119   -83640.378    1883.6782 
   35200    289.52702   -796.40698    276808.98   -76339.469    7339.1651   -83678.634    1888.6618 
   35250    289.76752   -616.23086    277221.05   -76295.986    7345.2615   -83641.247    1892.7709 
   35300    292.54005   -371.35466    277015.98   -76267.479    7415.5418   -83683.021    1895.4951 
   35350    295.63616   -311.46667    276621.71    -76251.74    7494.0244   -83745.764    1896.5141 
   35400    287.03809    -708.6018    276611.87     -76284.3    7276.0735   -83560.373     1896.599 
   35450    288.83428   -474.10948    277131.83   -76262.847     7321.605   -83584.452    1902.4716 
   35500    289.94258    -410.9887    277260.58   -76229.675     7349.699   -83579.374     1904.931 
   35550     287.3072   -455.27717    276909.18   -76272.727    7282.8952   -83555.622    1906.3111 
   35600    291.38857   -444.56659     276706.5   -76194.606    7386.3532   -83580.959     1909.918 
   35650    290.81205   -589.40852     276821.8    -76193.81    7371.7391   -83565.549    1911.6316 
   35700     289.4645   -467.96217    276789.92   -76240.191    7337.5801   -83577.771    1915.1543 
   35750    293.89759   -316.38764    276715.99   -76248.057    7449.9537    -83698.01    1918.2156 
   35800     291.1129    -641.6732    276770.61   -76267.339    7379.3653   -83646.704    1919.2456 
   35850    288.92017   -707.21005    277221.46   -76222.285    7323.7822   -83546.067    1922.1308 
   35900    293.20978   -695.10169     277463.8   -76219.591    7432.5186   -83652.109    1926.1974 
   35950    293.07742   -831.01503    277126.71   -76235.298    7429.1635   -83664.462    1926.5991 
   36000    287.81456   -482.30636    276471.21   -76261.297    7295.7563   -83557.053    1925.2655 
   36050    292.04044    -332.6672     276237.4   -76294.883    7402.8772    -83697.76    1926.9077 
   36100    285.38123    -620.9418    276620.12   -76259.897    7234.0741   -83493.971    1930.0801 
   36150    291.57787   -738.08055    277125.89    -76254.42    7391.1517   -83645.572     1934.162 
   36200    290.55502      -874.07    277203.34    -76257.48    7365.2236   -83622.703    1937.5672 
   36250    291.27803   -611.42815    276621.33   -76242.986     7383.551   -83626.537    1937.8379 
   36300    292.58456    27.410452    276133.38   -76302.445    7416.6701   -83719.116    1935.5796 
   36350    292.78109   -294.85859    276648.23   -76234.571    7421.6518   -83656.222     1939.875 
   36400    290.55973   -456.62969    277273.14   -76273.301     7365.343   -83638.644    1945.5638 
   36450    287.22594   -566.84422    277366.31   -76246.596    7280.8354   -83527.432    1949.6153 
   36500     288.7315    -530.4134    277131.78   -76246.471    7318.9995    -83565.47    1948.1316 
   36550    288.92441   -423.32605    276748.24   -76216.136    7323.8895   -83540.025    1949.9971 
   36600    295.48792   -432.76963    276784.33   -76195.408    7490.2668   -83685.674    1954.7741 
   36650     292.6611   -487.62507    277021.88   -76224.602    7418.6103   -83643.212     1958.702 
   36700    289.77284   -684.66864    277113.76   -76211.387    7345.3962   -83556.783    1963.2665 
   36750    288.19097   -403.41366    276771.29   -76245.548    7305.2978   -83550.846     1964.007 
   36800    290.46815   -518.06154    276494.05   -76205.934    7363.0214   -83568.956    1964.0336 
   36850    294.09731   -232.31993    276448.23   -76215.481    7455.0164   -83670.498    1967.0668 
   36900    291.02007   -475.75109    276846.99   -76224.932    7377.0121   -83601.945    1970.2847 
   36950    287.81981   -554.13568    277260.45   -76257.107    7295.8893   -83552.997    1971.8989 
   37000    289.45483    -713.1455    277329.21    -76283.15     7337.335   -83620.485    1974.0671 
   37050    286.40464   -499.41247    276907.54   -76289.321    7260.0164   -83549.338    1975.6246 
   37100    292.55588    -402.9571    276469.11   -76245.234    7415.9429   -83661.177    1976.2107 
   37150    294.71183   -506.02657       276536   -76251.743    7470.5937   -83722.337    1978.5032 
   37200    295.00305   -681.83231    277075.89   -76264.597    7477.9757   -83742.573    1984.1309 
   37250    288.56743   -730.31201    277400.71   -76257.355    7314.8405   -83572.196     1991.018 
   37300    285.52065   -584.19336    277262.68   -76263.646    7237.6082   -83501.254    1994.8861 
   37350    291.68787    -334.9686    276627.27   -76262.024      7393.94   -83655.964    1993.1179 
   37400    292.01344   -421.30137    276077.21   -76254.098    7402.1927    -83656.29    1993.5904 
   37450    291.32524   -222.45746    276128.79   -76247.248    7384.7478   -83631.996    1997.1795 
   37500    289.27849   -516.05498    276728.06    -76247.14     7332.865   -83580.005    2003.7498 
   37550    288.50163   -712.08051    277239.29   -76236.604    7313.1726   -83549.777    2009.3166 
   37600    289.13667   -682.32509    277333.64   -76244.996    7329.2701   -83574.266    2015.1121 
   37650    293.09627   -810.24737    276791.38   -76253.233    7429.6414   -83682.874    2014.0545 
[...]
   90850      294.678   -745.04704    277319.72   -76103.034    7469.7363    -83572.77    4681.0546 
   90900    294.62365   -79.160863    276344.09     -76114.6    7468.3586   -83582.958    4671.6577 
   90950    288.66628   -301.76117    276321.67   -76148.411    7317.3463   -83465.757     4675.168 
   91000    293.21195   -313.27112    276633.63   -76127.094    7432.5736   -83559.668    4683.5606 
   91050    291.99798   -392.51901    277077.96   -76154.279    7401.8009    -83556.08    4695.8581 
   91100    293.34123   -562.98746    277543.41   -76104.912    7435.8507   -83540.763    4706.4995 
   91150    294.70351   -953.31044    277709.33   -76109.113     7470.383   -83579.496    4709.6095 
   91200    292.01335   -555.68173    277154.03   -76140.699    7402.1906   -83542.889    4704.5746 
   91250    293.22715   -427.99892    276566.23   -76157.506    7432.9589   -83590.464    4697.8052 
   91300    296.54372    -262.8442    276295.37   -76161.169      7517.03   -83678.199    4695.6039 
   91350    295.10515   -303.92915    276634.43   -76174.658    7480.5639   -83655.222    4704.6699 
   91400    293.99876   -596.41685    277342.53   -76200.493    7452.5183   -83653.011    4717.5483 
   91450    291.07624   -838.63365    277531.15   -76218.962     7378.436   -83597.398     4720.781 
   91500    289.27899   -453.35064    276900.12   -76218.078    7332.8779   -83550.956    4712.3374 
   91550    293.34143   -523.34303    276240.76   -76217.042    7435.8559   -83652.898      4704.75 
   91600    294.13617   -280.09559    275781.12     -76249.5    7456.0016   -83705.502    4700.1722 
   91650    288.80724   -259.31768    276122.53    -76312.46    7320.9195   -83633.379    4703.7207 
   91700    291.06102   -506.89334    276892.93   -76321.309    7378.0502   -83699.359    4711.5231 
   91750    293.22149   -580.81928     277390.7   -76268.333    7432.8154   -83701.148    4719.0709 
   91800    290.79838   -698.28513    277353.93   -76276.219    7371.3924   -83647.611    4719.7569 
   91850    286.50326   -629.43257    276701.96   -76306.037    7262.5163   -83568.553    4713.6529 
   91900    288.66788   -428.18999    276142.76   -76288.931    7317.3869   -83606.318     4711.431 
   91950    290.77354   -319.09908    276221.71   -76349.419    7370.7628   -83720.182    4712.7824 
   92000    286.77827   -451.56999    276832.35   -76304.369    7269.4874   -83573.856    4720.4532 
   92050    282.64471   -316.74876    277226.99   -76340.907    7164.7067   -83505.613    4726.8206 
   92100    290.16721   -589.58467    277289.79   -76275.445     7355.393   -83630.838     4732.861 
   92150    292.57847   -707.77801    276886.43    -76271.27    7416.5156   -83687.785     4732.099 
   92200    294.71851   -321.28748    276294.07    -76273.27    7470.7632   -83744.033    4729.6669 
   92250    288.15498    -388.7873    276560.09   -76246.745    7304.3853    -83551.13    4731.9524 
   92300     288.6184   -683.38228    277241.16   -76253.088    7316.1325   -83569.221    4739.7248 
   92350    294.48478   -356.87373    277486.49   -76265.095    7464.8383   -83729.934    4745.3757 
   92400    293.70659   -880.05263    277308.28   -76268.032    7445.1122   -83713.144    4744.7861 
   92450    291.25542   -369.90388    276507.34    -76264.19    7382.9779   -83647.168    4734.0214 
   92500    291.51256   -179.02084    276026.29   -76288.869    7389.4961   -83678.365     4727.626 
   92550    290.44113   -377.27452    276466.69   -76296.513    7362.3366   -83658.849    4729.8162 
   92600    286.69725   -744.05828    277193.32   -76319.565    7267.4338   -83586.999    4739.7604 
   92650    289.61994   -721.03829    277349.77   -76298.299    7341.5205    -83639.82    4742.7124 
   92700     284.5786   -346.54446    276789.92   -76290.508    7213.7285   -83504.237    4736.4106 
   92750    287.40512   -441.43263    276337.02   -76349.262    7285.3773   -83634.639    4735.3544 
   92800    288.33395   -358.13471     276182.1   -76343.884     7308.922   -83652.806    4735.4106 
   92850    291.59686   -576.03219    276370.94   -76324.539    7391.6329   -83716.172    4742.8469 
   92900    289.37585    -695.9471    276833.88   -76329.123    7335.3331   -83664.456     4753.252 
   92950    291.83869   -504.36034     277013.4   -76316.356    7397.7632    -83714.12    4757.2649 
   93000    288.23146   -553.44818    277039.06   -76281.713    7306.3241   -83588.037    4760.4967 
   93050     288.0733   -484.04596    276797.99   -76258.054    7302.3149   -83560.369    4759.2024 
   93100    293.61446   -275.56397    276727.36   -76229.675    7442.7768   -83672.452    4764.0293 
   93150    288.34748   -468.91264     276852.7   -76242.052     7309.265   -83551.317    4765.6042 
   93200    293.52824   -647.51957    277005.23   -76217.666    7440.5912   -83658.257     4770.935 
   93250    295.67224   -515.89739    276982.65    -76192.35    7494.9391   -83687.289    4772.0925 
   93300    290.00883   -411.51973     276859.8   -76216.553    7351.3784   -83567.931    4774.6494 
   93350    286.77314   -524.91362    276761.63   -76257.805    7269.3575   -83527.162    4776.7736 
   93400    290.75501   -672.57053    276671.34   -76269.121    7370.2931   -83639.414     4778.587 
   93450    289.52688   -463.28735    276481.48   -76264.301    7339.1614   -83603.462    4777.3857 
   93500    291.64043   -373.31871    276545.47   -76256.858    7392.7375   -83649.596    4781.3686 
   93550    292.68754   -759.73037    276974.57   -76253.363    7419.2805   -83672.643    4790.6407 
   93600    291.72876   -564.38651    277238.26   -76210.758    7394.9766   -83605.734    4796.3102 
   93650    289.07338   -663.39875    277288.08   -76220.306    7327.6658   -83547.972    4798.5456 
   93700    289.38751   -750.47688    277001.86   -76213.999    7335.6286   -83549.627    4795.4575 
   93750    289.72569   -742.07521     276660.9   -76193.359    7344.2011    -83537.56    4793.5426 
   93800      295.855   -468.66357    276445.52   -76190.643    7499.5717   -83690.215    4791.4875 
   93850    295.49061   -361.93502    276679.09   -76214.254     7490.335   -83704.589    4796.9619 
   93900    289.41664   -537.27375    277037.87   -76191.866     7336.367   -83528.233    4802.3047 
   93950    287.96449   -282.75828    276891.81   -76188.565    7299.5567   -83488.122     4804.487 
   94000     293.4976   -741.80536    276713.02    -76179.47    7439.8146   -83619.285    4805.7894 
   94050    294.32477   -352.28899    276455.11   -76135.575    7460.7823   -83596.357    4804.6264 
   94100    291.45894   -320.05075     276664.1   -76151.513     7388.137   -83539.649    4811.8801 
   94150    292.48924   -888.49005    277287.39    -76137.59    7414.2539   -83551.844    4823.3989 
   94200    292.59998   -796.62829    277398.79    -76125.47     7417.061   -83542.531    4827.2553 
   94250    291.52138   -416.12797    276778.63   -76106.622    7389.7197   -83496.342    4820.4535 
   94300    298.97692   -407.34359    276643.04   -76093.025    7578.7087   -83671.734    4820.1733 
   94350     294.6614    -493.8441    276751.92   -76107.758    7469.3153   -83577.073    4824.9465 
   94400    294.21688   -359.78721    277075.87   -76128.223    7458.0474   -83586.271    4832.8533 
   94450      288.173   -567.39797    277115.51   -76116.748    7304.8423    -83421.59    4834.9086 
   94500     293.4747    -452.1198    276691.86   -76103.419    7439.2339   -83542.653    4830.8327 
   94550    290.63411   -577.37673     276793.5   -76144.366    7367.2285   -83511.594    4832.0915 
   94600    292.37369   -451.02263    277037.86   -76126.174    7411.3247   -83537.499    4834.5444 
   94650    292.05662   -966.27651    277256.01   -76097.903    7403.2873    -83501.19    4841.1346 
   94700    292.15477   -696.92732    277009.25    -76055.96    7405.7753   -83461.736     4841.559 
   94750    292.95651   -421.77916    276696.24   -76105.255    7426.0986   -83531.353    4841.2559 
   94800    297.62126   -507.32979    276804.74   -76118.258    7544.3443   -83662.602     4845.194 
   94850    295.82134   -481.48356     277160.8   -76131.009    7498.7186   -83629.727    4856.5708 
   94900    291.46272   -574.63083    277413.84   -76133.266    7388.2327   -83521.499    4864.7874 
   94950    293.53798   -631.69642       277130   -76177.691     7440.838   -83618.529     4865.483 
   95000    292.83183    -274.8139    276307.44   -76201.487    7422.9381   -83624.426    4858.4932 
   95050    290.61029   -343.69421    276125.06   -76161.993    7366.6247   -83528.617    4858.1954 
   95100    292.12463   -470.21674    276574.12   -76180.827    7405.0115   -83585.838    4867.5828 
   95150    288.74546   -824.56053    277003.32    -76192.92    7319.3535   -83512.273    4874.4779 
   95200     290.8006   -458.54738    277018.13   -76194.606    7371.4488   -83566.055    4875.9292 
   95250    291.50253   -628.87502    277010.03    -76184.37    7389.2418   -83573.612    4878.3858 
   95300    292.48157   -533.80392    276703.28   -76236.133    7414.0594   -83650.192    4875.7211 
   95350    294.12404   -627.28175    276475.96   -76253.119    7455.6941   -83708.813    4875.8755 
   95400    293.99648   -247.60188    276553.26   -76208.689    7452.4605   -83661.149    4881.4889 
   95450    288.49667   -388.76114    277044.07   -76224.569     7313.047   -83537.616    4887.0935 
   95500    292.29378   -780.60702    277441.09   -76220.458    7409.2992   -83629.757    4894.5486 
   95550    288.46359   -540.09383    277131.28   -76223.475    7312.2084   -83535.683    4895.4361 
   95600    288.12144   -374.90459    276652.52   -76226.629    7303.5353   -83530.165     4895.013 
   95650    292.26755   -314.52797    276417.72    -76260.24    7408.6343   -83668.874    4894.3424 
   95700    289.49759   -331.92571    276637.86   -76242.447    7338.4189   -83580.866    4900.1381 
   95750    287.16319   -408.37645    277171.35   -76231.788    7279.2447   -83511.032    4911.2032 
   95800    291.15897   -643.99549    277652.21   -76258.094     7380.533   -83638.627    4923.7316 
   95850    290.18334   -563.24271       277403   -76240.044     7355.802   -83595.846    4922.5792 
   95900    294.29566   -474.94676    276668.43   -76249.787    7460.0443   -83709.832    4915.4851 
   95950    290.22125   -382.76505     276167.6    -76239.94    7356.7628   -83596.703    4910.1077 
   96000    290.10562    -369.3833    276333.48    -76249.76    7353.8318   -83603.592    4915.4279 
   96050    288.50397   -604.37305    277041.53    -76222.24    7313.2319   -83535.472    4927.2649 
   96100    293.71462    -926.5336    277472.98   -76150.229    7445.3158   -83595.545    4935.5209 
   96150    289.80372   -845.63812    277137.71   -76171.647     7346.179   -83517.826    4937.2014 
   96200    293.22906   -510.61774    276574.73   -76131.503    7433.0073    -83564.51    4935.8636 
   96250    289.68198    -502.2531    276665.14   -76129.331    7343.0931   -83472.424    4941.3349 
   96300     291.4233   -623.08694    277131.27   -76123.345    7387.2334   -83510.578    4951.1528 
   96350    290.64527   -818.94839    277573.87   -76131.863    7367.5114   -83499.374    4959.3296 
   96400    294.46306   -615.72363    277692.49   -76160.616    7464.2879   -83624.904    4962.8294 
   96450    291.10995   -622.88863    277285.16   -76132.013    7379.2905   -83511.303    4961.4753 
   96500    294.78291   -489.82363    276709.22   -76135.539    7472.3957   -83607.935    4955.0207 
   96550    294.28797   -240.91662    276481.96   -76125.717    7459.8495   -83585.566    4955.6289 
   96600    293.13956   -496.49247    276381.57   -76121.801    7430.7387    -83552.54    4956.0316 
   96650    292.60446   -267.56564    276852.34   -76169.936    7417.1746   -83587.111    4965.1428 
   96700    290.35712   -613.23122    277550.07   -76165.589     7360.207   -83525.796    4975.8319 
   96750    287.89849   -523.35057    277694.06   -76145.767    7297.8837    -83443.65    4979.7632 
   96800    290.95065   -598.69001    277181.57   -76152.938    7375.2524    -83528.19    4972.7034 
   96850    289.42452   -462.80043    276602.68   -76197.786    7336.5668   -83534.353    4964.0717 
   96900      292.057   -444.22229    276202.58   -76155.791     7403.297   -83559.088     4959.809 
   96950    293.83724   -273.06962     276196.6   -76169.168    7448.4239   -83617.591    4962.9093 
   97000    289.60923    -590.4032    276718.42   -76178.319     7341.249   -83519.568    4972.5176 
   97050    286.61568   -699.19554    277385.25   -76155.502     7265.366   -83420.868    4981.2654 
   97100    291.84969   -587.26636    277653.68    -76191.63     7398.042   -83589.672    4984.0913 
   97150     289.9221   -638.04617    277338.84   -76191.092    7349.1799   -83540.272    4984.4642 
   97200    295.83584   -655.15575     276670.8   -76182.451     7499.086   -83681.537    4976.7186 
   97250    294.29533   -458.81453    276295.61   -76203.257    7460.0361   -83663.293    4973.6763 
   97300    289.68511   -492.72906    276313.96   -76225.177    7343.1723    -83568.35    4977.6433 
   97350      288.162   -553.79657    276746.05   -76245.638    7304.5635   -83550.201    4988.0525 
   97400    285.71231   -517.00093    277106.26   -76256.065    7242.4667   -83498.532    5001.4024 
   97450    294.39147   -671.47005    276992.91   -76280.435     7462.473   -83742.908    5002.1297 
   97500    290.81154   -202.21836    276603.62   -76285.203     7371.726   -83656.929     5001.351 
   97550    293.92792   -468.46143     276449.5   -76255.501    7450.7227   -83706.223    5000.8655 
   97600    291.76187   -383.42105     276607.6   -76231.835    7395.8158   -83627.651    5004.5205 
   97650    300.68911   -687.78795     276819.9   -76226.447    7622.1107   -83848.558    5008.4043 
   97700    289.56694   -637.98707    276934.51   -76223.314    7340.1769   -83563.491    5010.3525 
   97750    288.04471    -430.3772    277065.04   -76215.578    7301.5903   -83517.168    5016.8644 
   97800    292.24531     -331.388    277133.59    -76248.03    7408.0706   -83656.101    5019.5723 
   97850    287.26594   -491.33289    276983.15   -76273.975    7281.8492   -83555.824    5018.6813 
   97900    288.45866   -647.52275    276636.48   -76316.136    7312.0833    -83628.22    5017.5843 
   97950    287.86244   -185.26603    276395.08   -76279.766      7296.97   -83576.736    5016.4001 
   98000    287.86265    -379.8596    276587.88    -76300.74    7296.9753   -83597.715    5021.2436 
   98050    291.33601   -663.23471    276791.33   -76297.094    7385.0208   -83682.115    5025.8874 
   98100    291.03273   -457.36271    277079.94   -76314.898     7377.333   -83692.231    5032.3033 
   98150    287.37647   -659.98089    277526.63   -76321.222    7284.6512   -83605.874    5039.1666 
   98200    289.61771   -714.62304    277582.38   -76339.994    7341.4638   -83681.457    5041.4659 
   98250    292.11458   -623.81373    276976.23   -76333.587    7404.7567   -83738.344    5032.1029 
   98300    291.47454   -376.32513    276241.27   -76372.306    7388.5323   -83760.838    5023.1895 
   98350    285.95207   -189.85698    276080.93   -76378.729    7248.5442   -83627.273    5021.8479 
   98400     286.9945   -698.27029    276550.04   -76344.819    7274.9687   -83619.787    5025.5526 
   98450     288.8773    -485.8023    276795.22   -76313.905    7322.6954     -83636.6     5030.289 
   98500    286.92147   -589.84972     277084.6   -76324.716    7273.1175   -83597.834    5036.3264 
   98550    291.08867    -875.1222    277157.32   -76356.678    7378.7509   -83735.429    5035.7322 
   98600    293.75913   -613.95769    276859.16   -76374.193    7446.4439   -83820.637     5033.799 
   98650    292.96052   -759.04096    276756.06   -76371.168    7426.2001   -83797.368    5037.6182 
   98700    285.31796   -262.23247    276558.41   -76358.452    7232.4703   -83590.923    5038.1736 
   98750    290.36262   -420.09973    276563.62   -76340.887    7360.3466   -83701.233    5036.3523 
   98800    291.39233   -709.46454    276724.98   -76340.097    7386.4485   -83726.545    5042.6838 
   98850    290.09917   -723.52029    276627.58    -76328.26    7353.6683   -83681.929    5044.7142 
   98900    288.71114   -280.03436     276367.6   -76332.211    7318.4836   -83650.694    5046.2356 
   98950    290.73814   -494.77666    276506.63   -76319.445    7369.8655   -83689.311    5049.4072 
   99000    289.17037   -433.55716    276829.38    -76297.31    7330.1244   -83627.434    5051.7181 
   99050    291.14903   -382.34002    276889.85   -76307.025    7380.2811   -83687.306    5054.6826 
   99100    288.94094   -492.16139    277014.37   -76318.707    7324.3085   -83643.016      5059.67 
   99150    290.31847    -742.3422    277207.84   -76319.042    7359.2273   -83678.269    5063.9151 
   99200    291.39163   -627.41777    277067.45   -76338.716    7386.4308   -83725.147    5065.3341 
   99250    289.60929   -559.94527    276721.59   -76370.552    7341.2504   -83711.803    5061.5834 
   99300    291.17305   -393.61892    276541.37   -76406.808      7380.89   -83787.698    5062.2525 
   99350    286.14252   -466.69828    276463.79   -76423.064    7253.3719   -83676.436    5063.9893 
   99400    290.27021   -512.55062    276479.12   -76403.439    7358.0041   -83761.443    5064.2347 
   99450    289.96072   -781.98872    276528.08   -76403.373    7350.1587   -83753.532     5066.131 
   99500    288.16799   -494.47259       276367   -76427.742    7304.7152   -83732.457    5065.2764 
   99550    287.37113   -599.59161     276485.7   -76378.644    7284.5157   -83663.159    5066.7621 
   99600     288.3197   -395.75214    276818.77   -76374.931     7308.561   -83683.492    5072.9811 
   99650    290.28862   -831.76974     277024.6   -76374.477    7358.4707   -83732.947    5079.1231 
   99700    287.60348   -444.58486    276632.57   -76367.785    7290.4057    -83658.19    5078.9188 
   99750    288.14458   -496.28458    276452.53   -76381.341     7304.122   -83685.463    5079.1253 
   99800    287.29062    -506.2513    276481.86   -76374.719    7282.4749   -83657.194    5080.3385 
   99850    284.40891   -400.03916    276690.59   -76358.191    7209.4269   -83567.618    5083.9964 
   99900    286.54642   -965.62262    276897.31   -76373.929    7263.6105   -83637.539    5086.7112 
   99950    286.08984   -724.86658    276518.07   -76354.844    7252.0367    -83606.88    5081.9356 
  100000    291.75668   -459.45537    275967.37   -76322.913    7395.6842   -83718.597    5080.5445 
Loop time of 243.78 on 6 procs for 100000 steps with 8505 atoms

Performance: 354.418 ns/day, 0.068 hours/ns, 410.205 timesteps/s
99.4% CPU use with 6 MPI tasks x no OpenMP threads

MPI task timing breakdown:
Section |  min time  |  avg time  |  max time  |%varavg| %total
---------------------------------------------------------------
Pair    | 72.205     | 126.43     | 191.46     | 432.2 | 51.86
Neigh   | 30.901     | 35.969     | 39.546     |  59.5 | 14.75
Comm    | 6.503      | 75.108     | 134.16     | 598.0 | 30.81
Output  | 0.13145    | 0.13349    | 0.14142    |   1.0 |  0.05
Modify  | 5.0112     | 5.0491     | 5.0948     |   1.3 |  2.07
Other   |            | 1.091      |            |       |  0.45

Nlocal:        1417.50 ave        1435 max        1384 min
Histogram: 1 0 0 0 0 1 1 0 0 3
Nghost:        1965.33 ave        2032 max        1906 min
Histogram: 1 0 2 1 0 0 0 0 0 2
Neighs:        0.00000 ave           0 max           0 min
Histogram: 6 0 0 0 0 0 0 0 0 0
FullNghs:      39423.3 ave       40225 max       38939 min
Histogram: 2 1 1 0 0 0 0 0 1 1

Total # of neighbors = 236540
Ave neighs/atom = 27.811875
Neighbor list builds = 20753
Dangerous builds = 0

# Create data file for import to other simulations
#
write_data data.${NAME}
write_data data.coexist_290K_-500atm_ML
System init for write_data ...

Total wall time: 0:04:03
