
# Import phase coexistance setup
#
read_data           data.coexist_${TEMP}K_${PRES}atm_ML
read_data           data.coexist_290K_${PRES}atm_ML
read_data           data.coexist_290K_-500atm_ML
Reading data file ...
  orthogonal box = (-0.18750216 -0.15773152 -0.15773152) to (104.69409 51.137764 51.137764)
  3 by 1 by 2 MPI processor grid
  reading atoms ...
  8505 atoms
  reading velocities ...
  8505 velocities
  read_data CPU = 0.050 seconds

# Define potential
#
pair_style 	    sw
pair_coeff	    * * /data/emrosky-sim/Freezing_Simulations/Melting/MLmW_fancy/ML_mW.sw mW
Reading sw potential file /data/emrosky-sim/Freezing_Simulations/Melting/MLmW_fancy/ML_mW.sw with DATE: 2019-02-27

# Reset velocity/set timestep
#
velocity	    all create ${TEMP} 120598 rot yes dist gaussian
velocity	    all create 290 120598 rot yes dist gaussian
timestep	    10.0

# Define output
#
compute	            1 all msd
compute             2 all orientorder/atom nnn NULL degrees 2 4 12
thermo              1000
thermo_style        custom step temp press vol etotal ke pe c_1[4]

# Neighbor lists
#
neigh_modify        delay 0 every 1 check yes

# Set fixes
#
fix                 1 all momentum 10 linear 1 1 1 rescale
fix                 2 all nph iso ${PRES} ${PRES} ${PCOUPL}
fix                 2 all nph iso -500 ${PRES} ${PCOUPL}
fix                 2 all nph iso -500 -500 ${PCOUPL}
fix                 2 all nph iso -500 -500 10000.0
fix                 3 all temp/csvr ${TEMP} ${TEMP} ${TCOUPL} 837492
fix                 3 all temp/csvr 290 ${TEMP} ${TCOUPL} 837492
fix                 3 all temp/csvr 290 290 ${TCOUPL} 837492
fix                 3 all temp/csvr 290 290 5000.0 837492

# Run very short equilibration
#
dump		    1 all atom 50 eq.${NAME}.dump
dump		    1 all atom 50 eq.melt_290K_-500atm_ML.dump
run	            500
Neighbor list info ...
  update every 1 steps, delay 0 steps, check yes
  max neighbors/atom: 2000, page size: 100000
  master list distance cutoff = 6.0032907
  ghost atom cutoff = 6.0032907
  binsize = 3.0016454, bins = 35 18 18
  2 neighbor lists, perpetual/occasional/extra = 1 1 0
  (1) pair sw, perpetual
      attributes: full, newton on
      pair build: full/bin/atomonly
      stencil: full/bin/3d
      bin: standard
  (2) compute orientorder/atom, occasional, copy from (1)
      attributes: full, newton on
      pair build: copy
      stencil: none
      bin: none
Per MPI rank memory allocation (min/avg/max) = 4.589 | 4.593 | 4.597 Mbytes
Step Temp Press Volume TotEng KinEng PotEng c_1[4] 
       0          290   -466.83145    275967.37   -76367.443    7351.1545   -83718.597            0 
     500    337.67526   -532.07632    271227.37   -77980.661    8559.6656   -86540.327    15.151272 
Loop time of 1.23972 on 6 procs for 500 steps with 8505 atoms

Performance: 348.466 ns/day, 0.069 hours/ns, 403.317 timesteps/s
99.6% CPU use with 6 MPI tasks x no OpenMP threads

MPI task timing breakdown:
Section |  min time  |  avg time  |  max time  |%varavg| %total
---------------------------------------------------------------
Pair    | 0.44979    | 0.69203    | 0.98412    |  24.3 | 55.82
Neigh   | 0.14253    | 0.15437    | 0.1675     |   2.4 | 12.45
Comm    | 0.046789   | 0.34952    | 0.60344    |  35.4 | 28.19
Output  | 0.0098922  | 0.010467   | 0.011013   |   0.4 |  0.84
Modify  | 0.025003   | 0.027037   | 0.028548   |   0.8 |  2.18
Other   |            | 0.006303   |            |       |  0.51

Nlocal:        1417.50 ave        1442 max        1393 min
Histogram: 1 1 0 0 2 0 0 0 0 2
Nghost:        1978.17 ave        2049 max        1927 min
Histogram: 1 1 2 0 0 0 0 0 0 2
Neighs:        0.00000 ave           0 max           0 min
Histogram: 6 0 0 0 0 0 0 0 0 0
FullNghs:      39742.7 ave       40548 max       38958 min
Histogram: 1 0 0 0 3 0 1 0 0 1

Total # of neighbors = 238456
Ave neighs/atom = 28.037155
Neighbor list builds = 83
Dangerous builds = 0

reset_timestep      0
undump              1
unfix               2
unfix               3


################################################
#######         Run Simulation         #########
################################################

log                 log.run_${NAME}
log                 log.run_melt_290K_-500atm_ML
