
# Import phase coexistance setup
#
read_data           ../data.ice_water_1atm
Reading data file ...
  orthogonal box = (-0.037551654 -0.031298218 -0.031298218) to (113.76774 57.301808 57.301808)
  3 by 1 by 2 MPI processor grid
  reading atoms ...
  11553 atoms
  reading velocities ...
  11553 velocities
  read_data CPU = 0.029 seconds

# Define potential
#
pair_style 	    sw
pair_coeff	    * * ../ML.sw mW
Reading sw potential file ../ML.sw with DATE: 2019-02-27

# Reset velocity/set timestep
#
velocity	    all create ${TEMP} 120598 rot yes dist gaussian
velocity	    all create 293 120598 rot yes dist gaussian
timestep	    10.0

# Define output
#
compute	            1 all msd
compute             2 all orientorder/atom nnn NULL degrees 2 4 12
thermo              100
thermo_style        custom step temp press vol etotal ke pe c_1[4]

# Neighbor lists
#
neigh_modify        delay 0 every 1 check yes

# Set fixes
#
fix                 1 all momentum 10 linear 1 1 1 rescale
fix                 2 all nph iso ${PRES} ${PRES} ${PCOUPL}
fix                 2 all nph iso 0 ${PRES} ${PCOUPL}
fix                 2 all nph iso 0 0 ${PCOUPL}
fix                 2 all nph iso 0 0 10000.0
fix                 3 all temp/csvr ${TEMP} ${TEMP} ${TCOUPL} 837492
fix                 3 all temp/csvr 293 ${TEMP} ${TCOUPL} 837492
fix                 3 all temp/csvr 293 293 ${TCOUPL} 837492
fix                 3 all temp/csvr 293 293 5000.0 837492

# Run longer equilibration 0.5 ns
#
dump 1 all atom 1000 eq.${NAME}.dump
dump 1 all atom 1000 eq.Tmelt_293K_AUTO.dump
run 50000
Neighbor list info ...
  update every 1 steps, delay 0 steps, check yes
  max neighbors/atom: 2000, page size: 100000
  master list distance cutoff = 6.0032907
  ghost atom cutoff = 6.0032907
  binsize = 3.0016454, bins = 38 20 20
  2 neighbor lists, perpetual/occasional/extra = 1 1 0
  (1) pair sw, perpetual
      attributes: full, newton on
      pair build: full/bin/atomonly
      stencil: full/bin/3d
      bin: standard
  (2) compute orientorder/atom, occasional, copy from (1)
      attributes: full, newton on
      pair build: copy
      stencil: none
      bin: none
Per MPI rank memory allocation (min/avg/max) = 4.643 | 4.644 | 4.646 Mbytes
Step Temp Press Volume TotEng KinEng PotEng c_1[4] 
       0          293   -78.503674    374087.66   -103601.18    10089.255   -113690.44            0 
     100    352.70714   -373.34593    371875.62   -104052.43     12145.23   -116197.66    3.3181455 
     200    348.73733    5.6484283    367757.45   -104545.47    12008.532      -116554    6.9489581 
     300    347.96829    200.21752    365793.99   -104826.36    11982.051   -116808.41    10.309203 
     400    342.62587   -117.47733    365001.96   -105315.77    11798.088   -117113.85      13.4194 
     500    333.40945    224.04746    364699.68   -105651.44    11480.727   -117132.17    16.250507 
     600    328.70632    27.276617    365127.19   -105995.16    11318.778   -117313.94    18.797848 
     700    326.38039   -79.802619    364766.03   -106261.65    11238.686   -117500.34    21.604837 
     800    324.13579   0.31126797    363310.48   -106523.05    11161.395   -117684.44    24.340266 
     900    324.67527    70.874532    362586.65    -106714.1    11179.971   -117894.07    26.957286 
    1000    319.35767    111.45886    362674.02   -106919.18    10996.863   -117916.05    29.400467 
    1100    317.56844    77.093129       362831   -107176.11    10935.252   -118111.37    31.654383 
    1200    313.43837   -61.345118    362828.06   -107391.27    10793.036   -118184.31    33.786147 
    1300    313.20257   -31.849635    362187.33   -107597.98    10784.917   -118382.89    35.958222 
    1400    311.71939   -53.454633    361453.58   -107742.38    10733.844   -118476.23    38.157834 
    1500    306.76319    254.38052    361088.54      -107867    10563.181   -118430.18    39.961297 
    1600    306.53249    55.400845    361239.43   -107993.54    10555.237   -118548.78    41.903964 
    1700     306.2724   -151.65122    361627.95   -108096.99    10546.281   -118643.27    43.804757 
    1800    305.87079     59.90039    361617.85    -108175.9    10532.452   -118708.35    45.859223 
    1900    306.99251     -29.3536    361386.76   -108210.38    10571.078   -118781.45     47.76922 
    2000    303.71379    164.47562    361067.88   -108233.99    10458.177   -118692.16     49.46739 
    2100    306.48094   -55.173045    361245.89   -108392.01    10553.462   -118945.47    51.379422 
    2200    303.70282    1.7515722    361673.43   -108423.95      10457.8   -118881.75    52.914747 
    2300    301.86999    33.275519    361967.11   -108432.34    10394.687   -118827.03    54.682231 
    2400    301.87897    68.236685     361725.5   -108447.16    10394.997   -118842.16    56.624587 
    2500    305.03145   -111.36013    361500.79   -108442.77     10503.55   -118946.32    57.825078 
    2600    299.30134    176.90478    360908.21   -108489.96    10306.237    -118796.2     59.44735 
    2700     299.4365   -45.973013    361307.75   -108470.12    10310.892   -118781.01    60.895824 
    2800    298.33519   -343.24518    361685.59   -108560.57    10272.969   -118833.54    62.699525 
    2900    298.84391   -12.934658    361047.85   -108689.06    10290.486   -118979.54    64.522019 
    3000    302.70512    57.761535    360482.42   -108724.41    10423.444   -119147.86    66.252597 
    3100     295.5793    216.05246    360503.44   -108799.11    10178.072   -118977.18    67.877062 
    3200    298.25569   -48.379492    360575.65   -108838.31    10270.231   -119108.54    69.886289 
    3300    296.29385   -67.559684    360931.14   -108813.52    10202.677    -119016.2    71.391958 
    3400    297.30429   -94.200509       360982   -108818.37     10237.47   -119055.84    72.692923 
    3500    296.88462   -22.116286     360168.1   -108885.75    10223.019   -119108.77    73.919872 
    3600    296.58088    178.60036    359337.15   -108893.34     10212.56    -119105.9    75.583674 
    3700    295.06228    75.478774    359437.35   -108942.39    10160.268   -119102.66     77.08136 
    3800    291.54321   -54.528378    359585.48   -109016.02    10039.092   -119055.11    78.417109 
    3900    292.78695    90.377632    359410.32   -109049.11    10081.919   -119131.03    79.938079 
    4000    295.60985    28.465204    359693.91   -109037.52    10179.123   -119216.64    81.225956 
    4100    292.78241   -126.93274    360171.63    -109041.7    10081.763   -119123.46    82.551418 
    4200    293.24244   -12.395315    359865.54   -109017.83    10097.603   -119115.43    84.149028 
    4300    292.06319   -50.575938    359099.28   -109028.02    10056.997   -119085.01    85.807167 
    4400    294.95727    131.05457    358660.43   -109058.28    10156.652   -119214.94    87.184423 
    4500    295.70465    121.23551    359894.01   -108945.18    10182.388   -119127.57    88.573875 
    4600    295.30575   -237.18868    361594.87   -108902.41    10168.652   -119071.06    89.819432 
    4700    296.07911   -52.390753    361203.51   -108821.61    10195.282   -119016.89    90.995157 
    4800    296.22978    63.866501    360452.99      -108869     10200.47   -119069.47    92.397361 
    4900    298.58287   -104.70102    360596.19   -108890.07    10281.498   -119171.57    93.932702 
    5000    295.96738   -108.92829    360454.75    -108940.5    10191.435   -119131.94    95.749316 
    5100     296.8641   -18.317364    360015.09   -108977.58    10222.313    -119199.9    97.283738 
    5200    298.14111   -62.585308    360466.81   -109030.48    10266.286   -119296.76    98.435904 
    5300    296.88839    88.234956    359953.53   -108999.06    10223.149   -119222.21    100.06369 
    5400    294.96748    59.767398    359312.85   -109043.16    10157.004   -119200.16    101.58579 
    5500     296.8829   -42.215288    359598.69   -109033.97     10222.96   -119256.93     102.4646 
    5600    292.18547   -4.7121667    359862.43   -109162.09    10061.207    -119223.3    103.56385 
    5700    294.75339    -26.29088    360141.18   -109242.68    10149.632   -119392.31    104.86076 
    5800    293.04838    98.988774    359909.86   -109219.03    10090.921   -119309.95    106.44376 
    5900    294.99308    12.134714    359641.01   -109182.52    10157.885    -119340.4    107.87301 
    6000    292.11518    149.49954    359118.04   -109187.81    10058.787    -119246.6    109.18732 
    6100    291.97107    45.312078    359365.75   -109128.45    10053.824   -119182.28    110.80104 
    6200    290.94093    31.439777       360031   -109128.71    10018.352   -119147.06    112.01433 
    6300    294.53891    54.486369    360345.42    -109069.2    10142.246   -119211.45    113.37543 
    6400     293.4332    122.84339    360489.71   -109109.81    10104.172   -119213.98    115.14273 
    6500     297.5368   -79.606765    360591.62   -109053.44    10245.477   -119298.92    116.38547 
    6600    293.47357   -37.572544    359906.06   -109052.75    10105.562   -119158.32    117.51742 
    6700    294.70419    217.39993    359239.79   -109120.31    10147.938   -119268.24     118.8558 
    6800    289.92123   -115.42865    359563.84   -109110.84    9983.2397   -119094.08    119.95761 
    6900    292.34687   -66.150774    360270.61   -109068.97    10066.765   -119135.74    121.58797 
    7000    293.99334   -93.850187    360169.22   -109025.71     10123.46   -119149.17    123.13735 
    7100    291.20985    95.453744    359706.22   -109002.17    10027.612   -119029.79    124.40362 
    7200    293.11433   -21.251412    359858.84   -109111.53    10093.192   -119204.72    126.30629 
    7300    291.07123   -241.31923    360195.25   -109020.82    10022.839   -119043.66    127.32371 
    7400    293.32324    119.14818    359557.82   -108951.55    10100.386   -119051.94    128.78832 
    7500    297.17182    43.787896    359357.68   -109000.78    10232.909   -119233.69    130.52945 
    7600    294.96862   -20.969838    359690.21   -108969.56    10157.043    -119126.6     132.1048 
    7700    294.36308   -161.76983    359994.02   -108965.51    10136.192    -119101.7    133.36186 
    7800    293.38586   -140.09163    360163.08   -108972.81    10102.542   -119075.35    134.80821 
    7900    294.14978   -3.0497011    360299.09   -108990.22    10128.847   -119119.06    135.55193 
    8000    293.47177   -70.034212    360170.42   -109019.81      10105.5   -119125.32    136.72712 
    8100    293.18752    93.418762    359991.53   -109036.39    10095.712    -119132.1    138.47477 
    8200      295.065    90.682468     359757.2   -109005.93    10160.362    -119166.3    139.99539 
    8300    293.84138    111.58223    359553.45   -108982.09    10118.227   -119100.32    141.30209 
    8400    295.22418    56.708445    359472.71      -109040    10165.843   -119205.84    142.84385 
    8500    292.02174   -56.428285    359417.67   -109015.27    10055.569   -119070.84    143.75561 
    8600     293.0573    7.6706531    359401.59   -109042.87    10091.228    -119134.1    145.05422 
    8700    291.32169   -78.684896    359597.18   -109034.97    10031.464   -119066.43    146.53768 
    8800    292.68108   -73.993026    359766.28    -109000.4    10078.273   -119078.68    147.98311 
    8900    292.55118    100.29314    359774.24   -109074.28      10073.8   -119148.08    148.78772 
    9000    292.15724    109.83564    359875.73   -109029.22    10060.235   -119089.46    150.28739 
    9100    291.44301    110.95995       359646   -109094.04    10035.641   -119129.68    151.57483 
    9200    289.22146    72.054147    360037.29   -109063.88    9959.1437   -119023.02     152.7551 
    9300    291.31834   -287.32757    360770.32   -109164.23    10031.348   -119195.58    154.49461 
    9400    292.26339    15.707325    359845.18   -109120.98     10063.89   -119184.87     155.1748 
    9500    293.72808    44.177891    359431.41   -109094.69    10114.326   -119209.02    156.32018 
    9600     290.1588   -206.75993    359971.37   -109049.47    9991.4203   -119040.89     157.3762 
    9700    292.24445   -88.704216    360317.62   -109085.76    10063.238      -119149    158.68962 
    9800    290.28422    67.868671    359699.07    -109087.8     9995.739   -119083.54    159.99332 
    9900    293.37901     253.0801    359009.42   -109090.22    10102.306   -119192.52     161.4679 
   10000    289.80822     132.1775    359430.09   -109053.16    9979.3483   -119032.51    162.87618 
   10100    289.18397    16.303968    360379.45   -109015.09    9957.8528   -118972.95    164.57595 
   10200    291.48014   -81.336969    360844.49   -108982.55     10036.92   -119019.47     166.2139 
   10300    291.04697     100.2078    360452.89   -108961.87    10022.004   -118983.88    167.10265 
   10400    291.59774   -150.84809    359737.28   -109053.77    10040.969   -119094.74    168.35494 
   10500    293.43251    279.77528    359230.08   -109020.61    10104.148   -119124.76    169.60124 
   10600    291.91489   -118.18249    359728.65   -108996.59     10051.89   -119048.48    170.81012 
   10700    294.78063    -187.1281    360528.88   -109012.51     10150.57   -119163.08     172.6518 
   10800    293.60438   -34.805918    360202.22    -109009.3    10110.067   -119119.37    174.26625 
   10900    293.61624    79.860788    359279.15   -108942.79    10110.475   -119053.26    175.22921 
   11000    294.91023   -109.85353    359417.84   -108998.11    10155.033   -119153.14    175.95627 
   11100    293.21138    51.757968    359751.59   -109011.24    10096.534   -119107.77     177.1734 
   11200    294.66972     34.61687    360298.33   -109013.78    10146.751   -119160.53     178.1592 
   11300    294.12178   -204.65466    360805.12   -109034.39    10127.883   -119162.27    179.83713 
   11400    293.14795    8.1360634    360424.58   -109079.36    10094.349   -119173.71    181.35648 
   11500    291.51282   -14.869689    359886.73   -109144.16    10038.045    -119182.2    182.42743 
   11600    290.80488    78.054766    359670.66   -109151.31    10013.668   -119164.98    183.64774 
   11700    291.50316   -140.73588    359497.91    -109094.6    10037.712   -119132.32    185.13326 
   11800    290.60597   -16.560264    359143.41    -109135.8    10006.818   -119142.62    186.42037 
   11900    294.69758    106.32341    359270.69   -109155.95     10147.71   -119303.66    187.89401 
   12000    290.60589   -51.236986    359784.57   -109151.87    10006.815   -119158.68    189.47812 
   12100    290.65183    140.13742    360254.33   -109113.56    10008.397   -119121.96    191.09913 
   12200    293.68003   -309.09956    360714.66   -109095.23    10112.671   -119207.91    192.41392 
   12300    293.63005    164.40555    360107.82   -109058.91    10110.951   -119169.86    193.60797 
   12400    290.65505    129.99387    360066.66   -109146.61    10008.508   -119155.12    195.44584 
   12500     293.5708   -182.03512    360449.74   -109067.77     10108.91   -119176.68    197.07152 
   12600    292.93713   -108.37098    359859.62   -109064.93     10087.09   -119152.02    198.23888 
   12700     292.8642     213.6675    358904.91   -109045.51    10084.579   -119130.09    199.95587 
   12800    292.48819    82.722325    359161.14   -109126.91    10071.631   -119198.54    201.69182 
   12900    291.92315   -122.83907    360225.78   -109101.47    10052.174   -119153.64     202.9495 
   13000    290.00997     -222.148    360496.83   -109081.87    9986.2955   -119068.17    203.92404 
   13100     293.8828    82.940654    359884.36   -109037.73    10119.654   -119157.39    205.13414 
   13200    295.65758     142.3582    359708.68   -109086.27    10180.767   -119267.03    207.00453 
   13300    291.29495    10.512233    360268.46   -109143.83    10030.543   -119174.37    208.39595 
   13400    292.70893   -154.69845    361002.11   -109157.03    10079.232   -119236.27    209.71696 
   13500    290.16818   -23.530558    361051.61   -109143.34    9991.7434   -119135.09    211.24056 
   13600    290.57871   -9.0365157     360322.3   -109249.88     10005.88   -119255.76    212.43936 
   13700    292.04324   -16.809595    359536.68   -109258.35     10056.31   -119314.66    213.26434 
   13800    292.88026    184.87984    359489.49   -109304.85    10085.132   -119389.98    214.56641 
   13900    291.83886   -256.48923    360447.01   -109258.44    10049.272   -119307.71    215.88293 
   14000    292.78634    130.52355    359958.09   -109220.21    10081.898   -119302.11    216.83128 
   14100    293.01459    119.09848    359424.57   -109205.27    10089.757   -119295.03    218.27236 
   14200    291.60111   -15.072378    359895.21   -109196.78    10041.085   -119237.87    219.86665 
   14300    295.63744   -121.33764    360496.94   -109132.58    10180.073   -119312.65    220.23854 
   14400    292.16926   -320.15047    360137.88   -109101.02    10060.649   -119161.67    221.49981 
   14500     292.6319    160.61643    358807.43   -109159.98     10076.58   -119236.56     221.9798 
   14600    290.36805    69.273303    358579.12   -109193.56    9998.6257   -119192.19    223.37074 
   14700    292.12479    132.23246    359618.54   -109179.29    10059.118   -119238.41     224.7658 
   14800    286.94472   -107.44355    360750.96   -109240.43    9880.7457   -119121.17    226.25048 
   14900    290.86267   -87.067451    360516.71    -109247.5    10015.658   -119263.16    226.90913 
   15000    292.21607    33.814201    359991.21   -109352.74    10062.261      -119415    227.97582 
   15100    293.98105   -21.524647    359811.96    -109334.4    10123.037   -119457.44    229.57196 
   15200    292.45387    232.88598    359844.51   -109332.47     10070.45   -119402.92    230.90993 
   15300    294.86976   -84.658167    360395.09   -109319.46    10153.639    -119473.1    232.60797 
   15400    296.54633   -119.68536    360259.22   -109275.39    10211.371   -119486.76    233.89294 
   15500    293.71752   -37.864466    359831.48   -109272.57    10113.963   -119386.53    234.88038 
   15600    294.55155    7.7194003    359727.04   -109293.93    10142.681   -119436.61    236.12262 
   15700    292.15453    52.211976    359465.73   -109263.82    10060.142   -119323.96     237.1009 
   15800    294.06805   -40.894584    359455.42   -109261.39    10126.033   -119387.42    238.44674 
   15900    291.17675   -197.67149    359769.47   -109270.22    10026.473   -119296.69    239.31171 
   16000    293.71709    165.40114    359537.31   -109191.09    10113.948   -119305.04    240.34959 
   16100    294.09192    225.60733    359396.13   -109138.79    10126.854   -119265.64    241.61079 
   16200    295.16653    54.587582    360098.25    -109093.4    10163.858   -119257.26    242.75911 
   16300    291.18927   -181.52335     361053.6   -109082.82    10026.904   -119109.72    243.84997 
   16400    291.54063   -214.13569    361140.33   -109069.38    10039.003   -119108.38     245.0648 
   16500    290.03018   -134.94063    360285.97   -109077.61    9986.9912    -119064.6    245.99006 
   16600    292.16581    102.66372    359478.38   -109002.75     10060.53   -119063.28    246.99503 
   16700    292.05977   -83.427157    359543.89   -109006.96    10056.879   -119063.84    247.67674 
   16800     293.2296    119.22766    359610.09   -109056.93    10097.161   -119154.09    249.02141 
   16900    289.55452   -31.304116    360398.17   -109079.15    9970.6124   -119049.76     250.5019 
   17000    292.54032   -75.871142    361283.97   -109085.44    10073.426   -119158.87    252.21889 
   17100    292.96797   -82.931993    361006.16   -109069.91    10088.152   -119158.06    253.46756 
   17200    294.55321    245.04963    360172.85   -108931.49    10142.739   -119074.23    254.91695 
   17300     294.6315    29.282576    360072.47   -108879.91    10145.435   -119025.34    256.25364 
   17400      294.272    201.53341    360053.08   -108953.63    10133.055   -119086.68    256.95698 
   17500     291.8593    36.968269    360167.96   -108977.25    10049.976   -119027.23    258.47354 
   17600     294.3045   -206.00949    360255.77   -109001.24    10134.175   -119135.42    259.10268 
   17700    294.77952   -233.15101    360091.16   -108916.66    10150.532   -119067.19    259.17267 
   17800    297.16976    211.23127     359204.4   -108889.65    10232.838   -119122.49    260.11272 
   17900    296.07455    243.13855    359688.12   -108956.07    10195.125   -119151.19    261.77352 
   18000    293.29994   -152.93638    360925.17   -109055.83    10099.583   -119155.41    262.68225 
   18100    292.57635   -73.661515    360797.42   -109142.62    10074.667   -119217.28    263.80747 
   18200    291.73417    45.083259     360122.5   -109110.82    10045.667   -119156.48    264.94639 
   18300    291.88594    12.832191     360242.9   -109039.74    10050.893   -119090.63    265.84878 
   18400    295.03653   -110.94131    360170.07   -109025.87    10159.382   -119185.25    266.97418 
   18500    294.79568    18.565559    359778.75   -109036.28    10151.088   -119187.37    268.05337 
   18600    294.43437    160.54959    359679.54   -108968.25    10138.647    -119106.9    268.84196 
   18700    292.24939   -237.43077    360084.92   -109014.17    10063.408   -119077.58    270.28278 
   18800    294.71004    74.195957    359706.56    -108926.8    10148.139   -119074.94    271.79503 
   18900    295.59248   -20.592849    359705.56   -108991.23    10178.525   -119169.76    273.37186 
   19000    295.49978   -343.21394    360315.37   -109010.27    10175.333   -119185.61    274.88379 
   19100    296.54465    10.603749    360347.05   -108998.82    10211.313   -119210.13    276.04443 
   19200    295.03446   -146.34667    360209.21   -109020.73     10159.31   -119180.04    276.94884 
   19300    295.82618    108.51065    359784.49   -109036.48    10186.573   -119223.05    278.21022 
   19400    294.53623   -103.06211    359982.73   -109093.11    10142.154   -119235.26     279.8165 
   19500    295.08009    73.636984    360008.81   -109196.95    10160.882   -119357.83    281.34712 
   19600     292.3629    -6.010854    359586.12   -109122.27    10067.317   -119189.58    283.10602 
   19700    292.23299    6.9464648    359667.68   -109004.76    10062.844   -119067.61    284.23709 
   19800    295.55223   -142.19529    360386.77   -109060.52    10177.139   -119237.66     285.6501 
   19900    294.38446   -4.3069667    360752.24   -108980.46    10136.928   -119117.39    287.45826 
   20000    299.31882   -181.02321    360842.32   -108951.74    10306.839   -119258.58    289.11297 
   20100    295.63031   -38.665319    360537.59   -109033.73    10179.828   -119213.56     290.7312 
   20200    296.34184    109.48563    360647.79    -109071.5    10204.329   -119275.83    291.58251 
   20300     292.1806   -136.78899    360566.56   -109071.67     10061.04   -119132.71    292.75604 
   20400    295.86142   -94.780377    360237.68   -109011.24    10187.786   -119199.02    294.02979 
   20500    294.22963     153.5609    359467.65   -108952.73    10131.597   -119084.33     295.4464 
   20600    297.44815    232.87397    359490.66   -108924.97    10242.424   -119167.39    295.60645 
   20700     293.0507   -143.06309    360070.65   -108954.57    10091.001   -119045.57    296.60031 
   20800     296.8465    129.14361    359618.23   -108925.11    10221.707   -119146.81    298.49625 
   20900      296.879    11.401592    359572.09   -108826.19    10222.826   -119049.02    299.80682 
   21000    292.77688   -42.030196    359883.32   -108922.03    10081.572    -119003.6    300.51606 
   21100    297.06217    90.184893    359065.97    -108855.3    10229.133   -119084.44    302.16995 
   21200    295.14766    255.97095    358805.23   -108927.28    10163.208   -119090.49    303.88659 
   21300    294.61605   -120.75573    359845.21   -108956.49    10144.903   -119101.39    305.53372 
   21400    293.95384   -251.17837    360405.81   -109031.21      10122.1   -119153.31    307.16336 
   21500    297.26261    8.6058609    360160.65   -108997.39    10236.035   -119233.42    309.19933 
   21600    294.50742    118.32117    359766.83   -109058.83    10141.162   -119199.99    310.75662 
   21700    292.99606    28.972883    360234.59    -109041.9    10089.119   -119131.02    312.30276 
   21800    292.65812    58.856771    360971.68   -109059.08    10077.483   -119136.56    313.31914 
   21900    292.21157   -206.76646    360758.16   -109038.71    10062.106   -119100.82    314.04467 
   22000    293.83723    242.44309    359189.69   -108998.37    10118.085   -119116.45    314.39268 
   22100    293.48323    200.31427    358951.56   -108958.37    10105.895   -119064.26    315.65504 
   22200    291.14077   -58.831677    359877.24   -108913.33    10025.234   -118938.56    317.75343 
   22300      295.691   -122.51918    359814.12   -108961.05    10181.918   -119142.97     318.7271 
   22400    293.81429    331.85983    358934.52   -108994.39    10117.295   -119111.69    319.07486 
   22500    294.52224    37.073575    359350.64   -108880.78    10141.672   -119022.45    320.46047 
   22600     294.6245   -118.56053    360248.02   -108951.05    10145.194   -119096.25    321.76443 
   22700    295.55185   -55.229209    360010.12   -108932.34    10177.126   -119109.47     322.5669 
   22800    292.61036     163.3079    359198.59   -108920.92    10075.838   -118996.76    323.65054 
   22900    296.51255    5.0863538    359469.46   -108850.82    10210.207   -119061.02    324.15983 
   23000    293.15168    -294.8254    359957.09   -108934.16    10094.478   -119028.64    325.47742 
   23100    290.63104    146.91289    359557.12   -108964.81    10007.681   -118972.49      326.674 
   23200    292.96227     87.71074    359895.97   -108918.52    10087.956   -119006.47    327.67669 
   23300    295.95723   -178.77706    360254.58   -108928.98    10191.085   -119120.06    328.20261 
   23400    297.23817   -188.91876    359874.04   -108926.92    10235.194   -119162.11    329.29736 
   23500    295.98611    324.20715    358785.17   -108988.84     10192.08   -119180.92    329.33034 
   23600    291.86746   -27.109085    359312.74   -108985.62    10050.257   -119035.88     329.9618 
   23700     290.3015   -142.92901    359699.03   -109046.56    9996.3342   -119042.89     330.3352 
   23800    296.12748    33.648435    359125.79   -109012.27    10196.948   -119209.22    330.86228 
   23900    292.38825    11.710332    359520.58   -108972.38     10068.19   -119040.57    332.43818 
   24000    295.16346   -164.77328    359782.99   -108993.96    10163.752   -119157.71    333.66899 
   24100    293.61829   -128.23558    359058.47   -108978.98    10110.546   -119089.52    335.02576 
   24200    292.50242   -67.835011    358596.19   -108955.62    10072.121   -119027.75    336.39587 
   24300    293.65656     44.46686    359064.85   -108889.02    10111.863   -119000.88    338.10908 
   24400     291.4615   -27.646387    359462.92      -108954    10036.278   -118990.27    339.49927 
   24500    294.67144     -19.0538     359535.2   -108962.01     10146.81   -119108.82    340.62408 
   24600    290.73794    -184.6359    359847.19   -109020.82    10011.363   -119032.18    341.52347 
   24700    291.33954   -19.043839    359730.01   -109015.48    10032.078   -119047.56    342.86672 
   24800    292.44603   -47.100512    359467.94   -109016.84     10070.18   -119087.02    344.11071 
   24900    292.69842   -79.497684    359406.78   -109051.98     10078.87   -119130.85    344.78512 
   25000    290.19686    18.769548    359548.85   -109008.39    9992.7309   -119001.12    346.63069 
   25100    295.09753    149.75797    359739.05   -109014.29    10161.482   -119175.77     349.0309 
   25200    293.43271   -169.20162    360397.32   -108935.41    10104.155   -119039.56    350.05389 
   25300    294.29605    52.224127    360321.58   -108877.41    10133.884   -119011.29    351.63681 
   25400    291.41949   -79.737563    359894.94   -108924.76    10034.831   -118959.59    352.83194 
   25500    292.94188   -55.089153    358850.51   -108982.18    10087.254   -119069.43    353.61562 
   25600    293.79271    225.26454    357849.93   -108992.31    10116.551   -119108.86    354.67543 
   25700    293.26175    62.259468    358306.93   -108927.85    10098.268   -119026.12    356.15272 
   25800    293.69947   -173.01264    359175.82   -108941.84    10113.341   -119055.18    357.25585 
   25900     294.5201    -40.28908    358954.83   -108966.42    10141.599   -119108.02    357.72348 
   26000    292.96935    167.20778    359008.79   -109029.22      10088.2   -119117.41    358.88128 
   26100    293.09585   -14.436893    359978.11   -109037.95    10092.556   -119130.51    360.10008 
   26200    295.01424   -142.59635    360307.41   -108955.14    10158.614   -119113.75    360.60342 
   26300    294.92535    41.017477    359968.78    -108932.3    10155.553   -119087.85    361.27099 
   26400    293.06616    11.297932    359608.42   -108898.29    10091.533   -118989.83    362.44916 
   26500    295.57834   -47.320999    359483.05   -108906.72    10178.039   -119084.76    364.18498 
   26600    295.14284   -58.425898    359052.14   -108943.92    10163.042   -119106.96    364.62758 
   26700    292.82806    198.80441    358791.51   -109029.88    10083.334   -119113.21    365.51695 
   26800    292.38317   -2.1687965    359672.45   -109061.94    10068.015   -119129.96    367.03309 
   26900    287.90214    -48.38021     359987.8   -109146.44    9913.7139   -119060.15    368.32916 
   27000    292.76289    60.468176    360165.19   -109154.23     10081.09   -119235.32    369.86411 
   27100    291.41907   -255.46461     360442.2   -109192.75    10034.817   -119227.57     371.5747 
   27200     293.7696    140.83263    359758.19   -109085.26    10115.756   -119201.02    372.66821 
   27300    291.87939    110.20407     359428.8   -109099.46    10050.667   -119150.13    373.61241 
   27400    292.89602    40.193294    359843.36   -109056.57    10085.675   -119142.24    374.97489 
   27500    293.22997   -96.613041    360297.52   -108977.26    10097.174   -119074.43    376.26336 
   27600    295.28987    3.5991752    359691.46   -108914.01    10168.105   -119082.12    377.04132 
   27700    297.59974    79.932752    359519.31   -108969.65    10247.644   -119217.29    379.55688 
   27800    294.35208   -60.947971    359532.77   -108982.39    10135.813   -119118.21    380.23558 
   27900    297.64105    172.42518    358826.35   -108868.87    10249.066   -119117.93    381.20214 
   28000    293.56432    141.19747    359037.18   -108892.16    10108.687   -119000.85    383.09102 
   28100    292.81953   -145.43831    360281.85    -108865.5    10083.041   -118948.54    385.66848 
   28200    295.93704   -116.40914     360735.2   -108920.66     10190.39   -119111.05    387.35435 
   28300    295.76836     155.6513     360183.2   -108873.39    10184.582   -119057.97    388.43784 
   28400    296.25151    32.303917    360172.09   -108908.07    10201.219   -119109.28    389.74403 
   28500     293.5759    9.0937038    360549.52   -108841.13    10109.086   -118950.21     391.1168 
   28600    294.38356    -138.0192    360248.34   -108738.36    10136.897   -118875.26    392.99501 
   28700     299.1845    185.84643    359578.15   -108690.97    10302.214   -118993.18     394.1977 
   28800    295.28358   -23.590031    359641.69   -108831.81    10167.889   -118999.69    395.11358 
   28900    295.28292   -16.497154    360135.14   -108849.43    10167.866   -119017.29    395.74875 
   29000    291.01267   -102.19938    360227.28   -108909.34    10020.823   -118930.17    397.45366 
   29100    295.35403   -42.463296    359732.34   -108892.54    10170.314   -119062.86    398.10338 
   29200    295.33849    51.827141    359352.91   -108886.34    10169.779   -119056.12    399.39636 
   29300     294.0172    -47.92266    359533.27   -108899.94    10124.282   -119024.22    400.57283 
   29400    287.19806   -53.653396    359360.37   -108957.26    9889.4692   -118846.73     401.8946 
   29500    292.59224    51.714151    359332.71   -108956.19    10075.214   -119031.41    403.34475 
   29600    290.16081   -141.65834    359773.24   -108870.36    9991.4896   -118861.85    404.92431 
   29700    290.61588    128.04714    359671.86   -108877.42     10007.16   -118884.58    405.46718 
   29800    293.78603   -5.9787633     359542.6      -108838    10116.322   -118954.32    406.20893 
   29900    292.38586    99.692902    359834.17   -108773.51    10068.108   -118841.62    407.58511 
   30000    294.52609   -70.436486    360718.68   -108816.53    10141.805   -118958.34    409.85741 
   30100    296.28462    -66.53155    360567.15   -108775.92    10202.359   -118978.28    411.45915 
   30200    298.06607    27.750384    359783.59   -108779.38    10263.702   -119043.08    412.60501 
   30300    296.21463   -137.64187    359505.91   -108762.69    10199.949   -118962.64    413.18692 
   30400    292.69976   -54.777062    359387.56    -108891.7    10078.917   -118970.61    415.07879 
   30500    295.18596   -9.0755509    359479.46   -108871.71    10164.527   -119036.24    416.56366 
   30600    291.96092   -185.22966    360120.29   -108893.28    10053.475   -118946.75    419.06198 
   30700    292.68242   -113.12081     360254.7   -108924.69     10078.32   -119003.01    420.38067 
   30800    294.21227   -49.456811    359586.74   -109013.23    10130.999   -119144.23    421.65949 
   30900    294.18803    137.51126    358686.77   -109041.68    10130.164   -119171.84    423.42351 
   31000    293.00819    139.73452    359026.07   -109046.94    10089.537   -119136.48    424.77209 
   31100    293.00393   -205.57376    360068.92   -109014.76     10089.39   -119104.15    427.05773 
   31200    291.65209    19.264297    359871.25   -108950.52    10042.841   -118993.36    428.12613 
   31300    292.80862   -111.80126    359217.56   -108949.71    10082.665   -119032.38    428.47413 
   31400    290.40503    62.995826    358967.42   -109009.09    9999.8991   -119008.99    429.79712 
   31500    294.10307   -44.394551    359491.37   -108984.81    10127.238   -119112.05     430.9416 
   31600    293.40583    37.336741    359591.01   -109004.03     10103.23   -119107.26    432.51301 
   31700    294.69562    134.32403    359408.11   -108943.07    10147.643   -119090.72    433.33958 
   31800    289.26727   -149.50707    359805.63   -108954.95    9960.7212   -118915.67    434.32686 
   31900    294.92591   -89.302944     359456.6    -109000.7    10155.572   -119156.27    436.05609 
   32000    294.70991    225.17691    359033.91   -108997.23    10148.135   -119145.37    436.59817 
   32100    290.83952   -212.15219    359986.11    -109010.3    10014.861   -119025.17    438.42632 
   32200     293.4826   -91.365545    360230.42   -108977.32    10105.873   -119083.19    439.47431 
   32300    292.10831    131.31446    359193.99   -108989.32     10058.55   -119047.87    440.06252 
   32400    292.01834    279.44822    358756.84   -108986.27    10055.452   -119041.72    440.65069 
   32500     291.6016   -32.515199    359903.85   -108999.73    10041.102   -119040.83    442.25389 
   32600    291.61153   -23.184237    360416.54   -108950.24    10041.444   -118991.68    444.05062 
   32700    291.97265     22.74281    360016.96   -108973.28    10053.879   -119027.16    445.54158 
   32800     291.2126    95.724129    359620.38   -108968.61    10027.707   -118996.32    446.51143 
   32900    294.12913    7.6963387    359572.06   -108983.86    10128.136      -119112    447.65312 
   33000    295.46104      171.815    359999.13   -108955.76    10173.999   -119129.76     448.7144 
   33100    291.61791    -29.19182    360259.22   -108985.58    10041.664   -119027.25    450.13387 
   33200    293.28581    85.171069    359805.88   -109027.23    10099.097   -119126.32    451.37201 
   33300    289.59998    11.710001    359445.32   -109003.35    9972.1777   -118975.53    452.29106 
   33400    291.44688    26.766119    359289.88    -109010.5    10035.774   -119046.28    453.11498 
   33500    292.22788   -77.241311    359308.74   -109007.64    10062.668   -119070.31     454.2287 
   33600    292.97512    49.511197    359471.21   -108994.38    10088.398   -119082.78    455.12216 
   33700    289.97126   -420.08284    360324.01   -108943.59    9984.9626   -118928.56    457.04363 
   33800    288.99103    -84.02235    360013.68   -108911.38    9951.2088   -118862.58    457.20572 
   33900    292.98546   -24.224071    358890.31    -108972.9    10088.755   -119061.65    458.91945 
   34000    290.86833    365.99356     358095.5   -108927.73    10015.852   -118943.58     459.6406 
   34100     292.7384    -161.8784    359088.18   -108971.43    10080.247   -119051.68    461.51848 
   34200    290.85094   -141.57454    359478.48   -108993.96    10015.254   -119009.22    462.83539 
   34300    293.32012   -61.052129    359333.85   -108920.67    10100.278   -119020.95    463.86688 
   34400    288.31838    50.255839     359529.4   -109004.39    9928.0466   -118932.43    465.41444 
   34500    289.41976    40.733791    360077.35   -108997.27    9965.9718   -118963.24    466.43715 
   34600     292.3402   -190.82786    360612.35    -109084.8    10066.535   -119151.33    467.91867 
   34700    293.03835   -58.327048    359924.08   -109020.31    10090.576   -119110.88    468.80233 
   34800    294.13655    117.03679    358700.35   -109017.35    10128.391   -119145.74    469.22953 
   34900    291.04917   -32.997253    358846.43   -109070.43     10022.08   -119092.51     470.5838 
   35000    292.65013    -80.84782    359479.49   -109024.39    10077.207    -119101.6    472.06969 
   35100    292.56474    55.608416    359399.41   -109043.69    10074.267   -119117.96    474.23234 
   35200    293.59391   -85.729498    359629.07   -109049.08    10109.706   -119158.78    475.60079 
   35300     294.3377   -232.45554    360153.31   -108969.24    10135.318   -119104.56    476.82004 
   35400    292.47925    229.35783    359881.64   -109002.85    10071.323   -119074.17    477.29994 
   35500    294.69867    144.45806    359720.47   -108949.33    10147.748   -119097.08    478.65041 
   35600    295.04775    -135.5603    359957.35   -108905.94    10159.768   -119065.71    479.30916 
   35700     294.3879   -174.36638    360297.21    -108948.7    10137.046   -119085.74    480.24907 
   35800    292.28971     135.3033    360053.36   -108992.44    10064.797   -119057.24    481.03681 
   35900    293.83288     61.62019    359798.17   -108968.45    10117.935   -119086.39    481.85964 
   36000    297.47586     82.82146    359783.35   -109023.78    10243.378   -119267.16    483.37813 
   36100    293.77764    166.40354    359309.43   -109032.21    10116.032   -119148.24    484.20538 
   36200    291.73204    -138.9315    359394.32   -109030.63    10045.594   -119076.22    485.42756 
   36300    292.12177   -134.38801     359980.2   -109082.05    10059.014   -119141.06    486.60805 
   36400    291.09542   -50.581227    360284.29   -109052.64    10023.672   -119076.31     487.2706 
   36500    289.76995    45.143174     360225.8   -109018.15    9978.0307   -118996.18    487.45402 
   36600    292.21882   -75.649937    360128.69   -108969.41    10062.356   -119031.77    488.63052 
   36700    292.50969   -42.048719    360139.13   -108990.37    10072.372   -119062.74    489.36763 
   36800     292.9568   -2.6687519    359928.75   -108977.78    10087.768   -119065.55    491.02242 
   36900    292.19351   -33.015475    359904.91   -108993.52    10061.484      -119055    492.45009 
   37000    292.97325    -48.99691       359721   -109058.06    10088.334   -119146.39    493.42958 
   37100    293.81083    248.55879    359078.69   -109012.11    10117.176   -119129.28    495.08642 
   37200    294.32876    101.97181       359784   -109042.16     10135.01   -119177.17    497.55143 
   37300    294.63204   -276.45917    360887.64   -109049.59    10145.453   -119195.04    499.00159 
   37400    291.39179   -76.916232    360070.73   -109027.04    10033.877   -119060.92    500.20478 
   37500    290.99922    127.51289    359684.92   -109013.94     10020.36    -119034.3    501.09356 
   37600    292.71245   -118.12574    360285.71   -109022.02    10079.353   -119101.37    503.21669 
   37700    292.77066   -121.44256     359978.5    -108999.6    10081.358   -119080.96     503.5921 
   37800    293.45491    275.24931    359362.58   -109052.51     10104.92   -119157.43     505.2171 
   37900    290.56031    130.20157    359308.97   -109111.62    10005.246   -119116.86    506.00319 
   38000    293.30106    -153.2259    359455.55    -109136.1    10099.622   -119235.72    506.91368 
   38100    290.96451    53.825106    359071.57   -109165.35    10019.164   -119184.51    508.11373 
   38200    292.78001   -82.497831    359580.91   -109125.91     10081.68   -119207.59    509.85965 
   38300    292.51167   -106.42853    359829.87    -109218.8     10072.44   -119291.24    511.60271 
   38400    290.26721    143.82382    359422.44    -109210.6    9995.1533   -119205.76    513.06846 
   38500    289.97544    23.170223    359758.33   -109189.16    9985.1063   -119174.27    515.30975 
   38600    289.74874   -23.528153    360613.32   -109230.61       9977.3   -119207.91    516.66922 
   38700     290.2399   -227.86162    360687.27   -109168.98    9994.2128   -119163.19    517.24507 
   38800    290.41081     301.0435    359784.74   -109127.72    10000.098   -119127.81    517.78201 
   38900    295.06066    -102.3989    360008.19   -109119.33    10160.213   -119279.55    517.94504 
   39000    291.38271   -87.916471    359845.78    -109121.2    10033.565   -119154.76    518.22887 
   39100    291.46236     38.10651    359615.34   -109110.34    10036.307   -119146.65    519.58198 
   39200    291.11588    -161.3706    360315.18   -109053.22    10024.377    -119077.6    520.91699 
   39300    293.17358   -91.185749    360373.28   -109236.26    10095.232   -119331.49    522.01103 
   39400    288.34607    185.20071     359348.1   -109246.06    9929.0002   -119175.06    522.35611 
   39500    292.05778    161.70307    359249.51   -109250.03     10056.81   -119306.84    523.85427 
   39600    288.69052   -37.980866    360063.86    -109267.2    9940.8612   -119208.06    525.12071 
   39700    290.49089     55.11043    360010.72    -109309.7    10002.856   -119312.56     526.3972 
   39800    288.11285    82.402839    359519.29   -109350.56    9920.9692   -119271.53    527.07374 
   39900    288.21882   -12.162598    359708.68   -109258.85    9924.6184   -119183.47    527.63241 
   40000    291.94646    178.71231    359636.83    -109133.7    10052.977   -119186.68    530.00792 
   40100    294.38797   -55.101584    360023.96    -109102.6    10137.049   -119239.65    532.04892 
   40200     291.9241   -12.023285    360449.44   -109057.41    10052.207   -119109.62    533.94216 
   40300    293.33883    131.00502    360607.03   -108988.59    10100.922   -119089.51    535.15122 
   40400    291.60003   -29.997753     360525.8   -108983.37    10041.048   -119024.42    536.48447 
   40500    291.44625    65.871903     360110.9    -109033.1    10035.753   -119068.85    537.40234 
   40600    291.02494    64.177159    359953.68   -109049.15    10021.245    -119070.4    538.90702 
   40700    294.86518    65.331134    359823.57   -109054.85    10153.481   -119208.33    541.16317 
   40800    291.15902    35.283188    359881.48   -109071.73    10025.862    -119097.6    543.16262 
   40900    296.14771    -43.10249     360222.3   -109066.72    10197.644   -119264.37    544.59849 
   41000    292.80787   -81.046268    360216.89   -108974.55    10082.639   -119057.19    545.52754 
   41100    297.44503    -132.5275    359449.98   -108972.46    10242.317   -119214.78    546.27377 
   41200    298.12635     231.0035    358723.17    -108947.6    10265.777   -119213.38    546.70969 
   41300    295.95199    8.0999482    359381.69   -108978.03    10190.905   -119168.93    548.11951 
   41400    293.59896     7.766003    360473.58   -108994.39     10109.88   -119104.27     550.7867 
   41500     292.5266   -146.44119    360679.82   -109072.23    10072.954   -119145.18    551.27752 
   41600    294.15413    -89.97496    360594.45   -109102.58    10128.997   -119231.57    551.69309 
   41700    291.93759    43.570329    359976.62   -109113.94    10052.672   -119166.61    552.63056 
   41800    291.18264    294.18973    359388.27   -109085.26    10026.675   -119111.93    554.10314 
   41900    292.03962 -0.050121448    359632.86   -109099.42    10056.185    -119155.6    556.02922 
   42000    293.78473     139.4278    359237.72    -109125.5    10116.277   -119241.78    557.43913 
   42100    294.04546    181.12077    358905.12   -109138.64    10125.255   -119263.89    558.28932 
   42200    293.73892    47.214894    358986.45   -109050.95    10114.699   -119165.65    559.28229 
   42300    292.37011   -195.17589    359641.51    -109081.1    10067.565   -119148.67    561.28153 
   42400    292.52548    16.845447     359700.8      -109040    10072.915   -119112.92    563.31806 
   42500    293.56401    123.76878    359188.27   -109052.86    10108.676   -119161.54    563.27753 
   42600    291.15071    43.907004     358877.1   -109056.44    10025.576   -119082.01    564.16016 
   42700    291.02637   -84.991521    359280.99   -108994.17    10021.294   -119015.46    565.55104 
   42800    293.05667    -240.0226    359684.88   -109082.41    10091.206   -119173.61    567.58214 
   42900    293.60711    334.47695    359356.04   -109103.28     10110.16   -119213.44    568.02028 
   43000    289.30884   -168.94366    360011.74    -109093.6    9962.1526   -119055.75    570.29849 
   43100    289.86113   -132.40756    360638.58   -109116.08    9981.1704   -119097.25    571.31006 
   43200    290.72885    5.0525684    360626.75   -109107.33     10011.05   -119118.38    572.72456 
   43300    293.64953    117.14334    360091.72   -109119.31    10111.621   -119230.93    572.99804 
   43400    290.80013   -7.5274917    359819.68   -109039.48    10013.504   -119052.98    573.40193 
   43500    294.38215    91.560869    359420.44   -109062.78    10136.849   -119199.63     575.6968 
   43600    292.19289   -21.947605    359620.51   -109010.25    10061.463   -119071.71    576.97705 
   43700    291.85479  -0.32853035    360241.05   -109007.81    10049.821   -119057.63    578.08031 
   43800    291.64351   -13.881959    360392.16   -108979.33    10042.545   -119021.87    579.56949 
   43900    295.96328    231.35149    360142.95   -108854.69    10191.294   -119045.98    580.42182 
   44000     294.5025   -50.798621     360529.2   -108882.77    10140.993   -119023.76    582.21142 
   44100    293.15246   -119.80812    360671.52   -108883.94    10094.505   -118978.45    583.33288 
   44200    293.06317    84.222109    360333.29   -108928.46     10091.43   -119019.89    583.46793 
   44300    295.31049    14.016352    359932.36   -108897.05    10168.815   -119065.86    584.81409 
   44400    291.46791   -30.416614    359722.43   -108922.71    10036.498    -118959.2    586.15064 
   44500    292.81547   -97.535902    359810.48   -108907.96    10082.901   -118990.86    587.40144 
   44600    293.19095   -83.499105    359513.37   -108957.25     10095.83   -119053.08    588.39402 
   44700    293.69169    220.98791    359057.44   -108940.21    10113.073   -119053.28    589.10742 
   44800    293.72835   -117.99664    359446.41   -108821.85    10114.335   -118936.18    591.29174 
   44900    290.87217    119.72195    359753.92   -108822.96    10015.985   -118838.94    592.62031 
   45000    293.93682   -193.84077    360403.11   -108818.97    10121.514   -118940.49     594.4601 
   45100     292.5982    -172.1051    360161.21   -108783.95    10075.419   -118859.37    595.43761 
   45200    293.07928    87.159166    358968.46   -108739.81    10091.985   -118831.79    595.02221 
   45300    295.26466    105.69865    358932.49   -108712.55    10167.237   -118879.79    596.76147 
   45400    293.04286   -19.807175    359939.14    -108699.9    10090.731   -118790.63    599.61978 
   45500    291.67353   -173.73517    360686.87   -108770.33    10043.579   -118813.91    601.82375 
   45600    295.14114   -122.39592     360060.5   -108742.33    10162.984   -118905.31    601.90522 
   45700    294.91918    164.06991    359149.46   -108766.77    10155.341   -118922.11    602.65085 
   45800    294.06022   -54.804517    359065.02   -108765.44    10125.763    -118891.2    603.78742 
   45900     288.9592    94.929079    359255.58   -108798.44    9950.1129   -118748.56    605.82656 
   46000     290.8844   -27.486214    359301.26   -108836.61    10016.406   -118853.01    607.88269 
   46100    291.48651    87.400648     359284.3   -108800.87    10037.139   -118838.01    608.81876 
   46200     291.6783   -31.451271    359412.22   -108876.08    10043.743   -118919.82    610.53538 
   46300    292.88973    86.912633     358996.1    -108915.7    10085.458   -119001.15    611.35879 
   46400    292.25344    211.17105    359197.18   -108949.54    10063.548   -119013.09     613.7671 
   46500    292.48424   -110.92723    359660.44   -108945.45    10071.495   -119016.95    613.85455 
   46600    292.97779   -14.416117    359331.48   -109006.12     10088.49   -119094.61    614.49524 
   46700    292.13724    62.915666    359395.21    -108945.8    10059.546   -119005.35    616.25276 
   46800    291.34861    -56.29147    360102.82   -108869.34    10032.391   -118901.73    617.53715 
   46900    291.90506   -6.4155265    359582.72   -108852.68    10051.552   -118904.24    618.89696 
   47000    294.75284    117.07854    358684.43   -108826.85    10149.613   -118976.46     619.4443 
   47100    292.75719   -7.6088877    359151.11   -108886.35    10080.894   -118967.25    620.53596 
   47200    290.26626   -42.472869    359754.97   -108906.26    9995.1207   -118901.38    622.16229 
   47300    293.18333    43.121429    359743.41   -108833.45    10095.568   -118929.01    623.68812 
   47400    293.16083    115.03927    359849.71   -108813.09    10094.793   -118907.88    624.49228 
   47500    294.41815    49.968345    359868.74   -108766.41    10138.088    -118904.5    624.25743 
   47600    293.72049    18.661467    359458.92   -108825.38    10114.065   -118939.45    624.69676 
   47700     295.3407   -25.583089    359366.88    -108847.7    10169.855   -119017.56    626.19906 
   47800    294.41244   -4.4025212    359573.01   -108832.99    10137.892   -118970.88    627.59834 
   47900    291.70024   -19.151682    359580.51   -108770.94    10044.499   -118815.44    629.66964 
   48000    289.85743    55.778964    359339.26   -108786.14    9981.0427   -118767.18    630.61152 
   48100    293.29694   -36.598077    359686.07   -108713.93     10099.48   -118813.41    631.34394 
   48200    294.35501   -17.645358    359560.09    -108674.1    10135.914   -118810.02    632.52804 
   48300    291.79426    286.33291    359025.86   -108763.71    10047.736   -118811.44    632.56598 
   48400    292.82327    38.848097    359334.33   -108841.45    10083.169   -118924.62    633.78591 
   48500    292.67333   -18.252339    359602.77    -108809.8    10078.007    -118887.8    635.58036 
   48600    293.81427    23.497107    359764.79    -108785.9    10117.294    -118903.2    636.86164 
   48700    293.59294    5.9719377    359920.89   -108797.73    10109.673    -118907.4    637.49149 
   48800    292.98157    18.084476    360276.73   -108710.37     10088.62   -118798.99    639.90757 
   48900    296.47257    -181.3901    360667.81    -108742.9    10208.831   -118951.73    641.92344 
   49000    295.62585   -101.62186       360245   -108674.43    10179.674   -118854.11    642.07071 
   49100    294.22399    199.04664    359172.82   -108638.68    10131.402   -118770.08    643.01628 
   49200    297.67575    92.832479    359026.07   -108561.45    10250.261   -118811.71    643.46841 
   49300    296.63959   -94.752942    359484.76   -108503.63    10214.582   -118718.22    644.08483 
   49400    296.01295    135.07488    359521.03   -108571.24    10193.004   -118764.25    646.03117 
   49500    295.30854   -24.254058    359700.46    -108687.6    10168.748   -118856.35    648.59911 
   49600     294.8967   -61.528247    359885.56   -108703.91    10154.567   -118858.48    649.68115 
   49700    293.73997    92.527891    359624.48   -108797.26    10114.735   -118911.99    649.47567 
   49800    292.67214     319.7893    359234.65   -108764.62    10077.965   -118842.58    650.57303 
   49900    292.84188    -189.7306    359923.61   -108749.61     10083.81   -118833.42    652.27883 
   50000    292.82949   -66.545272    360258.65   -108697.55    10083.384   -118780.93    652.88112 
Loop time of 155.973 on 6 procs for 50000 steps with 11553 atoms

Performance: 276.972 ns/day, 0.087 hours/ns, 320.569 timesteps/s
99.5% CPU use with 6 MPI tasks x no OpenMP threads

MPI task timing breakdown:
Section |  min time  |  avg time  |  max time  |%varavg| %total
---------------------------------------------------------------
Pair    | 57.521     | 93.963     | 129.79     | 301.4 | 60.24
Neigh   | 16.05      | 17.613     | 18.757     |  26.6 | 11.29
Comm    | 3.8042     | 40.76      | 78.659     | 474.6 | 26.13
Output  | 0.076353   | 0.077021   | 0.079771   |   0.4 |  0.05
Modify  | 2.9008     | 2.9465     | 2.9801     |   1.7 |  1.89
Other   |            | 0.6135     |            |       |  0.39

Nlocal:        1925.50 ave        1986 max        1863 min
Histogram: 2 0 0 0 0 1 1 0 0 2
Nghost:        2517.33 ave        2545 max        2484 min
Histogram: 2 0 0 0 0 1 0 1 1 1
Neighs:        0.00000 ave           0 max           0 min
Histogram: 6 0 0 0 0 0 0 0 0 0
FullNghs:      54967.3 ave       56885 max       53041 min
Histogram: 2 0 0 0 1 0 1 0 1 1

Total # of neighbors = 329804
Ave neighs/atom = 28.547044
Neighbor list builds = 7186
Dangerous builds = 0

reset_timestep      0
undump              1

################################################
#######         Run Simulation         #########
################################################

log                 log.run_${NAME}
log                 log.run_Tmelt_293K_AUTO
