LAMMPS data file via write_data, version 29 Oct 2020, timestep = 200000

800 atoms
1 atom types

-0.029291994673021904 25.482851994671933 xlo xhi
-0.036614993340453594 31.853564993340576 ylo yhi
-0.036614993340453594 31.853564993340576 zlo zhi

Masses

1 18.015

Atoms # atomic

5 1 1.545251383791831 1.682155892649952 1.5236751223005867 0 0 0
13 1 8.002645552755896 1.662203292418707 1.2324340973825125 0 0 0
36 1 2.982184031995845 9.532436870882284 0.21313931953339427 0 0 0
21 1 14.625220328278957 1.5263034730410263 1.527590102859926 0 0 0
18 1 13.114478520603244 3.2086749908954153 3.039483954043937 0 0 0
69 1 6.144613415988698 13.039222457490368 0.2794807844009675 0 0 0
563 1 9.573807142220273 15.871801588065397 12.77967701292915 0 0 0
29 1 20.49921700993822 1.7029246409332583 1.6694536221517196 0 0 0
26 1 19.03923250691787 3.5473149207194807 3.155503720185773 0 0 0
8 1 4.581288389639595 4.480938417237704 1.5713156207888068 0 0 0
601 1 0.04128093586749321 15.600478162474303 15.777583625669486 0 0 0
16 1 11.140105669870255 4.850517297062092 1.6065287715356673 0 0 0
107 1 22.102436952506864 0.1824501579220759 9.8744060457335 0 0 0
24 1 17.374293028958625 4.914220048548759 1.6782938867085027 0 0 0
32 1 23.42955991489081 4.626287948976592 1.674014087789491 0 0 0
59 1 22.354561733863548 6.339762326198468 3.3137219299578238 0 0 0
65 1 25.477852098878678 12.573548224296372 0.057999975402320256 -1 0 0
37 1 1.5965205998256742 7.754706348848405 1.836811842016433 0 0 0
91 1 9.617898177603095 0.07883763266664146 9.72929428727357 0 0 0
45 1 8.00866842866295 8.067035600767511 1.5667112985238945 0 0 0
42 1 6.154842563917636 9.732416941699366 3.3297984855634057 0 0 0
53 1 14.568420516418858 7.970965112233092 1.809795079493527 0 0 0
61 1 20.997825255269348 8.222985223073374 1.6618859978564537 0 0 0
414 1 22.718785548769368 15.884551746222108 0.22760103858480007 0 0 0
40 1 4.4905449048002035 11.253550150093488 1.7619713873869902 0 0 0
48 1 11.163327683124216 11.334333709141871 1.5656882603045064 0 0 0
50 1 12.860718459250142 9.852989945338882 3.0398757923663093 0 0 0
56 1 18.072322545070314 10.795716691396752 1.566715350778034 0 0 0
221 1 6.44074580865225 9.693110153473778 15.759382307939886 0 0 0
49 1 13.061253319392227 6.427411917327105 0.19239420600763038 0 0 0
64 1 23.871570395245797 10.955400057474924 1.850846378958399 0 0 0
67 1 1.4436494639014361 14.420906885433258 1.5429600187968422 0 0 0
66 1 2.8783981150877356 12.861521159526355 3.3694347019002757 0 0 0
71 1 8.19828464692734 14.462083848954574 1.4631321981668628 0 0 0
70 1 9.651028179981704 12.85788770314561 3.272243317783371 0 0 0
75 1 14.577815137527617 14.287767326812032 1.5027806751564678 0 0 0
605 1 12.69434681112677 15.888802623394659 15.72863794351281 0 0 0
79 1 21.229440161586872 14.125718165862812 1.7342796905408988 0 0 0
233 1 3.5699494989966936 12.554676329743081 15.89661846459357 0 0 0
7 1 4.722133101475334 1.073256736854459 4.772515189853949 0 0 0
10 1 6.258183942655578 2.847521163108264 3.226887421778977 0 0 0
15 1 11.305096086250868 1.5996651610210888 4.312117635137067 0 0 0
23 1 17.308342838940888 1.8166946347729342 4.486914318466201 0 0 0
100 1 15.805772890286065 3.220757169756057 6.2150201162719005 0 0 0
2 1 0.044898023092280984 3.0542555316943254 3.160345745786211 0 0 0
31 1 23.630787417812215 1.4967763049123743 4.818900389638044 0 0 0
6 1 1.6614482520493496 4.46909560145385 4.852535442310976 0 0 0
113 1 0.2711814611533464 6.406532065973157 6.2869825350057 0 0 0
43 1 9.410268724764101 6.465662583947731 3.241718387841117 0 0 0
14 1 8.00379012920748 4.434790940464874 4.743300290163426 0 0 0
22 1 14.208670140573052 5.015156136803186 4.8537565880630105 0 0 0
30 1 20.872391490379073 4.78743025761936 5.1175735066791015 0 0 0
137 1 18.748957764925045 6.24412932169891 6.393637323763759 0 0 0
35 1 3.1553783211146254 5.932690931075883 3.25783874552992 0 0 0
39 1 4.912910403388087 7.601707740077845 4.6327258515653345 0 0 0
47 1 11.230001908640995 8.177087484626854 4.701373930030767 0 0 0
129 1 12.389437845056912 6.298445738810791 6.2424779112584545 0 0 0
51 1 16.059654467169516 6.414393582906748 3.51759262958211 0 0 0
55 1 17.20020706260148 8.257455693936352 4.950200423428427 0 0 0
63 1 24.021314254617863 7.925296307767113 4.878954272171451 0 0 0
34 1 0.11450725551439078 9.505203041526572 3.471686104824525 0 0 0
38 1 1.490477395822586 11.320070075127719 5.1030293220742 0 0 0
116 1 3.2583501732472304 9.484283037918347 5.830311872075191 0 0 0
46 1 8.244278505137697 10.873887221524798 4.565749875721119 0 0 0
54 1 14.327519223773105 11.261564821304452 4.650721473874304 0 0 0
58 1 19.37456044948278 9.562837222017697 3.772174732792223 0 0 0
62 1 20.8086721544824 11.359411479816993 4.91308963296929 0 0 0
140 1 22.23395802380991 9.62628062283997 6.596281928613693 0 0 0
68 1 4.704889364362035 14.133080086489603 4.764732639113582 0 0 0
72 1 11.03203338541848 14.51724886472627 4.798617813702569 0 0 0
230 1 22.890005227308116 6.343920014146998 15.841377784597844 0 0 0
74 1 16.122895983551288 12.549516769070895 2.8696092297841846 0 0 0
76 1 17.56417937606321 13.99990809973292 4.875126682878484 0 0 0
78 1 22.66063020799693 12.735472104762687 3.547848057179668 0 0 0
80 1 24.328240279327964 14.401134993276086 4.843927181799272 0 0 0
85 1 1.5583035066557227 1.5538313581123822 7.927942000065434 0 0 0
200 1 20.48582106991951 13.99315845403527 14.249828139678005 0 0 0
84 1 3.4262704850943058 2.6046305291030665 6.362965334095326 0 0 0
198 1 14.074586491217456 14.320329303924357 14.270685269544787 0 0 0
93 1 7.9276032483189525 1.2820591619005397 8.250324949075535 0 0 0
101 1 14.187402263833059 1.503240992866159 7.994503787137894 0 0 0
413 1 19.412596996524357 15.695526559770203 3.1767935190475822 0 0 0
106 1 18.783656713191306 2.9733245255505603 9.876429649986996 0 0 0
108 1 22.23638845827321 3.1179401721437103 6.562459417402227 0 0 0
109 1 20.41720614647746 1.5875520830262304 8.115759659004755 0 0 0
82 1 25.4647239608833 3.084171007609871 9.563453464149292 -1 0 0
88 1 4.763334619592784 4.634284384863528 7.530841914785692 0 0 0
92 1 9.603779548474689 2.867582616651658 6.4283656783039005 0 0 0
96 1 11.148651427808916 4.750066669157395 7.9695878339892925 0 0 0
123 1 9.372083023658439 6.107588559138248 9.418156168992853 0 0 0
104 1 17.369074312181084 4.612838452444114 8.038357459442528 0 0 0
131 1 16.03105553445797 6.329407334767167 9.744237642824453 0 0 0
112 1 23.953047670089212 4.816656355195595 7.977971809407643 0 0 0
117 1 1.8979204695923249 7.937873283210486 7.879507700780826 0 0 0
114 1 25.315050600338864 9.58148773320429 9.303410194944552 -1 0 0
115 1 3.2968620721119737 6.295353217662422 9.555154919727727 0 0 0
121 1 6.540044389837243 6.0853166422634875 6.265267408560336 0 0 0
125 1 8.156638391151557 7.904607551821959 7.723604182380238 0 0 0
133 1 14.11576530636902 7.729676411286632 7.94683671251397 0 0 0
141 1 20.428239987841437 7.970990512576556 7.805195976422998 0 0 0
138 1 18.97418793711799 9.390923971907885 9.776400586165359 0 0 0
139 1 22.309612778915564 6.467806091212279 9.615961802181982 0 0 0
146 1 3.2521339048324283 12.266045010310297 9.685406722925407 0 0 0
120 1 4.530192784956172 11.002698669054283 7.758589411049855 0 0 0
149 1 6.504385244684363 12.478973324979751 6.216419349006974 0 0 0
124 1 9.65378778410734 9.588763538753211 6.259825992243251 0 0 0
128 1 10.987402629832967 11.135951107090237 7.967323456129444 0 0 0
132 1 15.623097419655524 9.846457484445093 6.62966883335637 0 0 0
136 1 17.19043226553751 11.112110021194809 8.585789299695602 0 0 0
157 1 18.941820811806053 12.543886630661003 6.996207372486208 0 0 0
144 1 23.85749790653886 11.407885756188378 7.8400179834902435 0 0 0
180 1 4.573936691443211 11.078691420076652 13.984863824374647 0 0 0
145 1 0.06916733425347368 12.907177809648472 6.573618484283089 0 0 0
147 1 1.570592570753174 14.075580730324594 8.556966886349326 0 0 0
194 1 2.2803968001815162 14.491344359789442 14.471836206475633 0 0 0
151 1 7.931663543546954 14.033346576008308 7.959667015588693 0 0 0
153 1 12.479650821645814 12.701348149405323 6.268438213289987 0 0 0
155 1 14.108119769727162 14.221114267097404 7.880826217691965 0 0 0
199 1 18.99908368992793 12.46291855091559 12.63585902630611 0 0 0
159 1 20.683735769152328 14.40664157904506 7.901681299268241 0 0 0
87 1 4.267037656069427 1.7484417840316462 11.180313437070712 0 0 0
184 1 10.888314177471699 10.84501875810661 14.61671377003051 0 0 0
95 1 11.213414161377004 1.8344063768993246 11.417625702765683 0 0 0
103 1 17.14708431084133 1.2154983785046887 11.145804588566913 0 0 0
196 1 8.015925758069736 14.168212663300503 14.177753175381053 0 0 0
174 1 22.3441834959865 3.2294677446328555 12.5808152082159 0 0 0
111 1 24.003928807664288 1.6794529114294094 11.121543621348449 0 0 0
86 1 1.583763302519446 4.935476081656189 11.280739009245067 0 0 0
177 1 25.439778915408112 6.547070220683177 12.551978461655104 -1 0 0
90 1 6.115636461551894 3.1810311348322236 9.550745346683986 0 0 0
94 1 7.780205763253596 4.906912492451332 10.950317835141695 0 0 0
98 1 12.754512577421453 3.3644244432717105 9.725359381158146 0 0 0
185 1 12.74150166760488 6.592070299155922 12.484519108042214 0 0 0
102 1 14.550631702594316 4.809902553930568 11.277431244159294 0 0 0
170 1 16.04893141401601 2.910699257558093 12.863658729399155 0 0 0
110 1 20.80849281496547 4.846792118296999 11.268890441874191 0 0 0
119 1 4.662722471808318 7.9942313161753376 11.226905511548397 0 0 0
122 1 6.238415335429102 9.093482732338726 9.2322225563463 0 0 0
182 1 9.519617779603399 9.420637780721705 12.586808257115488 0 0 0
127 1 11.169482215652932 7.815546438467615 10.780884858867026 0 0 0
130 1 12.65549320839064 9.358395194480766 9.29721476053596 0 0 0
135 1 17.69939858038974 7.82466291746913 11.429668291749525 0 0 0
186 1 15.741405662899485 9.22666168969848 12.887258628009521 0 0 0
143 1 24.090536771398583 8.200382721411172 11.031937609255282 0 0 0
193 1 0.5227063594992192 13.253447339347572 12.664815212725843 0 0 0
118 1 1.2574283378872908 11.087061249299484 11.212348446976932 0 0 0
126 1 7.657901311376334 11.034327167750572 10.749603757188526 0 0 0
134 1 14.304788513842531 10.95595994633478 11.331224650405806 0 0 0
154 1 15.609560572691228 12.771048140617621 9.79944037440252 0 0 0
158 1 22.252666787414398 12.89105556192082 9.259838501941616 0 0 0
142 1 20.798260683553103 11.16887554704606 11.076834247533247 0 0 0
148 1 4.8091379749051315 14.252289365483787 10.94701737727731 0 0 0
150 1 9.616319487096536 12.726148785669215 9.517867152017159 0 0 0
152 1 11.144885231584515 14.079586396376735 11.289775012706896 0 0 0
156 1 17.634572586625282 14.250134108988643 11.164596528811845 0 0 0
190 1 22.52717557163114 9.748114363475281 12.779752494183723 0 0 0
160 1 23.792207629073303 14.419515746447358 11.279125397459609 0 0 0
163 1 1.8096645558266 1.8001736227306429 14.487799600841733 0 0 0
162 1 3.084629645344012 3.6146721883771997 12.871245297405483 0 0 0
565 1 16.10249415309353 15.68165993932219 13.119812926768986 0 0 0
167 1 8.131840849478937 1.7713072573452786 14.523942460914588 0 0 0
192 1 23.98920420386908 11.39990186491849 14.139334140579747 0 0 0
197 1 12.398053714449155 12.579482914912335 12.956510595141362 0 0 0
171 1 14.103869781242805 1.5023092135054839 14.565609232498659 0 0 0
175 1 20.873174465513216 1.673002878773243 14.20680955617584 0 0 0
169 1 12.186754001839871 0.03702278098056254 13.06509958142025 0 0 0
164 1 4.767984563988736 4.821295079090152 14.427482664255747 0 0 0
181 1 6.406948959098389 6.318215787570108 12.690950482219135 0 0 0
166 1 9.475506188924207 3.5331187286791708 12.853068198103246 0 0 0
188 1 17.255572920413073 10.97731754121717 14.230115587767944 0 0 0
168 1 10.990114637790532 5.281037167471395 14.241354202557673 0 0 0
172 1 17.633428422394303 4.6825970536559565 14.275304202669934 0 0 0
176 1 24.09245561476439 4.527016052383973 14.387524464965258 0 0 0
239 1 22.462500617009 12.747548306077883 15.870032051278223 0 0 0
178 1 2.9483034187975883 9.582733914525924 12.527078976659045 0 0 0
179 1 1.535460330329508 7.613008899947426 14.299713220645096 0 0 0
183 1 7.815619315630397 8.009108135020707 14.153395360652757 0 0 0
195 1 6.4084141262045415 12.683509722472456 12.411341240733934 0 0 0
187 1 14.199943503633323 7.884125375779931 14.459186547581918 0 0 0
189 1 19.30929380127514 6.2656811257389915 12.835609675292883 0 0 0
191 1 21.16602292594431 7.773519566575672 14.259827530333286 0 0 0
60 1 22.327267545204265 9.605955572112297 -0.03432588742269499 0 0 0
229 1 19.247894543837482 9.567014915935703 15.853870853368013 0 0 0
57 1 19.27143543037917 6.3128761119675465 0.062984291378569 0 0 0
409 1 12.967293807831515 15.67150941496283 3.3047045091086265 0 0 0
173 1 19.036680161800234 0.0017631548435135952 12.712217482053916 0 0 0
222 1 9.417793301128677 6.714562395928497 15.895658932706224 0 0 0
490 1 15.807481650647778 15.714300646383197 6.277888832535597 0 0 0
81 1 25.40665042224566 0.24589277190420572 6.512188998176965 -1 0 0
217 1 0.0717987666940579 9.792032591172354 15.71732848416669 0 0 0
105 1 18.791382383127676 0.23271104492589528 6.286385288980815 0 0 0
482 1 3.208819461160241 15.528701898308654 6.630230463262643 0 0 0
165 1 6.1542245840795236 0.21381855491263185 12.595149310551816 0 0 0
209 1 12.568562894252475 3.435736340059404 15.787919114825169 0 0 0
12 1 9.62474748062952 3.442792708646911 -0.0276692262640168 0 0 0
41 1 6.4303812659053925 6.544395122287272 0.08736496485214928 0 0 0
244 1 3.4684057822017906 2.9525878844003315 19.504435811733686 0 0 0
204 1 4.7515626246820775 1.5718242094473704 17.779353576845534 0 0 0
208 1 11.177997866669132 1.930311951675302 17.653756569981244 0 0 0
654 1 22.086124811655488 15.68597032293648 19.017042669643168 0 0 0
212 1 17.64219794818498 1.6269408092333566 17.675479076770618 0 0 0
225 1 12.710333892694424 9.743185835750856 16.143750160541742 0 0 0
216 1 23.763169590773487 1.7762199793763673 17.659746012281218 0 0 0
203 1 1.793769042734442 4.5630218937936355 17.65082508003665 0 0 0
207 1 8.075678115181574 4.654984985337418 17.267455919237438 0 0 0
650 1 15.704324724389332 15.742955682389741 18.935595530554355 0 0 0
211 1 14.307658172934877 4.871760631840901 17.75777267183807 0 0 0
297 1 19.146927375607603 6.288950524670441 19.018625172861697 0 0 0
215 1 21.16454967141084 5.088965900277713 17.495542557169724 0 0 0
273 1 0.32969891931428824 6.535322019104651 19.196285179339917 0 0 0
276 1 3.3776969532872254 9.467521626176614 19.119763203050397 0 0 0
220 1 5.168896106908017 7.862801721954767 17.427507154242004 0 0 0
224 1 11.424235263212019 7.96053678869389 17.696814371973662 0 0 0
284 1 9.752881210243956 9.92497632534765 19.12937441158335 0 0 0
241 1 25.308125433334283 0.045609746517539684 19.058838080304664 -1 0 0
228 1 17.78046597389259 7.912406908195849 17.330793931255638 0 0 0
292 1 15.907197188118142 9.281392186136458 18.748249052973026 0 0 0
206 1 9.758633261752939 0.09285878116314697 16.046225480170463 0 0 0
232 1 24.209485774213448 7.859231287136054 17.325362790987313 0 0 0
219 1 1.7183151218870578 10.915363397717085 17.492035053148737 0 0 0
305 1 0.078799416526806 12.34114370602809 18.846528219389747 0 0 0
4 1 3.2637979435297826 3.2108224102482597 31.65247873086759 0 0 -1
223 1 7.992520761377314 11.263654522415775 17.521644998956518 0 0 0
201 1 0.08288858288180108 3.0838742733743585 16.24605757687449 0 0 0
227 1 14.46288930505577 11.384725783307317 17.609974060702957 0 0 0
218 1 3.140528066604476 6.2992401565862775 16.2921232931717 0 0 0
231 1 20.878182441855103 11.235228262557074 17.394169123320395 0 0 0
234 1 4.959144067578996 14.284249271754888 17.118521634988777 0 0 0
17 1 12.874423498787019 0.18107106525211733 31.80279676119335 0 0 -1
236 1 11.248980762490822 14.600524560158135 17.948050756260763 0 0 0
653 1 19.086319231527767 15.697634127050183 21.851474847295908 0 0 0
642 1 3.1431049859306452 15.409601316545427 18.840652244735587 0 0 0
238 1 17.750652713852027 14.350137969466312 17.350667704335738 0 0 0
265 1 19.062821294363218 0.33250845484741226 19.262600406689547 0 0 0
240 1 23.872981786676554 14.144878104567473 17.468651692115703 0 0 0
245 1 1.2040223553931637 1.7096874204879673 20.73115357508567 0 0 0
253 1 8.161015345067966 1.6622770139476728 21.01016740144913 0 0 0
734 1 22.31275781250244 15.647195477194414 25.379523270955808 0 0 0
261 1 14.428677642385573 1.1433737740436885 21.08846585011828 0 0 0
400 1 23.970274291927055 14.287713763190677 30.249308852705443 0 0 0
260 1 15.844329945566546 2.9116685148763706 19.363011486935758 0 0 0
358 1 1.6169919191009645 11.22925869058097 30.464687742311206 0 0 0
269 1 20.87967121463391 1.735086306261913 20.673372764125595 0 0 0
396 1 17.713572813934462 14.292579099474024 30.13193723351687 0 0 0
268 1 22.413228076699504 3.541575420825515 19.35371342104398 0 0 0
281 1 6.704797184773665 6.166462033288536 19.008572891427857 0 0 0
248 1 5.1963162952317585 5.0946623080950095 20.755053699132517 0 0 0
252 1 9.632389438587872 3.364353316240666 19.478793173910816 0 0 0
250 1 6.3357281927491025 3.268232866895905 22.143504636294363 0 0 0
256 1 11.11836272911512 4.963526326949419 21.098058930190163 0 0 0
289 1 12.818447971906318 6.420424261160891 19.60196430414362 0 0 0
264 1 17.718849886068 4.668034229134801 20.805641049440904 0 0 0
266 1 19.474704707831343 3.200789049895049 22.20194273448243 0 0 0
272 1 23.89295620647561 5.229224511298314 21.136669846030475 0 0 0
277 1 1.9097425191118325 7.983802702211198 20.837258011210128 0 0 0
282 1 6.5167880968936664 9.589874983002584 22.177271115173163 0 0 0
285 1 8.152761366902519 8.126165449391006 20.745719047640385 0 0 0
293 1 14.648599037465381 8.013910650861801 20.983007084289497 0 0 0
300 1 22.66921408764835 9.415196545984537 18.88856277407153 0 0 0
299 1 22.389248722850567 6.932767136930878 22.960570633280646 0 0 0
301 1 20.884304752548466 8.115694428318752 20.64151190855797 0 0 0
306 1 3.2448748490546078 12.685079013931569 22.029921417515776 0 0 0
280 1 5.126175153500345 11.078750310849836 20.331546017832654 0 0 0
309 1 6.523427309622242 12.88250866874227 19.04215172269523 0 0 0
288 1 10.997549151607071 11.185627889493528 20.73074646812957 0 0 0
313 1 12.659569391733296 12.833667677292013 19.184911962900127 0 0 0
296 1 17.46365047392679 10.931776128501854 20.60870162008111 0 0 0
314 1 15.807672157364243 12.600027182713902 22.273193684366714 0 0 0
304 1 24.124856882915054 10.77753383872028 20.442646830522 0 0 0
307 1 1.2303325909234255 14.053643770622163 20.596271710778133 0 0 0
311 1 7.7997774800351705 14.468042543836011 20.677758125128094 0 0 0
28 1 22.227527385792584 2.715209074896926 31.807670488947707 0 0 -1
315 1 14.192669514820913 14.31072152850272 20.821180389161846 0 0 0
317 1 19.120946075872936 12.642931540496505 19.08189041806948 0 0 0
319 1 20.681094534488118 14.032288033176247 20.523819149534003 0 0 0
213 1 19.284745693622106 3.3385274352857652 16.132048171022422 0 0 0
242 1 0.0991854733774821 3.3322619012689634 22.366007070817357 0 0 0
324 1 3.1515481456262187 3.1100678107714437 25.343980022365695 0 0 0
247 1 4.618896529305419 1.4964756746322843 23.655724810383905 0 0 0
394 1 16.19129103282509 12.697478478386818 28.562690742501154 0 0 0
255 1 11.12855199059096 1.4560726523246645 24.140304090517013 0 0 0
235 1 9.72573848960014 12.7680461747806 15.985498587260228 0 0 0
392 1 11.751388882671815 14.34749691388148 30.30899031939569 0 0 0
263 1 17.751794747377907 1.561218990350385 23.723961670252528 0 0 0
271 1 23.96109655192476 1.6166895957044412 23.81145790367229 0 0 0
246 1 1.6835495402063247 4.8103598101596035 23.879600746454894 0 0 0
275 1 3.405250005948142 6.33992624417669 22.33524482925389 0 0 0
254 1 8.018325203326519 4.623532893866663 23.99056754407375 0 0 0
258 1 12.855704448003538 3.1360106447191805 22.54099110907816 0 0 0
262 1 14.070408068336588 5.042555650959994 23.915602462337443 0 0 0
270 1 20.749878189277688 4.891051021734376 23.83091525865779 0 0 0
348 1 22.146140468722763 3.019070842807451 25.359748252486593 0 0 0
274 1 0.18587595223292963 9.580783340723897 22.267593489929283 0 0 0
279 1 4.948601536821745 8.055141810139308 23.839739399801413 0 0 0
283 1 9.569914101882409 6.5075061843321365 22.684670261455366 0 0 0
287 1 11.007812152822424 8.074975402022325 24.21896222583778 0 0 0
291 1 16.24747801334405 6.05193628808872 22.420010101663795 0 0 0
295 1 17.5757740138218 7.842011744980129 23.79070081200937 0 0 0
303 1 24.35344604841282 8.387934006151958 24.406530739501726 0 0 0
278 1 1.533307735988164 11.355989026695898 23.71436363096232 0 0 0
286 1 7.729470068750446 11.07027405161509 23.983341457551955 0 0 0
310 1 9.419385836490221 12.661289433439343 22.284750620647674 0 0 0
290 1 12.82820240042507 9.502729309298548 22.29241918375927 0 0 0
294 1 14.435365909215676 10.83161761798197 23.80964050407332 0 0 0
318 1 22.057828276593042 12.18467902636001 21.87298918833979 0 0 0
298 1 19.062630721141986 9.704548727631625 22.197586808997677 0 0 0
302 1 20.764440913958254 11.016238213739971 23.799584809815222 0 0 0
383 1 24.047829540787262 7.929893276583882 30.24990492288647 0 0 0
308 1 4.729962282366926 14.460623414501912 23.65689961452039 0 0 0
312 1 11.127647346812601 13.966519868115045 23.84416754177434 0 0 0
331 1 9.490516634460903 0.2534179738461236 29.165559220850533 0 0 0
316 1 17.928551910311278 14.019429531287997 23.47142952213393 0 0 0
320 1 23.532093897611873 13.805724390916124 23.52977633261389 0 0 0
388 1 4.506697294309677 14.744707654057105 30.188818424612574 0 0 0
325 1 1.574076021804318 1.466297532999159 26.67431634599654 0 0 0
322 1 25.482489858681802 3.041763422358468 28.33523824477132 -1 0 0
330 1 6.342530386243459 3.212368631621647 28.267036446052376 0 0 0
333 1 8.012446095209265 1.4357061061288559 26.992438889640265 0 0 0
341 1 14.398003998281172 1.6960713524003501 26.8813291652885 0 0 0
386 1 3.1450481013558043 12.840777120302478 28.628407608911697 0 0 0
354 1 25.475749258154707 9.676860610633808 28.926146627058227 -1 0 0
349 1 20.9194575344874 1.2698001069780307 26.9203679823208 0 0 0
353 1 25.46389001412937 6.321331099370783 25.61772558522358 -1 0 0
328 1 4.630764877566403 4.950584240203045 26.89933431038347 0 0 0
332 1 9.55906992507423 2.994533871496796 25.700059867172794 0 0 0
336 1 10.812520424865255 4.631954050506539 27.516848807717167 0 0 0
340 1 15.997311962422378 3.238146863080828 24.86630927491644 0 0 0
344 1 17.20687566133161 4.746579856423184 26.751643031601713 0 0 0
377 1 19.03636486345534 6.10744980190536 25.52494381632782 0 0 0
352 1 23.83298849554771 4.811961660686011 26.907702715621163 0 0 0
356 1 3.2443656226005455 9.725295303773033 25.200888809447378 0 0 0
357 1 1.4277794142512983 8.36105310351342 27.079244102506305 0 0 0
361 1 6.5036474277724174 6.277086933887758 25.609427190339293 0 0 0
363 1 9.51456362645509 6.549770739423189 28.889139061187347 0 0 0
365 1 7.9963501297994934 8.000706310678233 27.166040272979338 0 0 0
369 1 12.391565166470082 6.354807840508133 25.913339017191714 0 0 0
373 1 14.302511590312188 8.111370218427773 27.175209085566653 0 0 0
378 1 19.34206607684876 9.681698054977765 28.7803316745897 0 0 0
381 1 20.752280325441305 7.630170479042524 27.029591520685035 0 0 0
380 1 22.264174170661448 9.69370376702941 25.586738150014238 0 0 0
389 1 6.292580693950106 13.039199709896993 25.676645688446524 0 0 0
360 1 4.8878835106015845 11.402295080748008 27.05840039857932 0 0 0
362 1 6.307962808717199 9.358091229313647 28.783355246184737 0 0 0
364 1 9.635885155132566 9.557408163243085 25.602127783257373 0 0 0
368 1 11.30401992589062 11.023451457580617 27.2604845978084 0 0 0
370 1 13.23874557041201 9.991372531218435 28.809704369673028 0 0 0
372 1 15.976030777293774 9.473603855555659 25.564028283624708 0 0 0
376 1 17.624163401253746 10.97858162689287 27.06928462689897 0 0 0
385 1 25.33440485494269 12.798207317641658 25.386731942778052 -1 0 0
384 1 24.144712461979573 11.203191845671611 27.089626768278876 0 0 0
387 1 1.4406043309865502 14.456316167970973 26.979371804720554 0 0 0
390 1 9.811243144472472 12.91221481339366 28.869668706128127 0 0 0
391 1 8.243457673542038 14.402864627835564 27.48175216112274 0 0 0
393 1 12.862663218550482 12.544161620575208 25.5105522081019 0 0 0
395 1 14.44765957079652 14.271336981894551 26.97911306853834 0 0 0
397 1 19.338239712780066 12.618648808952704 25.482281293425036 0 0 0
399 1 20.573653652558136 14.66648571891282 26.91890864372326 0 0 0
398 1 22.318068185295687 12.827162601883103 28.515822397560676 0 0 0
9 1 6.150662337609289 0.4123366149846159 31.550850288980858 0 0 -1
327 1 4.691158593684419 1.5964827223898699 29.778997898231577 0 0 0
382 1 20.823279420431703 11.156869082019579 30.123461312748855 0 0 0
335 1 11.15733946731486 1.6299660189415808 30.55509900672443 0 0 0
641 1 25.01329358372211 15.639124132777978 21.729857109938393 -1 0 0
343 1 17.678692995680464 1.6771404488117037 29.926425517335765 0 0 0
351 1 24.043091928991302 1.6243225825152068 29.98249943566387 0 0 0
366 1 7.919973941668454 11.270653244154726 30.214774675453842 0 0 0
326 1 1.5960094229787898 4.9239323863921385 30.089217824758858 0 0 0
355 1 3.052626997401563 6.720110644554198 28.695145098475685 0 0 0
334 1 7.891136084681575 4.966728545477901 30.171976397201806 0 0 0
338 1 12.858987301034254 3.1899703614162047 28.78385791794167 0 0 0
371 1 16.012501801318834 6.600277478256786 28.63115797344498 0 0 0
342 1 14.643302485526037 4.960395523803294 30.17820081467982 0 0 0
379 1 22.640638542028675 6.158030502174473 28.802381939150933 0 0 0
346 1 19.26294938011123 3.0041959694990634 28.24331350499426 0 0 0
350 1 20.7795584040512 4.721881169431131 30.143216058280192 0 0 0
359 1 4.645537245154902 8.224822951794069 30.514880632009884 0 0 0
374 1 15.062432740885399 11.532617238605834 30.518092701829797 0 0 0
367 1 11.441298089251154 8.085721307191212 30.34173325276497 0 0 0
375 1 17.939597458878218 7.563528625573762 30.243750034569352 0 0 0
267 1 22.192365773534775 0.037237770226633604 22.355603883138613 0 0 0
226 1 16.003151408314395 6.221610714842233 16.027667392919643 0 0 0
729 1 13.120902606000929 15.83702753581094 28.696213058329025 0 0 0
339 1 15.876955535297837 0.1731448215982173 28.359173097765723 0 0 0
257 1 12.803943878632166 0.08866069092423443 18.988140116588838 0 0 0
214 1 22.272367522996475 0.1490079198443943 16.0143344454442 0 0 0
649 1 12.296375395998716 15.612589460784523 22.157015375234664 0 0 0
726 1 9.744792033885911 15.480696789541167 25.620959306592795 0 0 0
20 1 16.23413481435238 3.0967584689330945 31.773333603996093 0 0 -1
730 1 16.164742037618367 15.733116924351766 25.05608603979629 0 0 0
249 1 6.566083423319312 0.22667048545903878 19.184011996435345 0 0 0
323 1 3.2254343635831346 -0.0007851736646876731 28.23413464489776 0 0 0
52 1 16.39994103405845 9.463019813570696 31.72954258400949 0 0 -1
25 1 19.33879580651204 0.1468871538968163 31.84939446408242 0 0 -1
77 1 19.369593541182375 12.720442362457298 31.853219824225445 0 0 -1
205 1 6.014907447239674 3.017682669126945 15.91418090750376 0 0 0
237 1 15.971721268734859 12.79350320611354 15.950407516475787 0 0 0
44 1 9.766967803122682 9.768290305255658 31.652254038008703 0 0 -1
33 1 25.470924053774922 6.240302208528087 31.811748707792425 -1 0 -1
73 1 13.045194419546393 12.827120484380305 31.843075241973725 0 0 -1
603 1 6.478208033219123 16.17763693541086 15.793105097324363 0 0 0
404 1 5.035107583486223 17.25926965904402 1.650299515910153 0 0 0
419 1 3.085624202339804 18.796524395733204 3.0664063180115515 0 0 0
408 1 11.37958642172829 17.38266655932499 1.6037709677963257 0 0 0
406 1 10.131798292745904 15.925260310539924 -0.01137257186047545 0 0 0
412 1 17.752969065962205 17.342553840947517 1.80481829793051 0 0 0
489 1 12.950259925281859 15.955814199909202 9.774737006725474 0 0 0
633 1 12.75092675949234 28.830305459410265 15.766169628792897 0 0 0
416 1 24.1114826657072 17.85444414204477 1.689548096582081 0 0 0
421 1 1.63741581299748 20.846069672549223 1.7510622513854879 0 0 0
429 1 7.9168488451884675 20.6344285301472 1.6616824269585284 0 0 0
19 1 15.91740386780407 31.745891929992005 3.0471840571162576 0 -1 0
437 1 14.730921727599583 20.71470335297678 1.3838177575456658 0 0 0
442 1 19.04486669128063 22.443597955092148 3.2051608396157145 0 0 0
435 1 16.214664309666084 19.330862190793816 3.2378968880923336 0 0 0
445 1 20.697673989377996 20.89556026908485 1.8321235201562225 0 0 0
418 1 0.005288890484872848 22.285999064157046 3.422568209698559 0 0 0
424 1 4.37803112775482 24.005436744305168 1.8064371385637454 0 0 0
451 1 2.6592719902796977 25.621277930817214 2.9158742048058315 0 0 0
473 1 19.353950739083054 25.820577337325158 0.12252879632019809 0 0 0
459 1 9.242238233875991 25.21465327151753 2.992188486786826 0 0 0
432 1 11.225727974139746 23.43691085436801 1.4862376529045143 0 0 0
494 1 22.413257237798625 16.130130186333723 6.399492510567464 0 0 0
440 1 17.648555224398827 24.096885177015928 1.5114861787764515 0 0 0
448 1 24.12217891026374 24.097087626813437 1.4958094062753782 0 0 0
161 1 0.027121761263573053 31.79110219168384 12.805759169136769 0 -1 0
453 1 1.3621548893216775 27.424063261875627 1.1275085506612736 0 0 0
450 1 25.31871956014742 29.03452219051169 2.8902971641039192 -1 0 0
461 1 7.72921637329034 26.718910650808542 1.3803987846181731 0 0 0
465 1 12.402360926946349 25.702998615456828 0.24362384913752905 0 0 0
469 1 14.186507497197814 27.409941562026034 1.6228286874015818 0 0 0
561 1 3.458153570298398 15.924141827233424 12.759208943567337 0 0 0
27 1 22.025594917153022 31.779785343999034 3.240882811460426 0 -1 0
477 1 20.919349425079538 27.274415532052963 1.6598409565224927 0 0 0
474 1 19.14898749658152 28.71640676894089 3.063502508774299 0 0 0
456 1 4.582643618388132 30.57257300825534 1.1815491158937288 0 0 0
97 1 12.649121914969959 31.800149517396573 6.292443904688344 0 -1 0
464 1 11.091246010536231 30.499625080388938 1.376180203262806 0 0 0
626 1 2.8027310081229175 25.46490042620276 15.671400412474567 0 0 0
472 1 17.562247520025792 30.365837558563147 1.391185636361359 0 0 0
480 1 23.621314690040037 30.328518504307702 1.1144457789978446 0 0 0