
# Set production fixes - Nose/Hoover
#
fix                 2 all nph iso ${PRES} ${PRES} ${PCOUPL}
fix                 2 all nph iso 1 ${PRES} ${PCOUPL}
fix                 2 all nph iso 1 1 ${PCOUPL}
fix                 2 all nph iso 1 1 10000.0
fix                 3 all temp/csvr ${TEMP} ${TEMP} ${TCOUPL} 837492
fix                 3 all temp/csvr 289 ${TEMP} ${TCOUPL} 837492
fix                 3 all temp/csvr 289 289 ${TCOUPL} 837492
fix                 3 all temp/csvr 289 289 5000.0 837492

# Define Order parameter
#
compute             2 all orientorder/atom nnn NULL cutoff 3.5
thermo              200
thermo_style        custom step temp press vol etotal ke pe c_1[4]

# Run 1ns simulation
dump		    1 all custom 400 prod.${NAME}.dump id type x y z vx vy vz c_2[*]
dump		    1 all custom 400 prod.ice_289K_1atm_ML.dump id type x y z vx vy vz c_2[*]
run                 200000
Neighbor list info ...
  update every 1 steps, delay 0 steps, check yes
  max neighbors/atom: 2000, page size: 100000
  master list distance cutoff = 6.0032907
  ghost atom cutoff = 6.0032907
  binsize = 3.0016454, bins = 9 11 11
  2 neighbor lists, perpetual/occasional/extra = 1 1 0
  (1) pair sw, perpetual
      attributes: full, newton on
      pair build: full/bin/atomonly
      stencil: full/bin/3d
      bin: standard
  (2) compute orientorder/atom, occasional, copy from (1)
      attributes: full, newton on
      pair build: copy
      stencil: none
      bin: none
Per MPI rank memory allocation (min/avg/max) = 5.736 | 5.736 | 5.736 Mbytes
Step Temp Press Volume TotEng KinEng PotEng c_1[4] 
       0    281.99089   -25.670561    25780.011   -8277.2688    671.60847   -8948.8773    0.1486135 
     200    288.38903     48.09533    25778.719   -8277.1446    686.84671   -8963.9913   0.14324589 
     400    289.49487   -16.566467    25783.928   -8275.4953    689.48045   -8964.9758   0.14318726 
     600    282.20942   -54.201411    25787.668   -8289.0074    672.12894   -8961.1364   0.13434194 
     800    276.45368   -34.314233    25768.322   -8295.9495    658.42067   -8954.3702   0.15297367 
    1000    295.52584    173.97175    25754.475   -8297.9765     703.8442   -9001.8207   0.13877831 
    1200    287.70115   -68.885238    25779.148   -8296.8254     685.2084   -8982.0338   0.15531322 
    1400    283.03395   -163.56985    25795.727   -8296.3472    674.09268   -8970.4399   0.14796996 
    1600    282.68857    10.801801     25745.26   -8307.1118    673.27009   -8980.3819   0.15774138 
    1800    288.91733    222.37682    25714.735   -8300.0962    688.10493   -8988.2011   0.13596173 
    2000     282.9271   -185.01954    25798.119   -8281.3292    673.83819   -8955.1674    0.1535434 
    2200    297.89511   -186.15212    25833.159   -8271.2346    709.48702   -8980.7216   0.14115726 
    2400    290.59539    51.260204    25744.945   -8274.8054    692.10152    -8966.907   0.14558039 
    2600    289.62752    220.99654    25713.402   -8287.3899    689.79637   -8977.1863   0.13951019 
    2800    291.54061   -158.28421    25806.884   -8290.7288    694.35272   -8985.0815   0.14743157 
    3000    284.07137   -181.26305    25822.946   -8298.3238    676.56347   -8974.8873   0.13477929 
    3200    299.62179     317.8239     25720.59   -8267.8158    713.59939   -8981.4152   0.13956354 
    3400    277.67335    146.96943    25739.659   -8291.7548    661.32553   -8953.0804   0.14891968 
    3600    287.28961     -371.526    25843.625   -8312.8344    684.22824   -8997.0626   0.14572366 
    3800    278.17843    15.947878    25782.318   -8280.5079    662.52844   -8943.0364   0.13856981 
    4000    293.61006    371.01718    25687.211   -8273.2626    699.28145    -8972.544   0.15223461 
    4200    288.40736 -0.047456264    25788.241   -8283.6467    686.89036   -8970.5371   0.14346389 
    4400    293.39882   -459.21733     25872.83   -8272.7076    698.77836   -8971.4859   0.13889755 
    4600    300.20127    167.33446    25745.139   -8263.8521    714.97953   -8978.8316   0.14184078 
    4800    290.69101     356.3503    25683.737   -8251.3949    692.32925   -8943.7241   0.15901526 
    5000    287.16411   -232.10633    25839.054   -8254.0485    683.92936   -8937.9779   0.14255087 
    5200    285.78926   -381.20079    25876.168   -8247.9375    680.65493   -8928.5924   0.14492444 
    5400    288.75942    312.90317    25707.854   -8233.2515    687.72885   -8920.9803   0.15496028 
    5600    295.82616    363.58435    25722.722   -8234.1883    704.55947   -8938.7478    0.1441182 
    5800    286.47539    -475.7416    25906.798   -8230.8539    682.28906    -8913.143   0.14453575 
    6000    307.04027     -212.027    25850.625   -8222.6111    731.26776   -8953.8788   0.14668922 
    6200    296.95845    491.82895    25679.201   -8228.9481     707.2562   -8936.2043   0.14979932 
    6400    301.81155    62.893906    25780.462   -8214.0051    718.81467   -8932.8198    0.1467805 
    6600    294.18427   -493.55129    25934.857   -8227.3282    700.64904   -8927.9772   0.13693007 
    6800    276.32857    50.196348    25787.963   -8248.9928     658.1227   -8907.1155   0.15439949 
    7000    296.82706     678.0358    25658.392   -8232.6917    706.94328    -8939.635   0.13820979 
    7200    291.69648   -251.41786    25858.078   -8206.8905    694.72395   -8901.6144   0.14914231 
    7400    307.41714   -605.78499    25951.452   -8195.2866    732.16532   -8927.4519   0.15283296 
    7600    298.51149    323.74405     25720.38   -8204.8678    710.95503   -8915.8229   0.15247577 
    7800    294.50413    608.07684    25672.892   -8221.5788    701.41083   -8922.9897   0.14091394 
    8000    300.15699   -490.49883    25921.023   -8206.2443    714.87406   -8921.1184   0.14900227 
    8200     293.9066   -487.80303     25900.08   -8225.5398    699.98771   -8925.5275   0.15348836 
    8400    287.16146    677.30621    25650.127   -8230.3174    683.92304   -8914.2405    0.1483607 
    8600    295.43285    272.92225    25741.628   -8212.0047    703.62274   -8915.6274    0.1427858 
    8800    290.35391     -783.712    25977.715   -8191.9849     691.5264   -8883.5113    0.1603006 
    9000    297.77234   -170.08963    25835.309   -8195.3605    709.19463   -8904.5551   0.15123507 
    9200    311.17087    857.40246    25626.364   -8188.2725    741.10545   -8929.3779   0.14881839 
    9400    298.49139   -56.980395    25817.311   -8199.6056    710.90716   -8910.5128   0.15170259 
    9600    303.82957   -764.48428    25981.284    -8196.487    723.62094    -8920.108   0.15145149 
    9800    310.06639    238.67328    25749.124    -8202.309    738.47495    -8940.784    0.1388378 
   10000    299.78935    690.69477    25643.313   -8207.2784    713.99848   -8921.2769   0.15239424 
   10200    292.16339   -365.13981    25874.844   -8213.4063    695.83596   -8909.2423   0.15280318 
   10400    310.60862   -530.80533    25920.435   -8199.4819    739.76637   -8939.2482    0.1490527 
   10600    315.36199      498.081    25715.095   -8202.9979    751.08732   -8954.0852   0.13372882 
   10800    304.44881    290.16972    25716.985   -8217.1792    725.09574   -8942.2749   0.14965597 
   11000    305.02942   -302.95135    25873.152   -8227.7373    726.47856   -8954.2158   0.14098636 
   11200    281.51989   -245.44683    25825.918   -8240.9515     670.4867   -8911.4382   0.15158322 
   11400    301.21826    438.66048    25700.416   -8252.9624    717.40167   -8970.3641   0.13457639 
   11600    289.91765    50.375301    25769.951   -8245.1274    690.48737   -8935.6147    0.1426739 
   11800    285.44658   -363.86444    25881.441   -8263.1259    679.83876   -8942.9647   0.13242947 
   12000    289.70436   -45.469561    25792.544   -8270.0993    689.97939   -8960.0787   0.13968138 
   12200    302.73778    332.59503    25713.169    -8261.716    721.02064   -8982.7366   0.13733656 
   12400    300.39687    -95.04358    25809.859   -8249.6835    715.44538   -8965.1289   0.14257278 
   12600    291.53817   -332.13862    25854.759   -8253.6928    694.34691   -8948.0397   0.14182986 
   12800    292.97947    183.24685    25759.072   -8257.7948     697.7796   -8955.5744   0.14271125 
   13000    285.92809     167.0542    25752.377   -8252.7763    680.98556   -8933.7619   0.14341447 
   13200    294.30283   -268.09398     25841.53   -8250.0562    700.93141   -8950.9876   0.14000526 
   13400    288.79913    -241.3172    25820.601   -8262.1582    687.82342   -8949.9816   0.14340559 
   13600    300.12273    295.41567    25731.424   -8245.4601    714.79246   -8960.2526   0.13525294 
   13800    295.78437    114.48997    25785.902   -8230.9405    704.45994   -8935.4004   0.13596379 
   14000    296.67759   -334.26452    25878.721   -8231.2997     706.5873    -8937.887   0.13981741 
   14200    293.10035   -41.321889    25807.917   -8234.9987     698.0675   -8933.0662   0.14973514 
   14400    296.39875    367.38542    25725.853   -8250.6273     705.9232   -8956.5505   0.14160654 
   14600    294.54775   -115.91443    25816.956   -8254.6152    701.51472     -8956.13    0.1381674 
   14800    281.16644   -356.05903    25868.402    -8242.995    669.64491   -8912.6399   0.15359124 
   15000    281.99324    83.988122    25759.913   -8264.3492    671.61406   -8935.9632   0.15743271 
   15200    286.75859    314.12712    25716.341   -8292.1974    682.96353   -8975.1609   0.13516471 
   15400    290.89575   -141.87806    25811.399    -8287.373    692.81688   -8980.1898   0.13410074 
   15600    290.31571   -322.05971    25814.457     -8306.58     691.4354   -8998.0154   0.15206519 
   15800     283.0209    275.77059    25699.954   -8286.0149    674.06159   -8960.0765   0.15047978 
   16000    278.83841    52.170947    25743.347   -8283.1745     664.1003   -8947.2748   0.14672851 
   16200    288.20902   -285.14129    25851.077   -8269.5606    686.41797   -8955.9786   0.15012202 
   16400    289.67384   -48.683899    25785.687   -8280.1807    689.90668   -8970.0873   0.14871579 
   16600    298.20578    365.77393     25684.78   -8292.6008    710.22694   -9002.8277   0.13277459 
   16800    275.64242   -37.641449    25762.573   -8276.0615    656.48852     -8932.55   0.15158363 
   17000    288.94327   -285.13776    25859.035   -8281.1506    688.16672   -8969.3173    0.1352349 
   17200    298.09697    143.07566    25769.111   -8271.9169    709.96778   -8981.8847   0.13150724 
   17400    290.18098    398.92613     25694.67   -8288.7441    691.11453   -8979.8586   0.13264954 
   17600    288.11913   -176.72654     25798.99   -8303.2481     686.2039    -8989.452    0.1485627 
   17800    274.07662   -310.26548    25838.722   -8305.3182     652.7593   -8958.0775   0.14311722 
   18000    271.96853    247.53807    25717.679   -8321.5815    647.73855   -8969.3201   0.14067734 
   18200    281.62705     287.0853    25705.666   -8332.2755    670.74192   -9003.0175   0.14385692 
   18400    274.60314   -252.77807    25818.124   -8328.3907    654.01329    -8982.404   0.14717824 
   18600    290.31481    -48.29672     25807.52   -8314.0221    691.43326   -9005.4553    0.1214144 
   18800    293.47653    255.57833    25720.434   -8282.9547    698.96344   -8981.9182   0.14337726 
   19000    286.84359    168.44238    25753.962   -8291.0764    683.16598   -8974.2423    0.1385048 
   19200    274.17615   -341.25376    25839.726   -8290.5484    652.99634   -8943.5447   0.14171982 
   19400    283.41104   -51.312774    25788.323   -8285.2478    674.99078   -8960.2385   0.14145935 
   19600    291.90679    223.61492    25713.911   -8294.5384    695.22484   -8989.7632   0.14821914 
   19800    280.78089   -27.512022    25781.163   -8299.1195    668.72664   -8967.8461   0.14082928 
   20000    297.30138   -305.96034    25854.386   -8293.4522    708.07296   -9001.5251   0.13013221 
   20200    280.77045    94.698207    25758.135   -8301.9224    668.70177   -8970.6241   0.14463913 
   20400    283.84037    369.31306    25697.096   -8301.1153    676.01331   -8977.1286    0.1389442 
   20600    284.75896   -128.67882     25801.71     -8294.67    678.20108    -8972.871   0.13415603 
   20800    282.42826   -250.22342    25827.451   -8285.8907    672.65014   -8958.5409   0.14299709 
   21000      291.679    267.63809    25719.408   -8295.8024    694.68233   -8990.4847   0.14251803 
   21200     282.6448    187.52795    25718.519   -8287.7129    673.16587   -8960.8788   0.14438873 
   21400    288.98651   -293.62251    25835.153   -8285.3903    688.26971     -8973.66   0.14683828 
   21600     281.9856   -157.46271      25804.5   -8277.7214    671.59586   -8949.3173   0.15367099 
   21800    282.75385    310.83825    25691.146   -8267.6019    673.42559   -8941.0275   0.14798911 
   22000    293.57297    53.375567    25767.077    -8267.054    699.19312   -8966.2471    0.1437805 
   22200     288.1246    -410.6005    25871.036    -8252.588    686.21691   -8938.8049   0.14568116 
   22400    298.59969    99.715909    25782.014   -8248.2043    711.16511   -8959.3694   0.14421928 
   22600    296.96595    352.01493     25713.12   -8251.4726    707.27406   -8958.7466   0.13558898 
   22800    290.28266   -185.54679    25839.385   -8256.5612     691.3567   -8947.9179    0.1443302 
   23000    293.13689   -360.14759    25883.604   -8259.3164    698.15452   -8957.4709   0.13979046 
   23200    289.38281     261.6103    25732.103   -8254.8876    689.21355   -8944.1012   0.13873818 
   23400    294.67473    368.17577    25712.375    -8262.469    701.81716   -8964.2862   0.14037756 
   23600    289.95684   -389.50376    25868.694   -8267.2962     690.5807   -8957.8769   0.14636137 
   23800    284.41076   -255.11573    25845.271   -8251.6324    677.37178   -8929.0042    0.1466721 
   24000    286.31425    437.29133    25679.278   -8268.8362    681.90526   -8950.7414   0.14404762 
   24200    292.46575    290.08528    25735.414   -8259.9095     696.5561   -8956.4656   0.14143276 
   24400    284.76467   -392.01015    25897.032   -8273.0528    678.21469   -8951.2675   0.14233992 
   24600    302.09378    22.247136    25797.654   -8266.2342    719.48685    -8985.721   0.12746109 
   24800    283.75642     577.4226    25644.135   -8235.2527    675.81336   -8911.0661   0.15413204 
   25000    298.72778   -126.79089    25811.878   -8242.3584    711.47016   -8953.8286     0.147195 
   25200    284.49946   -753.37274     25943.98   -8252.5342    677.58305   -8930.1173   0.15007375 
   25400    293.69972    289.59629    25715.514   -8263.9557      699.495   -8963.4507   0.14706169 
   25600    274.31736    585.30326    25619.954   -8296.9268    653.33267   -8950.2595    0.1560188 
   25800    287.99854   -462.35793    25874.445   -8298.2806    685.91668   -8984.1973   0.13514041 
   26000    282.84549   -631.14569     25912.47   -8298.6334    673.64384   -8972.2772   0.13759928 
   26200    291.69852    749.23116    25632.739   -8316.3339     694.7288   -9011.0627   0.13244454 
   26400    279.05764    507.51639     25661.47        -8323    664.62243   -8987.6225   0.13307688 
   26600     276.7927   -781.24337    25948.183   -8319.3811     659.2281   -8978.6092   0.13550708 
   26800    285.08687    -385.1889    25859.973   -8323.7599    678.98206   -9002.7419   0.13174355 
   27000    283.97327    865.65005     25597.06   -8319.1141    676.32984   -8995.4439   0.12796961 
   27200    287.33683      93.1578    25747.661   -8307.7601    684.34071   -8992.1008   0.12527947 
   27400    286.67795   -757.80557    25963.142   -8301.6129    682.77148   -8984.3844   0.13355637 
   27600    268.04382   -9.0929744    25771.618   -8298.6665    638.39117   -8937.0576   0.14033662 
   27800    297.46459    687.85478    25621.493   -8287.5812    708.46166   -8996.0428   0.13386214 
   28000    291.99105   -260.26084    25832.755   -8283.8531    695.42553   -8979.2787   0.13904259 
   28200    267.28081   -674.53369    25913.652   -8289.8293    636.57395   -8926.4033   0.15497963 
   28400    294.28555    402.50167    25696.218   -8278.4268    700.89026    -8979.317   0.13040587 
   28600      287.783    381.33414    25669.963   -8286.4341    685.40334   -8971.8375   0.14182986 
   28800    285.64526    -372.0438    25864.069    -8293.548    680.31194   -8973.8599   0.14303049 
   29000    284.52843   -347.94727    25836.721   -8312.3963    677.65203   -8990.0483   0.13331285 
   29200      273.571    422.33137    25660.716   -8320.5016    651.55507   -8972.0567   0.13087645 
   29400    287.94201    198.98282    25728.319   -8314.5296    685.78206   -9000.3117   0.13769506 
   29600    269.07875   -446.10371    25893.221   -8304.3193    640.85605   -8945.1754   0.13189525 
   29800    290.50404   -59.036795    25823.603   -8280.4965    691.88394   -8972.3805   0.12299063 
   30000     285.8349    273.32322    25711.756    -8271.132    680.76362   -8951.8956   0.14097274 
   30200     278.0237   -71.135969    25782.517    -8273.909    662.15994   -8936.0689   0.15776914 
   30400    292.52812    -243.7596    25849.902   -8294.7663    696.70465    -8991.471   0.12628109 
   30600    301.50768    152.24825    25783.483   -8271.1847    718.09097   -8989.2757   0.12439278 
   30800    300.77056    228.46034    25745.668   -8250.4679    716.33539   -8966.8033   0.14367228 
   31000    278.50655   -115.11193    25810.966   -8261.4763    663.30993   -8924.7863   0.15155213 
   31200    290.48702   -118.81537    25827.972   -8251.0716    691.84341    -8942.915   0.13333585 
   31400    289.60884    65.338012    25758.726   -8244.3094    689.75188   -8934.0613   0.15629605 
   31600    285.64628    125.32135    25751.656    -8266.416    680.31439   -8946.7304   0.14768838 
   31800    287.97268   -157.08079    25823.115   -8264.6377    685.85509   -8950.4927   0.13196829 
   32000    294.44649   -167.45788    25821.533   -8256.9454    701.27356    -8958.219   0.13983218 
   32200     285.1832    157.59075    25753.367   -8253.3431    679.21149   -8932.5546   0.16065317 
   32400    294.71298    127.17617    25765.284   -8255.1759    701.90824   -8957.0841   0.13755516 
   32600    293.24645   -65.691972    25806.887   -8256.4589    698.41545   -8954.8744   0.14390011 
   32800    290.34093   -38.879345    25780.339    -8251.026    691.49547   -8942.5214   0.15952826 
   33000    285.30421    95.155358    25752.547   -8242.8829    679.49969   -8922.3826   0.15520648 
   33200    295.53851   -19.475348    25799.239   -8252.6965     703.8744   -8956.5709   0.13106357 
   33400    303.94457   -45.302389    25835.422   -8233.2246    723.89482   -8957.1194   0.14647638 
   33600    287.40061   -118.80526    25804.897   -8202.3395    684.49261   -8886.8321   0.17734365 
   33800    293.46488    171.55701    25774.746   -8214.3705    698.93568   -8913.3062   0.14398533 
   34000    293.06479    32.700095     25804.38   -8230.7154     697.9828   -8928.6982   0.14448301 
   34200    299.18595   -104.85881    25828.472   -8253.7827    712.56137    -8966.344   0.15430613 
   34400    295.68914     66.08528    25780.125   -8272.0481    704.23313   -8976.2812   0.13430384 
   34600    299.12819     176.5436    25750.131   -8264.6639    712.42381   -8977.0877   0.12842984 
   34800    289.42268   -32.008198    25802.812    -8272.407    689.30852   -8961.7155   0.14300284 
   35000    288.58338   -161.21364    25822.835   -8271.7773    687.30958   -8959.0869   0.14589867 
   35200    288.32376     162.0074    25760.414   -8279.2803    686.69126   -8965.9715   0.12762174 
   35400    284.02325    120.65901    25739.414   -8274.2199    676.44887   -8950.6688   0.14317088 
   35600    288.19549   -178.36807    25805.967   -8277.7757    686.38574   -8964.1614   0.15019774 
   35800    277.01377   -161.71874    25830.612    -8272.383    659.75463   -8932.1377   0.13342256 
   36000    280.13065    219.33956    25771.061   -8269.2364    667.17799   -8936.4144    0.1284521 
   36200    281.64485    122.50236    25770.691   -8268.5216    670.78432   -8939.3059   0.15162802 
   36400    281.17208   -266.51452    25839.984   -8280.4398    669.65834   -8950.0981   0.14382689 
   36600    297.39333   -69.255393    25813.459   -8268.3594    708.29196   -8976.6513   0.12556689 
   36800    298.75385    229.42852    25736.811   -8263.0433    711.53225   -8974.5755   0.14189299 
   37000    283.55887    8.6383512    25780.307   -8271.7732    675.34287   -8947.1161   0.14570561 
   37200    293.86379   -252.22564    25865.813   -8257.1591    699.88577   -8957.0449   0.13410047 
   37400    279.08029   -46.811341    25795.347   -8255.7104    664.67638   -8920.3868   0.14034806 
   37600     289.5494    425.84524    25708.213   -8253.5271    689.61032   -8943.1374   0.14982004 
   37800    283.08655   -147.37165    25828.341    -8241.848    674.21795    -8916.066   0.14251672 
   38000    298.37282   -395.75076     25900.93   -8257.5933    710.62477   -8968.2181   0.13151772 
   38200    285.59214     260.1731     25742.09   -8260.0091    680.18543   -8940.1945   0.14600147 
   38400    302.55415    389.62056     25695.85   -8246.1711     720.5833   -8966.7544   0.14509592 
   38600    288.64196   -383.40139    25882.095   -8245.6125    687.44909   -8933.0616   0.13737715 
   38800    298.07411   -465.39053    25895.656    -8259.993    709.91333   -8969.9063   0.14204383 
   39000     285.4075    401.93438    25683.925     -8278.37    679.74569   -8958.1157   0.14405472 
   39200    295.78813    325.55999    25711.686   -8281.8478     704.4689   -8986.3167   0.13682812 
   39400    282.82258   -581.17099    25915.758   -8282.7662    673.58928   -8956.3555    0.1393999 
   39600    272.29961    -340.3923    25838.899   -8306.6218    648.52706   -8955.1488   0.14436948 
   39800    293.03141    646.29389    25636.198    -8294.868    697.90332   -8992.7714   0.13091202 
   40000    285.62422    99.322523    25761.113   -8293.9548    680.26184   -8974.2166   0.12861423 
   40200    291.54642   -635.57034    25961.031   -8281.1638    694.36657   -8975.5304   0.13086587 
   40400    285.69284    73.783152    25786.876   -8275.7627    680.42528   -8956.1879   0.14044184 
   40600     280.5616    726.11988    25636.158   -8289.6019    668.20437   -8957.8062   0.12951219 
   40800    275.09524   -228.98847    25834.349   -8300.5505    655.18532   -8955.7358   0.14502735 
   41000    283.49004   -536.36548    25927.689   -8300.5977    675.17894   -8975.7766   0.13539656 
   41200    274.35363    352.42726    25702.396   -8315.7111    653.41905   -8969.1301   0.13329588 
   41400    285.16829    579.65692    25659.634   -8309.9721    679.17596    -8989.148   0.13521752 
   41600    283.81185   -498.06525    25907.517   -8304.0012    675.94537   -8979.9466   0.13462901 
   41800    280.66428   -503.37173    25897.357   -8296.6188    668.44892   -8965.0677   0.12688983 
   42000    297.00497    680.19521     25644.58   -8282.1767    707.36701   -8989.5438   0.13505292 
   42200    285.58285    351.63871     25717.64   -8296.4529    680.16331   -8976.6162   0.13498895 
   42400    288.57399   -691.48838    25944.431   -8313.6947    687.28721   -9000.9819   0.13114921 
   42600    284.12529   -172.47865    25806.494   -8318.6457     676.6919   -8995.3376   0.13649714 
   42800    273.90986    700.51059    25607.374   -8333.4947    652.36215   -8985.8569   0.14384968 
   43000     281.2181   -63.556341    25778.403   -8320.5463    669.76793   -8990.3143   0.13179035 
   43200     277.8038   -595.89498    25920.179   -8322.3346    661.63621   -8983.9708   0.13260278 
   43400    280.35543    203.68379    25737.494   -8316.4948    667.71334   -8984.2081   0.13696768 
   43600    280.78442    430.21122    25660.992   -8320.9377    668.73505   -8989.6727   0.13910318 
   43800    277.52129   -269.57826    25837.595   -8314.4954    660.96336   -8975.4588   0.12884355 
   44000    274.88503    -315.2172    25862.631   -8314.1096    654.68467   -8968.7942    0.1379582 
   44200    275.74076    310.48865    25705.855   -8332.6094    656.72273   -8989.3322   0.13500346 
   44400    278.65411    239.78414    25721.982   -8325.0276    663.66135    -8988.689   0.12361585 
   44600    281.37178   -240.17513    25852.709   -8295.2585    670.13394   -8965.3925   0.14055821 
   44800    277.25808   -107.52375    25813.521   -8277.6898    660.33648   -8938.0263    0.1459033 
   45000    288.82265    374.79844    25716.873   -8274.5813    687.87944   -8962.4607   0.13178879 
   45200    281.04997   -42.045221    25764.339   -8289.8729    669.36751   -8959.2404   0.14285731 
   45400    278.42249   -219.37983    25823.446   -8311.3149    663.10972   -8974.4246   0.14483167 
   45600    286.88893   -13.014085    25761.038   -8310.3193    683.27396   -8993.5933   0.14129828 
   45800    280.32117    278.67499    25719.822   -8297.2332    667.63175    -8964.865    0.1370991 
   46000    286.17262    -131.6895    25792.947   -8291.6699    681.56796   -8973.2378   0.14688704 
   46200    290.72354   -201.58832    25820.639   -8299.4544    692.40672   -8991.8611   0.13891945 
   46400    279.11899    168.05445    25754.184   -8300.4922    664.76854   -8965.2608   0.12175578 
   46600    281.33767    120.41685    25745.912   -8303.3248    670.05272   -8973.3775   0.13519653 
   46800    280.60867   -191.52048    25818.178   -8290.5348    668.31647   -8958.8512   0.14364548 
   47000    282.31358   -192.37888    25808.958    -8281.786      672.377    -8954.163   0.14096248 
   47200    289.07807    252.53971        25731   -8282.1123    688.48777   -8970.6001   0.13856479 
   47400    304.31748    221.57521    25764.169   -8253.0195    724.78298   -8977.8025   0.14458866 
   47600     302.1324   -250.02238    25854.396   -8242.6817    719.57884   -8962.2606   0.14367609 
   47800    302.67337   -97.066533    25807.661    -8233.881    720.86724   -8954.7482    0.1411546 
   48000    299.88551    228.51082    25732.447   -8224.5727    714.22749   -8938.8002    0.1559651 
   48200    295.39918   -34.675648    25795.166   -8231.7322    703.54256   -8935.2748   0.15137344 
   48400    291.77986   -300.62283    25855.591   -8224.6464    694.92252   -8919.5689   0.14539832 
   48600    288.91215    101.46563    25777.016   -8253.3931    688.09261   -8941.4857   0.14910498 
   48800    296.73531    351.28739    25723.879   -8228.6693    706.72476    -8935.394   0.15115946 
   49000    298.88174   -118.76866    25822.972   -8222.3112    711.83685   -8934.1481   0.14401548 
   49200    298.99826   -416.96045    25857.145   -8231.3565    712.11435   -8943.4709   0.14863878 
   49400      298.722    275.57584    25736.765   -8229.2957    711.45641   -8940.7521   0.14705822 
   49600    292.10746    299.08609    25728.629   -8240.3287    695.70277   -8936.0315   0.15696057 
   49800    301.83788   -251.48098    25860.254   -8225.9997     718.8774   -8944.8771    0.1382104 
   50000    290.05785   -244.15116    25838.776   -8221.5644    690.82127   -8912.3857    0.1537393 
   50200    298.15801    454.65331    25695.634   -8262.2865    710.11317   -8972.3997   0.14001872 
   50400    304.29743    92.845717    25763.095   -8253.9963    724.73523   -8978.7315    0.1374587 
   50600    292.69755   -409.48487    25900.778   -8262.0351    697.10817   -8959.1432   0.12876989 
   50800    275.07378   -91.428841    25777.831   -8264.8307    655.13421   -8919.9649   0.15910454 
   51000    294.68791    572.88464    25657.429   -8234.9558    701.84853   -8936.8043   0.15096862 
   51200    296.32032   -105.63347    25825.847   -8241.3125     705.7364   -8947.0489   0.14165371 
   51400    306.89961   -480.04016    25906.979   -8231.5772    730.93276     -8962.51   0.14082232 
   51600     303.1058    314.56278     25721.59   -8237.5048    721.89716   -8959.4019   0.15614163 
   51800    297.96545    420.67132        25690   -8222.9832    709.65455   -8932.6378   0.14838736 
   52000     293.7723   -361.65582    25907.883   -8210.0418    699.66786   -8909.7097    0.1439019 
   52200    288.05493   -510.26937    25906.855   -8218.8695    686.05099   -8904.9205   0.15297541 
   52400     309.6833    605.74868    25673.085     -8221.61    737.56257   -8959.1726   0.14934518 
   52600    304.46454    326.03769    25720.095   -8222.1706    725.13322   -8947.3038   0.13577639 
   52800    294.61089   -586.58917    25937.982   -8226.7743     701.6651   -8928.4394   0.14988309 
   53000    292.97442   -238.01504     25835.21    -8226.408    697.76758   -8924.1756   0.15989267 
   53200    298.60329    723.28979     25649.69   -8228.5857    711.17366   -8939.7594   0.14717306 
   53400    289.73296   -83.398181    25812.308   -8252.6174    690.04749   -8942.6649   0.14323599 
   53600    289.61934   -658.58907     25938.49   -8253.5317    689.77689   -8943.3086   0.15445025 
   53800    294.30444    362.82985    25725.438   -8266.1594    700.93523   -8967.0947    0.1320133 
   54000    280.65455    666.46474    25652.522   -8263.2761    668.42574   -8931.7018   0.14102406 
   54200    288.48563   -472.16611    25884.363   -8264.8728    687.07676   -8951.9495   0.14327965 
   54400    294.49858   -467.49703     25887.17   -8280.9104    701.39761   -8982.3081   0.14112793 
   54600    298.77761    613.92387      25655.6   -8271.9342    711.58883    -8983.523   0.12953397 
   54800    285.30698    257.71701    25729.185   -8255.4975    679.50628   -8935.0038   0.14522313 
   55000    283.87076   -653.52609    25949.068   -8252.8082     676.0857   -8928.8939   0.15232913 
   55200    283.53656    -175.2914    25822.287   -8274.2206    675.28974   -8949.5103   0.13927715 
   55400    285.68227    801.33014    25625.376   -8274.5885    680.40009   -8954.9885   0.13397406 
   55600    281.62562   -106.40329    25789.722   -8281.8691     670.7385   -8952.6076   0.14955322 
   55800    276.83958   -662.72726    25923.852   -8273.9698    659.33975   -8933.3095   0.14809062 
   56000    292.49415    201.97779    25743.848   -8266.5953    696.62373    -8963.219   0.14533846 
   56200    286.59147    399.92188    25661.859   -8275.9336    682.56551   -8958.4991   0.15804695 
   56400    300.48933   -264.25813    25841.347    -8274.328    715.66558   -8989.9935   0.14659802 
   56600    290.91344   -367.34165    25876.141   -8270.0522    692.85901   -8962.9112   0.13818464 
   56800     300.7803    263.97636     25717.97   -8251.8336    716.35859   -8968.1922     0.149257 
   57000    302.06647    215.05543     25740.39    -8240.017    719.42182   -8959.4388   0.14265003 
   57200    288.05712   -367.36979    25871.165   -8258.7214     686.0562   -8944.7776   0.14332945 
   57400    299.12807   -117.41293    25819.189   -8267.6205    712.42352    -8980.044   0.12961613 
   57600    295.04949    276.58991    25723.305   -8248.7535     702.7097   -8951.4631   0.14816943 
   57800    287.77045   -5.7512978    25799.045   -8252.7689    685.37346   -8938.1424   0.13646545 
   58000    290.22524   -339.35828     25859.72    -8248.997    691.21995   -8940.2169    0.1463351 
   58200    303.79777    72.825968    25773.556   -8266.0584    723.54519   -8989.6036   0.13574835 
   58400     279.7156    258.91892    25722.266   -8269.6707    666.18948   -8935.8602   0.14422513 
   58600    288.13146   -48.469309    25817.881   -8257.5339    686.23325   -8943.7672   0.13291563 
   58800    277.90236   -346.26997    25855.806   -8275.3421    661.87094    -8937.213   0.14706726 
   59000    278.33327     222.9527    25749.658   -8280.1221    662.89723   -8943.0193    0.1320509 
   59200    283.71333    210.80874     25726.75   -8288.3705    675.71073   -8964.0812   0.14224895 
   59400    283.17586   -181.77971    25821.408    -8283.349    674.43067   -8957.7797   0.13631271 
   59600    279.07168   -279.97172    25822.675   -8280.5797    664.65587   -8945.2356   0.15002472 
   59800      285.709    254.22775    25727.401   -8270.0113    680.46375   -8950.4751   0.13753574 
   60000    278.24288    118.50396     25753.46     -8264.13    662.68195   -8926.8119    0.1460871 
   60200    299.36979   -225.34754    25844.307   -8242.6544    712.99921   -8955.6536   0.14120995 
   60400    295.83364   -13.628983    25800.851   -8235.6392    704.57728   -8940.2165   0.14497602 
   60600    291.45604    135.59847    25736.898   -8251.8353    694.15131   -8945.9866   0.14126568 
   60800    295.34226   -55.740192    25791.873   -8222.6948    703.40699   -8926.1018   0.15353513 
   61000    297.70806   -168.06622     25834.17   -8236.7423    709.04152   -8945.7838   0.13878085 
   61200    296.92392    136.26504    25753.434   -8245.2743    707.17396   -8952.4482   0.13971236 
   61400    286.62257    224.44872    25730.755    -8247.012    682.63959   -8929.6516   0.14462746 
   61600    292.26395    -196.0602    25810.905   -8236.4258    696.07547   -8932.5013   0.15229107 
   61800    301.91538   -53.266494    25826.676   -8230.5791    719.06197    -8949.641   0.13127433 
   62000    295.58153    124.63131    25764.706    -8234.324    703.97684   -8938.3008   0.13908163 
   62200    308.51852    183.85304    25770.765   -8234.7317    734.78844   -8969.5202   0.13459062 
   62400    296.10075   -199.62385    25843.512   -8221.1089    705.21344   -8926.3223   0.14688282 
   62600    299.83738   -104.83088    25827.915   -8234.3764    714.11285   -8948.4892   0.13740581 
   62800    298.54209    367.90074    25741.195   -8226.2576    711.02792   -8937.2855   0.14479175 
   63000    288.99771    12.906272    25797.195   -8199.8029    688.29637   -8888.0993   0.15607919 
   63200    302.18561   -373.23987    25906.484   -8209.8466    719.70557   -8929.5522   0.14252335 
   63400    292.09232   -85.076104    25823.912   -8196.6294    695.66671   -8892.2961   0.14847793 
   63600    315.84079     518.9378    25712.732   -8186.5213    752.22765   -8938.7489   0.14087409 
   63800     302.0934   -130.76347    25835.031   -8206.7745    719.48595   -8926.2604    0.1381847 
   64000    303.93232   -488.20286    25932.192   -8205.0605    723.86565   -8928.9261   0.13659742 
   64200    306.34567    232.18273    25762.632   -8208.7541    729.61344   -8938.3675   0.14164874 
   64400    292.91824    526.31555    25683.299   -8205.6806    697.63377   -8903.3143   0.15131464 
   64600    314.69496   -319.21358    25904.061   -8229.4967    749.49868   -8978.9954   0.12887216 
   64800    282.04389   -548.00257    25925.939   -8233.7757    671.73468   -8905.5104   0.14332441 
   65000    285.63845    590.76377     25667.04   -8228.6182    680.29574    -8908.914   0.14531433 
   65200    288.42577    356.48384    25716.986   -8241.6027     686.9342   -8928.5369   0.13837815 
   65400    288.97465   -758.06831    25979.865   -8246.6634    688.24146   -8934.9048   0.13528527 
   65600    284.46039   -247.66864    25852.211   -8261.1401       677.49   -8938.6301   0.14168406 
   65800    279.56002    852.19691    25602.842   -8261.2676    665.81893   -8927.0865   0.13829317 
   66000    292.82178    21.116268    25786.087   -8253.5804    697.40403   -8950.9844   0.14418558 
   66200     279.9397   -1000.1744    26004.501   -8269.3547    666.72322   -8936.0779   0.15242712 
   66400    290.30861   -9.1766998    25767.546   -8260.7023     691.4185   -8952.1208   0.15430148 
   66600    282.57559    781.34278    25597.709   -8282.2481    673.00101   -8955.2491   0.14016529 
   66800    294.01749   -353.36441    25854.737    -8274.389    700.25182   -8974.6408     0.145687 
   67000    299.33155   -725.25747    25964.405   -8257.0292    712.90815   -8969.9373   0.14747537 
   67200    289.31537    470.48072    25701.291   -8269.9406    689.05294   -8958.9935   0.13585852 
   67400    305.34671    661.60453    25655.316   -8280.0211    727.23425   -9007.2554   0.12127889 
   67600    291.10171   -600.01155    25908.072   -8270.5294    693.30741   -8963.8369   0.15053608 
   67800    284.27012   -385.70546      25880.9   -8257.9488    677.03684   -8934.9857   0.14113426 
   68000    290.58557    711.68436    25641.658   -8243.9094    692.07813   -8935.9876   0.14055948 
   68200    299.31119    221.31891    25722.715    -8258.381    712.85965   -8971.2407   0.14248996 
   68400    291.52535   -630.04124    25921.171   -8258.9697    694.31638    -8953.286   0.14640468 
   68600    291.21542   -38.165941    25800.963   -8253.9476    693.57821   -8947.5259   0.13504846 
   68800    303.69945    567.02026    25654.427   -8236.0318    723.31102   -8959.3428   0.14692458 
   69000    284.93725   -132.80787    25809.229   -8249.6757     678.6257   -8928.3015   0.15026789 
   69200    289.61047   -540.22458    25900.674   -8251.9223    689.75576    -8941.678   0.14471295 
   69400    293.20235    91.141305    25739.606   -8246.6331    698.31044   -8944.9435    0.1459201 
   69600    287.63256     377.6952    25696.032   -8273.0301    685.04505   -8958.0752   0.14965978 
   69800    290.04467   -264.63155    25857.324   -8250.5831    690.78988    -8941.373   0.13833587 
   70000    295.57446   -300.47414    25865.429   -8249.5197    703.96001   -8953.4797   0.13923185 
   70200    287.48343    315.52569    25713.291   -8248.8194    684.68985   -8933.5093   0.15601594 
   70400    294.42583    207.11694    25744.725   -8249.9335    701.22436   -8951.1578   0.14476534 
   70600    298.44376   -346.68401    25877.514   -8249.6043    710.79373    -8960.398   0.12770991 
   70800     293.5812   -73.746334    25814.332   -8251.2434    699.21273   -8950.4561   0.14403043 
   71000    292.61805    416.39871    25705.696   -8274.8326    696.91883   -8971.7514   0.13652207 
   71200    293.72475    -12.57753    25787.641   -8268.5791    699.55462   -8968.1338   0.13236708 
   71400    291.97776    -227.4707    25881.292   -8253.4669    695.39386   -8948.8608   0.12490492 
   71600    298.69965    22.050563    25787.311   -8240.4498    711.40317    -8951.853   0.14398703 
   71800    287.37762    383.68673    25703.026   -8254.7215    684.43786   -8939.1594   0.13434752 
   72000    292.29504   -150.35077    25814.628   -8259.8786    696.14953   -8956.0282   0.14018707 
   72200    282.28244   -412.67838    25864.299   -8278.8134    672.30285   -8951.1162   0.14692867 
   72400    281.46052    214.97554    25732.377   -8281.6486     670.3453   -8951.9939    0.1499787 
   72600    308.67367    288.82861    25728.164   -8271.1042    735.15797   -9006.2622    0.1254417 
   72800    277.24159   -347.82281     25862.07   -8302.6092    660.29721   -8962.9064   0.15253025 
   73000    271.15668   -236.59083    25815.898   -8294.4564    645.80497   -8940.2614   0.14603785 
   73200    279.31342    354.33299    25693.853   -8300.6723    665.23162   -8965.9039   0.14130188 
   73400    283.78412    60.450892    25759.557   -8302.0576    675.87933    -8977.937   0.13979245 
   73600    278.48728   -336.80636    25848.244   -8293.1736    663.26402   -8956.4376   0.15578838 
   73800    289.21051    60.718031    25769.394   -8295.0255    688.80319   -8983.8286   0.12762669 
   74000    288.01766    286.45151     25706.61     -8312.54    685.96222   -8998.5022   0.14049206 
   74200    273.89261   -85.329994    25794.811   -8320.6895    652.32106   -8973.0105   0.13707406 
   74400    279.94849   -304.26116    25832.079   -8308.2191    666.74414   -8974.9633   0.14778778 
   74600    281.29633    186.50717    25737.357   -8314.3298    669.95426    -8984.284   0.12290523 
   74800    280.49931    196.11439    25727.876   -8311.1866    668.05602   -8979.2426   0.14426809 
   75000    288.15705   -230.23438    25829.421   -8297.1871     686.2942   -8983.4813   0.14258235 
   75200    281.14777   -246.45439    25829.447   -8276.7402    669.60043   -8946.3406    0.1491483 
   75400    286.24363    217.77811    25743.366   -8279.7986    681.73708   -8961.5357   0.13232685 
   75600    291.69099    143.03706    25756.948   -8264.2464    694.71087   -8958.9573   0.15303385 
   75800    285.99259   -146.08386    25832.214   -8266.8314    681.13919   -8947.9706   0.13357787 
   76000    299.91229   -76.357191    25802.166   -8258.7243    714.29128   -8973.0155   0.14623153 
   76200    290.94455    274.17214    25727.753    -8260.696    692.93311   -8953.6291   0.14594177 
   76400    292.97097   -125.52789    25793.719   -8247.3082    697.75936   -8945.0676   0.15833885 
   76600    291.26619   -151.19542     25848.43     -8247.18    693.69915   -8940.8791   0.13165243 
   76800      290.754    53.402776    25770.451   -8248.5932    692.47928   -8941.0724   0.15500253 
   77000     300.7302     294.6432    25734.894    -8244.916    716.23926   -8961.1552   0.13834747 
   77200    284.87208   -222.92016    25831.938    -8262.087     678.4705   -8940.5575   0.14767426 
   77400    289.41852   -149.84351    25829.085   -8257.8597    689.29861   -8947.1583    0.1374965 
   77600    294.08962    317.41716     25724.81   -8267.8814    700.42362   -8968.3051   0.14688227 
   77800    290.20697    114.29145    25771.694   -8271.7953    691.17643   -8962.9717   0.13647624 
   78000    282.86577   -374.10081     25878.77   -8266.9622    673.69213   -8940.6544   0.14745167 
   78200    285.82837   -86.344842    25804.213   -8265.6169    680.74806    -8946.365   0.14966528 
   78400    290.58448    304.25324    25705.867   -8277.2532    692.07553   -8969.3288   0.14398477 
   78600     290.1667   -52.344486     25792.29   -8285.2686    691.08052   -8976.3492   0.14122758 
   78800    292.94535   -330.74822    25863.856   -8279.1761    697.69833   -8976.8744   0.15031148 
   79000    298.55138    225.19308     25750.84   -8276.2504    711.05005   -8987.3004   0.13121955 
   79200    282.39096    386.25024    25706.193   -8281.1528    672.56129   -8953.7141   0.13525637 
   79400    290.48676   -308.97745    25854.363   -8267.4748    691.84281   -8959.3176   0.13888329 
   79600    285.75129   -271.45253    25871.413   -8253.4545    680.56449    -8934.019   0.14338628 
   79800    298.20393    399.92038    25710.719   -8271.6188    710.22252   -8981.8413    0.1272221 
   80000    288.34978    332.44885    25731.086   -8256.9951    686.75322   -8943.7483   0.14246061 
   80200    299.41487   -517.03589    25926.315    -8242.976    713.10658   -8956.0825   0.14364856 
   80400    295.89373   -282.71129    25852.763   -8233.7797     704.7204   -8938.5001   0.14717783 
   80600    296.66847    686.97745    25647.367   -8242.4138    706.56557   -8948.9794   0.13889642 
   80800    292.67119    48.364624    25798.001   -8223.7151    697.04537   -8920.7604   0.15617652 
   81000    294.39028   -793.75232    25995.837   -8234.8695    701.13968   -8936.0092   0.13944722 
   81200     301.6864    166.22064    25783.179   -8230.8977    718.51661   -8949.4143   0.13987943 
   81400     299.7699    826.35381    25611.648   -8220.2683    713.95215   -8934.2204   0.14686396 
   81600    309.22179   -232.76061    25880.356   -8222.0879     736.4634   -8958.5513   0.14564527 
   81800    301.04598   -790.83459    26002.477   -8223.1783    716.99135   -8940.1697   0.13148756 
   82000    283.35713    492.03492     25701.95   -8213.4603    674.86238   -8888.3227    0.1492894 
   82200    293.81734    711.70672    25662.992   -8223.7301    699.77514   -8923.5052   0.14588551 
   82400    286.46669   -764.05637    25976.524   -8222.4532    682.26833   -8904.7215    0.1493495 
   82600    300.04587   -437.23671    25934.256   -8231.7609    714.60941   -8946.3703   0.12955607 
   82800    293.02445     737.3068    25634.147   -8247.7705    697.88673   -8945.6573   0.14973782 
   83000    303.60413    312.52662    25746.178   -8249.8559    723.08402   -8972.9399   0.13732505 
   83200    304.49216   -841.89422    26004.507   -8256.3724      725.199   -8981.5714   0.12306189 
   83400    286.57921   -133.58329    25826.446   -8275.0868    682.53632   -8957.6232   0.14542364 
   83600    293.34778    845.66241    25612.357   -8301.1855    698.65679   -8999.8423   0.13045673 
   83800    282.54458   -87.283747    25803.069    -8285.495    672.92716   -8958.4222   0.13520322 
   84000    277.02465   -656.06461    25945.198   -8296.5076    659.78052   -8956.2882   0.13503075 
   84200    287.61718    214.43225    25739.658   -8281.9625     685.0084   -8966.9709   0.14740705 
   84400    293.12905    602.60183     25660.52   -8290.6544    698.13585   -8988.7903   0.12651589 
   84600    274.62074   -293.48698     25847.45   -8289.3666    654.05522   -8943.4218   0.13515946 
   84800    283.68428   -356.80012    25871.124   -8280.5402    675.64155   -8956.1818   0.14337489 
   85000    288.50898    347.89731    25705.433   -8257.4514    687.13238   -8944.5838   0.14556989 
   85200    299.69609    384.27106     25727.48    -8255.926    713.77635   -8969.7023   0.12828567 
   85400    287.52094   -351.36485    25887.972   -8245.1198    684.77921    -8929.899    0.1443246 
   85600    282.51366    -230.2863    25845.607   -8260.8242    672.85352   -8933.6777   0.14776187 
   85800    296.98428    443.90199    25702.885   -8267.0568    707.31772   -8974.3745   0.12574116 
   86000    296.36591    123.99947    25762.246   -8244.7015    705.84499   -8950.5465   0.14186603 
   86200    301.40534   -355.56334    25892.157   -8238.0593    717.84723   -8955.9066   0.14087015 
   86400    303.59472   -99.111393    25825.545   -8242.0106    723.06159   -8965.0721   0.13441241 
   86600    303.45771    429.29002    25715.971   -8241.8612    722.73528   -8964.5965   0.12270056 
   86800     294.3636   -12.216199    25796.708    -8251.067    701.07615   -8952.1431   0.15281027 
   87000    298.88478   -305.33836    25870.862   -8274.2283    711.84408   -8986.0724   0.12978078 
   87200    287.56547    142.96834    25761.705   -8270.3516    684.88525   -8955.2368   0.13532128 
   87400    292.33064    267.64174    25730.767   -8259.1488    696.23432   -8955.3832   0.14796044 
   87600    281.10716   -287.45647    25853.987   -8264.4823    669.50371    -8933.986   0.15715065 
   87800     302.0806   -222.53701    25846.097   -8265.0148    719.45548   -8984.4703   0.12803661 
   88000    288.15364    323.46981    25718.574   -8262.6721    686.28608   -8948.9582   0.14599658 
   88200    279.63978    172.28933    25766.028   -8260.0376     666.0089   -8926.0465    0.1534347 
   88400    290.61884   -378.08882    25891.738   -8254.2324    692.15736   -8946.3898   0.13427048 
   88600    301.30408    7.7523706    25806.139   -8255.8604    717.60606   -8973.4665   0.13125142 
   88800    293.09985    510.14276    25697.524   -8251.3292    698.06632   -8949.3955   0.14839179 
   89000    282.00278   -31.588746    25811.951   -8256.3167    671.63679   -8927.9535    0.1424378 
   89200    308.90887   -348.45002    25888.669   -8240.5408    735.71814   -8976.2589   0.13270589 
   89400    294.03348    154.50022    25765.003   -8229.4899    700.28991   -8929.7798   0.15389203 
   89600    310.03368    319.87388    25731.741   -8224.6549    738.39705    -8963.052   0.14464516 
   89800    291.82622   -371.21601    25861.062   -8250.1126    695.03293   -8945.1455   0.13841398 
   90000    295.54036   -170.82421    25849.123   -8229.0199     703.8788   -8932.8987   0.14249442 
   90200    290.74144    356.79212    25729.843   -8251.7252    692.44935   -8944.1746   0.14539719 
   90400    292.70693    100.29843    25766.874   -8262.5267    697.13051   -8959.6572   0.13338526 
   90600    289.43228   -291.51557     25863.02   -8262.5938    689.33137   -8951.9252   0.13563393 
   90800    286.99021   -169.64065    25798.273   -8263.1998    683.51517   -8946.7149   0.15358488 
   91000    291.55881    390.83697    25709.943   -8266.7477    694.39606   -8961.1438   0.13782512 
   91200    293.29763   -49.427855    25810.555   -8262.3945    698.53736   -8960.9319   0.13501978 
   91400    291.14806   -469.23416     25884.45   -8265.3781    693.41778   -8958.7959   0.14954016 
   91600    290.00484    118.36181      25754.3   -8264.5396    690.69502   -8955.2346   0.14641856 
   91800    294.51917    362.02572    25708.575   -8264.5779    701.44664   -8966.0246   0.13681726 
   92000    286.63547   -246.94754    25860.191   -8263.8262     682.6703   -8946.4965   0.13880391 
   92200    279.70334   -401.89963    25871.835    -8282.293    666.16028   -8948.4533   0.14612641 
   92400    280.95364    395.07919    25707.154   -8256.2487    669.13808   -8925.3868   0.13831871 
   92600    300.84452    320.96946    25737.591   -8277.1151    716.51154   -8993.6267   0.12640381 
   92800    292.32205   -459.71159    25909.706   -8259.0662    696.21386     -8955.28   0.14541282 
   93000    293.03384   -194.78418     25838.99   -8242.2406    697.90909   -8940.1496    0.1413142 
   93200    304.16706    444.51724    25679.805    -8238.891    724.42472   -8963.3158   0.13561129 
   93400    299.27565    17.885023    25791.629   -8239.1606      712.775   -8951.9356   0.14701317 
   93600    295.33428   -629.96485    25938.985   -8227.9063    703.38797   -8931.2943   0.14882997 
   93800    294.37082    66.000592    25779.435   -8221.8092    701.09334   -8922.9026     0.137921 
   94000    294.47574    608.82594    25662.895   -8223.8235    701.34321   -8925.1667   0.14804883 
   94200    288.58746   -379.22651    25855.127   -8266.5049    687.31931   -8953.8242   0.14280048 
   94400    283.65892   -431.91417    25910.231   -8256.8602    675.58115   -8932.4414   0.13666583 
   94600     291.2102     433.4172    25686.375    -8282.511     693.5658   -8976.0768   0.14036631 
   94800    277.31234    424.23905    25678.887   -8291.3782    660.46572   -8951.8439   0.14824516 
   95000    282.29637   -598.34847    25923.598   -8294.5214    672.33601   -8966.8574    0.1434521 
   95200    282.92121    -390.4648    25869.036   -8303.5173    673.82418   -8977.3415   0.12805369 
   95400    279.16429     717.4915      25625.5   -8316.7846    664.87644   -8981.6611   0.13352842 
   95600    288.87553    183.09105    25742.383   -8300.2982    688.00537   -8988.3036   0.13880488 
   95800    288.83192   -720.91466    25981.403   -8295.9843    687.90151   -8983.8858   0.12697435 
   96000    281.95186    -41.52445    25804.892   -8286.4851    671.51551   -8958.0006   0.13787626 
   96200    297.14796    797.02815    25611.627   -8285.4835    707.70756   -8993.1911   0.13622548 
   96400     289.7858   -128.80098    25822.377   -8287.7726    690.17335    -8977.946    0.1247124 
   96600    288.16261   -694.46078    25967.263   -8272.9843    686.30743   -8959.2917   0.13607012 
   96800    280.70366     195.7075    25735.686   -8300.3909    668.54272   -8968.9336   0.13888351 
   97000    285.59275    558.63301    25641.873   -8304.5621    680.18689    -8984.749   0.13647635 
   97200    278.28164   -399.34009    25884.988   -8296.2791    662.77427   -8959.0534   0.12716596 
   97400    294.97538   -569.15032    25918.099   -8280.2727     702.5332   -8982.8059   0.13335186 
   97600     295.7795    579.67162    25680.669   -8261.2655    704.44834   -8965.7138   0.13344496 
   97800    292.85477    242.73822    25719.842   -8253.4944     697.4826    -8950.977   0.14220551 
   98000    286.24049   -527.85058    25942.918   -8252.9265     681.7296   -8934.6561   0.13382245 
   98200    294.84267   -256.75144    25858.515   -8258.2569    702.21712    -8960.474    0.1427173 
   98400    301.38873    664.89342    25670.054   -8234.2476    717.80767   -8952.0553   0.13210716 
   98600    292.12515    7.2864206    25800.055   -8256.1279     695.7449   -8951.8728   0.13295828 
   98800    294.54607     -636.622    25956.245   -8241.7765    701.51072   -8943.2872   0.13775737 
   99000    291.22925     173.1814    25792.462   -8243.0422    693.61117   -8936.6533   0.12837814 
   99200    287.19145    589.14026    25668.645   -8264.4055    683.99446      -8948.4   0.13044924 
   99400    288.14606   -181.39343    25851.195   -8308.5092    686.26804   -8994.7772   0.12305344 
   99600    281.35382   -535.65631    25916.364   -8311.9331    670.09118   -8982.0243    0.1285313 
   99800    281.94129     375.4141    25715.879   -8299.5644    671.49034   -8971.0548   0.12863965 
  100000    287.46548    404.99227    25697.037   -8305.0735    684.64712   -8989.7206   0.12335763 
  100200    284.86591   -419.50206    25888.296   -8281.6395    678.45581   -8960.0953   0.13145017 
  100400    284.97497    -267.6794     25859.88   -8277.2793    678.71554   -8955.9949   0.13352217 
  100600    287.75499    520.88329    25679.191   -8261.4027    685.33663   -8946.7393   0.13070381 
  100800    295.24145     267.0232    25738.492   -8270.6257    703.16688   -8973.7925   0.13390059 
  101000    292.53043    -453.9133    25901.613   -8260.2081    696.71015   -8956.9182   0.13620225 
  101200    286.36102   -122.87333     25812.96   -8253.8625    682.01665   -8935.8792    0.1375646 
  101400    291.58415    505.70491    25670.271   -8262.9554    694.45643   -8957.4119   0.14230048 
  101600    280.05315   -4.9902712    25778.302    -8276.051    666.99342   -8943.0444   0.13706627 
  101800    291.10594    -496.8407    25892.038   -8265.1483    693.31749   -8958.4657   0.13937751 
  102000    287.38622     138.2438    25750.734   -8262.8656    684.45835   -8947.3239   0.13870267 
  102200    281.56074    495.91379    25672.005    -8258.479      670.584    -8929.063   0.14042107 
  102400    284.16149   -320.91919     25848.97   -8241.7872    676.77812   -8918.5653   0.14038878 
  102600    289.97554   -414.26627    25892.167   -8245.9379    690.62525   -8936.5632   0.13473225 
  102800    298.48005    357.58998    25701.213   -8249.9433    710.88016   -8960.8234   0.13887625 
  103000    282.60133    397.20279    25705.574    -8256.518    673.06232   -8929.5803   0.14387111 
  103200    292.71632   -481.80453    25910.943   -8247.6034    697.15288   -8944.7563   0.12939269 
  103400     290.5432   -318.07615    25855.797    -8260.228    691.97722   -8952.2052   0.14024986 
  103600    295.22416    607.71889    25646.107   -8267.1021    703.12571   -8970.2278   0.13656117 
  103800    290.19657    109.00074    25753.378   -8261.6313    691.15166   -8952.7829   0.13272408 
  104000    282.15996   -622.37809    25929.109   -8264.7572    672.01114   -8936.7684   0.13381488 
  104200    288.58634    81.637106     25786.61   -8274.8281    687.31663   -8962.1447   0.12930717 
  104400    284.60869    587.17039    25638.945   -8277.3824    677.84319   -8955.2256   0.13733742 
  104600    296.24387   -96.801823    25800.994   -8279.6793    705.55432   -8985.2336   0.13279061 
  104800    281.95943    -597.2828    25908.517   -8267.0813    671.53355   -8938.6148   0.14177887 
  105000     288.7576    261.55063    25724.895   -8270.6585    687.72451    -8958.383   0.13863235 
  105200    287.25996    544.07366    25669.345   -8273.0365    684.15764   -8957.1941   0.13364186 
  105400    284.68082   -392.12737    25879.201   -8260.8441    678.01499   -8938.8591   0.13859291 
  105600    284.76818   -440.35915     25895.53   -8264.1918    678.22304   -8942.4149   0.13720152 
  105800    287.83281    505.72144    25680.085    -8265.911    685.52197   -8951.4329   0.13214216 
  106000    293.88642      367.562    25710.933    -8254.587    699.93965   -8954.5266   0.13079287 
  106200    293.99629   -551.00014    25931.965   -8233.2931    700.20133   -8933.4944   0.13438243 
  106400    302.73026   -268.54886     25860.44   -8252.8368    721.00274   -8973.8396    0.1274869 
  106600    285.47557    668.72442    25654.436    -8266.049    679.90782   -8945.9569   0.13099686 
  106800     287.4685    73.951693    25769.611   -8271.7721    684.65431   -8956.4265   0.13322379 
  107000    280.21115   -816.67522     25961.65   -8253.6886    667.36972   -8921.0583   0.14382518 
  107200    294.39408   -57.133151     25795.94   -8249.7173    701.14873    -8950.866   0.13907634 
  107400     289.3013    729.29177    25647.041   -8256.4102    689.01944   -8945.4296   0.13217846 
  107600    296.10787   -359.13651    25866.207   -8237.8589    705.23041   -8943.0893   0.13830313 
  107800    287.65817   -713.41313    25962.477   -8252.0359    685.10604   -8937.1419   0.13538072 
  108000     300.0929    411.21696    25697.252   -8252.5557    714.72141   -8967.2771   0.13515749 
  108200    293.51963    636.56146    25654.372   -8267.9798    699.06608   -8967.0459   0.13004614 
  108400     296.3996   -582.78669    25929.647   -8257.6759    705.92522   -8963.6011   0.12801743 
  108600     293.5706   -474.94135    25917.591   -8250.5283    699.18749   -8949.7158   0.12972759 
  108800    293.38606    774.23555    25643.433   -8253.1726    698.74795   -8951.9205   0.12816846 
  109000    288.16661     365.6025    25726.124   -8271.4522    686.31696   -8957.7691   0.12921504 
  109200    287.12696   -795.27042    25984.447   -8275.5103    683.84088   -8959.3512   0.13196383 
  109400     296.4469   -64.975836    25827.998   -8278.0935    706.03787   -8984.1314    0.1213582 
  109600    283.18908    797.65005    25609.066   -8255.5502    674.46215   -8930.0124   0.14171626 
  109800    283.13877   -70.309743    25816.961   -8275.3183    674.34234   -8949.6607    0.1323623 
  110000    286.98945   -845.25277    25993.681   -8242.8685    683.51338   -8926.3819     0.143327 
  110200    296.87423    203.01122    25770.222   -8238.6575    707.05562   -8945.7132   0.13247155 
  110400    292.61956    636.69163    25652.641   -8253.9011    696.92242   -8950.8235   0.13741688 
  110600    287.06372   -356.92319    25866.621   -8272.6685    683.69027   -8956.3587   0.13493987 
  110800    288.24115   -607.76187    25911.869   -8274.7268    686.49449   -8961.2213   0.14321877 
  111000    295.52368    455.91896    25697.366   -8272.6532    703.83907   -8976.4923   0.12434898 
  111200     292.1413    395.77918    25700.038   -8270.5832    695.78336   -8966.3666   0.13129289 
  111400    283.56872   -422.78414    25894.961    -8289.375    675.36632   -8964.7413   0.13942821 
  111600     275.5177   -241.73549    25844.708   -8301.3502    656.19149   -8957.5417    0.1327758 
  111800    290.11531    507.03566    25682.458   -8304.3877    690.95812   -8995.3458   0.12594531 
  112000    271.53492    108.96728    25760.322   -8316.2845    646.70581   -8962.9903   0.13510481 
  112200    294.16202   -335.23818    25870.691    -8307.358    700.59604    -9007.954   0.12919304 
  112400    273.90343    37.590197    25768.329   -8299.8408    652.34682   -8952.1877   0.12911122 
  112600    291.59487    406.65615    25694.974   -8291.1529    694.48196   -8985.6349   0.13126172 
  112800    280.57449   -70.962819    25796.324   -8296.5448    668.23507   -8964.7798   0.13640375 
  113000     282.6521   -313.71355    25840.172   -8287.6794    673.18324   -8960.8626   0.13499528 
  113200    279.93033    67.425061    25732.463   -8305.9762     666.7009   -8972.6771   0.13240265 
  113400    291.43804    300.62758    25702.935   -8284.4106    694.10844   -8978.5191   0.14022723 
  113600    288.34167   -253.77929    25806.033   -8286.9937    686.73391   -8973.7276   0.14137832 
  113800    289.13639   -182.16253    25818.252   -8276.1339    688.62665   -8964.7605   0.13560203 
  114000    283.98123    91.069811    25733.766   -8276.1589     676.3488   -8952.5077   0.14395556 
  114200    282.62295    108.16596    25741.488   -8284.7811    673.11383   -8957.8949   0.13573474 
  114400    298.08074   -140.52968    25822.027   -8262.1806    709.92914   -8972.1098   0.12319031 
  114600    288.44337   -26.650876     25813.89   -8253.5796    686.97611   -8940.5558   0.13312053 
  114800    292.73237    94.256654     25755.11   -8246.2875    697.19109   -8943.4786   0.14350388 
  115000      292.597   -2.0295279    25779.866   -8253.7682     696.8687   -8950.6369   0.13854313 
  115200    285.61623   -251.06237    25832.574   -8264.3869    680.24281   -8944.6298   0.13706976 
  115400    284.60395   -20.472378    25789.479   -8268.3876    677.83191   -8946.2195   0.13982217 
  115600    293.44284     198.4567    25744.282   -8256.1786    698.88319   -8955.0618   0.12981094 
  115800     298.3088    -43.33914    25809.429   -8259.8964    710.47229   -8970.3687     0.126153 
  116000    291.51633    -201.7902    25844.819   -8255.5044     694.2949   -8949.7993    0.1337913 
  116200    294.77451     52.60744    25790.908   -8264.6717    702.05479   -8966.7265   0.12911917 
  116400    298.14211    131.56569    25757.141    -8280.366    710.07529   -8990.4413   0.12867375 
  116600    282.99399   -108.63292    25795.413   -8292.6812    673.99752   -8966.6787   0.13747553 
  116800    279.51772   -85.557681    25810.188   -8275.2738    665.71819    -8940.992   0.13947195 
  117000    289.28119   -16.578273    25773.409   -8272.3403    688.97153   -8961.3119   0.14359833 
  117200    288.40901    88.032245    25767.909   -8262.4806    686.89428   -8949.3748    0.1351299 
  117400    291.06264   -70.216783    25802.774   -8273.9223    693.21436   -8967.1367   0.13785786 
  117600    284.80268   -141.23096    25805.406   -8276.3132     678.3052   -8954.6184   0.14378461 
  117800    294.60776    117.57368    25773.091   -8256.2602    701.65764   -8957.9179   0.12782104 
  118000    295.85541     31.28191    25785.761   -8251.8483    704.62913   -8956.4774   0.13773106 
  118200     290.4224   -74.277984    25809.571   -8248.6577    691.68952   -8940.3473   0.13901035 
  118400     301.1086     19.18654    25782.352   -8274.4385    717.14049    -8991.579   0.13473384 
  118600    293.77849    90.687715    25758.003   -8284.8262    699.68259   -8984.5088   0.13687068 
  118800    296.08349   -15.080668    25781.823   -8295.7085    705.17234   -9000.8808   0.13315551 
  119000    287.88077   -127.90257    25795.886   -8292.6477    685.63619   -8978.2838   0.14101917 
  119200    286.13354    54.106192    25765.102   -8283.3574    681.47488   -8964.8322   0.13615788 
  119400    279.72595    70.995222     25762.45   -8307.2925    666.21412   -8973.5066   0.13385614 
  119600    283.93326   -73.444429     25795.33   -8280.4055    676.23454     -8956.64    0.1425215 
  119800    292.21821    -70.42782    25792.747    -8275.226    695.96653   -8971.1926    0.1451265 
  120000     280.7139    140.06757    25755.798   -8285.9656     668.5671   -8954.5327   0.13867459 
  120200    281.35592    138.01825    25756.715   -8282.3372    670.09617   -8952.4334   0.14653193 
  120400    299.20582   -95.167492    25810.031   -8282.4353    712.60869    -8995.044    0.1367237 
  120600    285.86695   -74.944443    25808.939   -8286.4529    680.83995   -8967.2929   0.14147541 
  120800    280.80562    163.45213    25755.395   -8279.4212    668.78555   -8948.2067   0.13792825 
  121000    283.37613    100.46146      25774.7   -8273.2202    674.90764   -8948.1278   0.13927383 
  121200    289.12373   -133.19935    25838.098   -8271.2573    688.59652   -8959.8538   0.13732462 
  121400    282.73854   -13.026175    25809.221   -8272.6431    673.38912   -8946.0323     0.132643 
  121600    298.80658    288.36564    25734.401   -8263.3532    711.65784    -8975.011   0.13218773 
  121800    289.91919   -18.495704    25793.948    -8271.733    690.49104    -8962.224   0.14710928 
  122000    279.09276   -366.06854    25870.566    -8270.957    664.70609   -8935.6631   0.14457733 
  122200    291.56192    71.466832    25781.757   -8265.0291    694.40348   -8959.4326   0.13345387 
  122400    292.86751    331.36774    25720.218   -8252.5253    697.51295   -8950.0383   0.14250792 
  122600    297.36438   -158.29802    25844.365   -8212.3168    708.22299   -8920.5398   0.14292016 
  122800    306.90283   -392.26865    25897.504   -8223.6441    730.94042   -8954.5845    0.1403423 
  123000    294.55695    297.31534    25739.698   -8231.6976    701.53663   -8933.2343   0.13458048 
  123200    286.29827    228.22505    25716.287   -8257.1982    681.86721   -8939.0654   0.15457599 
  123400    289.68756   -354.77974    25873.601    -8279.083    689.93937   -8969.0224   0.13642176 
  123600    282.78867   -354.23461    25852.769   -8271.4897    673.50851   -8944.9982   0.14287489 
  123800    288.17966    425.29706    25678.406   -8263.5429    686.34804   -8949.8909   0.14862208 
  124000    291.99255    220.65927    25742.146   -8262.5861    695.42909   -8958.0152   0.14848023 
  124200    287.36769   -564.75744    25928.739   -8259.3914    684.41421   -8943.8056   0.13314137 
  124400    291.42121   -69.398375    25806.873   -8265.6796    694.06834   -8959.7479   0.14132541 
  124600    277.28467    634.13321    25622.664   -8260.9219    660.39981   -8921.3217   0.14692714 
  124800    292.84762   -62.673402    25815.827   -8270.0488    697.46558   -8967.5144   0.12574889 
  125000    286.69974   -789.28979     25977.23   -8267.8688    682.82337   -8950.6921   0.12854276 
  125200    285.12341    279.02991    25740.307   -8267.0835    679.06908   -8946.1526   0.14243853 
  125400    270.87049    601.70633    25619.496   -8289.0676    645.12337    -8934.191   0.15230477 
  125600    277.42685   -371.93023    25864.252   -8287.7929    660.73843   -8948.5313    0.1416927 
  125800    281.90658   -606.67061    25915.979   -8286.5785    671.40766   -8957.9862   0.14501148 
  126000    290.23314    482.88712    25658.561   -8278.5309    691.23875   -8969.7697   0.14437238 
  126200    290.93705     445.8778    25667.214   -8272.1351    692.91525   -8965.0503   0.13509732 
  126400    283.13688   -585.11564    25913.919   -8283.7709    674.33783   -8958.1087   0.14080572 
  126600    287.34416   -216.02706    25836.632   -8283.5489    684.35816   -8967.9071   0.13883513 
  126800    294.01631    690.43231    25627.636   -8274.6776      700.249   -8974.9266   0.13382178 
  127000     286.4963    59.864851    25767.887   -8289.7306    682.33884   -8972.0694   0.13510157 
  127200    281.38006   -749.81312    25934.988   -8300.0589    670.15368   -8970.2126   0.13906566 
  127400    273.50268    130.82402     25739.43   -8301.2657    651.39237    -8952.658   0.13521123 
  127600    284.93742    680.95005      25625.9   -8309.6427    678.62611   -8988.2688   0.12544527 
  127800    285.05156   -299.64891    25833.401   -8293.6138    678.89797   -8972.5117   0.13616268 
  128000     286.6606   -527.02726    25892.576   -8303.6534    682.73015   -8986.3835   0.13458225 
  128200    293.37663    558.25691    25688.997   -8289.4637    698.72551   -8988.1892   0.12565431 
  128400    280.67958    369.96325     25696.35   -8300.6209    668.48535   -8969.1063   0.13397779 
  128600    281.80085   -428.66294    25878.684   -8303.7337    671.15585   -8974.8895   0.13178063 
  128800    267.74905   -218.02947    25821.478   -8319.5316    637.68914   -8957.2208   0.13368674 
  129000    271.58096    384.09618    25665.963   -8335.7783    646.81548   -8982.5938    0.1349567 
  129200    275.81958    39.606916    25742.141   -8323.8957    656.91045   -8980.8062     0.140564 
  129400     283.7086   -318.67202    25850.973   -8325.1039    675.69948   -9000.8034   0.12414531 
  129600    281.16845   -63.933148     25748.05   -8327.6955    669.64969   -8997.3452   0.13681886 
  129800    285.18114    337.75418    25678.895   -8326.2884    679.20657    -9005.495   0.13114974 
  130000     271.4413   -155.34006    25788.116   -8340.2618    646.48284   -8986.7446   0.13428563 
  130200    274.76722   -311.13957    25830.772   -8339.2013    654.40409   -8993.6054   0.12653127 
  130400    277.29264     114.6555    25734.729   -8334.3612    660.41881     -8994.78   0.13167406 
  130600    278.84913    106.51662     25725.38   -8315.0801    664.12584   -8979.2059   0.13667916 
  130800    279.50992   -183.23351    25820.705   -8305.3361    665.69961   -8971.0357   0.13393867 
  131000    283.97258   -105.04685    25812.267    -8315.107    676.32819   -8991.4352   0.12531031 
  131200    296.78718    246.26272    25722.258   -8302.4787    706.84829    -9009.327   0.13228205 
  131400    280.61789    99.009602    25756.232   -8309.8909    668.33844   -8978.2294   0.12879233 
  131600    279.16702   -243.12684    25826.977   -8305.1941    664.88294    -8970.077   0.13393071 
  131800    294.07306   -11.917449    25772.772   -8297.0071    700.38416   -8997.3913   0.13433101 
  132000    287.64729    274.51741    25721.133   -8277.4602    685.08012   -8962.5403   0.14248736 
  132200    281.03935   -50.462684    25794.387   -8287.1738     669.3422    -8956.516    0.1343183 
  132400    287.18935   -269.03054    25829.244   -8284.9407    683.98946   -8968.9302    0.1401113 
  132600    289.00013    163.93532     25745.41   -8265.5751    688.30214   -8953.8772   0.13017246 
  132800    280.69797    213.30273    25754.297   -8254.8058    668.52916    -8923.335   0.13235761 
  133000    291.60645   -269.28447    25851.023   -8252.7879    694.50952   -8947.2974   0.13321967 
  133200    288.57752   -56.496242    25807.296   -8246.4494    687.29563   -8933.7451   0.14322377 
  133400    303.66426    316.42341    25716.612   -8232.3646    723.22722   -8955.5918   0.13181504 
  133600     302.7492   -32.410098      25784.8   -8231.9414    721.04785   -8952.9892   0.14243848 
  133800      291.724   -369.17777    25853.329   -8245.2712    694.78948   -8940.0607   0.14499769 
  134000      293.077    48.343648    25777.646   -8225.3707    698.01188   -8923.3826    0.1436595 
  134200    289.78208    190.35982    25729.759   -8232.5285    690.16448    -8922.693   0.14141192 
  134400    312.30713    -121.3128    25817.882   -8237.4521    743.81166   -8981.2638   0.14348555 
  134600    292.35136    -253.7054    25841.088   -8251.3558    696.28366   -8947.6395   0.14098517 
  134800    294.96544    189.58712     25737.93   -8266.4938    702.50952   -8969.0034   0.13502558 
  135000    281.44724    261.99835    25720.188   -8286.1951    670.31368   -8956.5088   0.13679736 
  135200     298.4875   -196.94896    25817.542   -8280.3025    710.89789   -8991.2004    0.1349327 
  135400    279.70605   -257.25634    25803.973   -8290.9015    666.16673   -8957.0682    0.1335099 
  135600    285.42397    322.10034    25691.494   -8276.1363    679.78493   -8955.9213   0.14742127 
  135800    287.06786    131.06587     25726.29   -8302.3791    683.70011   -8986.0793   0.14301607 
  136000    284.16755   -431.21428    25828.983   -8312.6008    676.79254   -8989.3933   0.14677416 
  136200    281.55068    22.887205    25752.093   -8312.1325    670.56002   -8982.6926   0.13352693 
  136400    288.57586    399.44382    25667.814   -8298.3631    687.29167   -8985.6548   0.13828096 
  136600    285.34584   -112.77901    25797.591   -8279.8969    679.59884   -8959.4958   0.13238492 
  136800    284.02917   -438.75071    25871.186   -8278.4345    676.46298   -8954.8975   0.13612664 
  137000    289.24099    242.09525    25709.272   -8284.8361    688.87578   -8973.7119   0.13761426 
  137200    288.42296    419.71959    25670.101   -8294.7969     686.9275   -8981.7244   0.13951912 
  137400    292.38467   -442.14121    25868.176   -8282.1006    696.36298   -8978.4636   0.13143468 
  137600    284.80842   -493.99984    25874.734   -8276.8439    678.31887   -8955.1628   0.14593849 
  137800    291.28519    605.93388    25652.038   -8258.6726    693.74439    -8952.417   0.13735331 
  138000     300.7993    344.32039    25710.537   -8258.0583    716.40384   -8974.4621   0.13681605 
  138200    286.22243   -720.82297    25949.546   -8274.8875    681.68657   -8956.5741   0.13464651 
  138400     298.8597   -111.76526    25828.244   -8265.5971    711.78435   -8977.3814   0.13598226 
  138600     285.9001    747.79261    25612.328   -8281.9631     680.9189    -8962.882   0.13230197 
  138800    299.91451     37.07771    25801.428   -8264.9422    714.29657   -8979.2388   0.13018839 
  139000    280.00978   -869.53572    25997.003   -8273.5024    666.89012   -8940.3925   0.14576711 
  139200    286.70671    130.57606    25755.388   -8274.9785    682.83998   -8957.8185   0.14278781 
  139400    287.37678    778.11002    25614.657    -8270.613    684.43587   -8955.0488   0.14227967 
  139600    282.84027   -415.63874     25893.69    -8268.726    673.63139   -8942.3574   0.14432708 
  139800    276.89078   -672.52483    25953.617   -8262.1841     659.4617   -8921.6458   0.14158962 
  140000    291.44688    543.88655    25658.489   -8252.4166    694.12948   -8946.5461    0.1341744 
  140200    297.63169    565.80452    25669.293   -8258.7805    708.85963   -8967.6401    0.1366421 
  140400    282.17118   -735.53647    25952.443   -8272.9311    672.03785    -8944.969   0.14190801 
  140600    285.54846   -356.12132    25863.038   -8284.6775     680.0814   -8964.7589   0.14067785 
  140800    295.65868    767.30729    25609.195   -8267.0361     704.1606   -8971.1967   0.14286369 
  141000    287.39203    37.001232    25766.781   -8278.6022    684.47217   -8963.0743   0.14317887 
  141200    288.63662   -787.46426    25966.493   -8272.5468    687.43637   -8959.9831   0.14175935 
  141400    277.39631    31.244302    25770.283   -8268.2822     660.6657   -8928.9479   0.13987286 
  141600    301.81105    733.94007    25627.987   -8257.0968     718.8135   -8975.9103   0.14099123 
  141800    286.97188   -254.76021    25852.498   -8278.7493    683.47152   -8962.2208   0.13038836 
  142000    288.40985   -583.18215    25927.162   -8278.8913    686.89628   -8965.7876   0.13136168 
  142200    287.45581    410.10181    25691.346   -8276.5124    684.62408   -8961.1365   0.13797587 
  142400     294.3629    480.39738    25688.856   -8286.2044    701.07448   -8987.2789   0.13580144 
  142600    274.38305   -468.32725    25911.301   -8285.0131    653.48911   -8938.5022    0.1356671 
  142800    280.29528   -413.78808    25860.351    -8287.626    667.57009   -8955.1961   0.15024771 
  143000    284.09336    513.23706    25655.974    -8292.631    676.61586   -8969.2469   0.14324117 
  143200    278.40935    233.72833    25730.697   -8297.7925    663.07843   -8960.8709   0.13519398 
  143400    276.48329   -530.99737    25891.939   -8285.1274    658.49118   -8943.6186    0.1427485 
  143600    285.39178   -15.124317    25783.554   -8274.3791    679.70825   -8954.0873   0.14715624 
  143800    281.43733    493.12345    25666.743   -8271.0848    670.29008   -8941.3749   0.15410454 
  144000    279.20742   -156.02682    25788.917   -8280.2382    664.97917   -8945.2173   0.14279121 
  144200    280.70916    -416.3603    25872.437   -8266.8413     668.5558   -8935.3971   0.15172213 
  144400    299.52608    253.36007    25739.086   -8263.3644    713.37145   -8976.7359   0.13632509 
  144600    289.51268    383.07976     25697.99    -8258.017    689.52286   -8947.5399   0.13173202 
  144800    293.48925   -206.93356    25846.843   -8254.1548    698.99373   -8953.1486   0.13647736 
  145000    291.95759   -352.14364    25857.371   -8278.5728    695.34583   -8973.9186   0.14207177 
  145200    292.95394    348.16726    25724.737   -8269.2212    697.71879     -8966.94   0.12974979 
  145400     286.1868    191.37339    25748.927   -8265.7622    681.60173   -8947.3639   0.13792333 
  145600    287.08766   -224.16566    25858.222   -8264.7144    683.74726   -8948.4617   0.13584063 
  145800     294.3168   -173.27803    25818.085   -8281.2129    700.96469   -8982.1776   0.13583877 
  146000    299.39574    296.44407    25718.086   -8272.9537    713.06101   -8986.0147    0.1325922 
  146200    286.52356    57.948193    25758.639   -8279.3044    682.40378   -8961.7082   0.14637392 
  146400    279.66753   -198.63934    25826.741   -8283.3032      666.075   -8949.3782    0.1439903 
  146600    290.59353     62.29142    25779.351   -8261.1584    692.09709   -8953.2555   0.13144542 
  146800    296.89746    210.17404    25747.028   -8235.8604    707.11094   -8942.9714   0.14244853 
  147000    287.73126    -148.4285    25817.065   -8224.2763    685.28011   -8909.5564   0.15301135 
  147200    288.15629   -132.72245    25831.258   -8227.8769     686.2924   -8914.1693   0.13892054 
  147400    289.50208     115.4946    25751.891   -8251.7642    689.49761   -8941.2619   0.14073904 
  147600    288.09305    68.976445    25741.216   -8268.6713    686.14177   -8954.8131   0.15372967 
  147800    288.58334   -215.14203    25822.096    -8274.743    687.30949   -8962.0524   0.13442208 
  148000    285.45686    -192.4421    25816.309   -8284.9243    679.86325   -8964.7876   0.12544253 
  148200    302.02969    286.61495    25741.724   -8280.8661    719.33422   -9000.2004   0.12328104 
  148400    309.98533    144.06125    25766.907   -8287.7109     738.2819   -9025.9928   0.12678273 
  148600    277.76301   -211.56608    25814.557   -8292.8769    661.53905   -8954.4159   0.13273431 
  148800    286.74517    86.409225    25767.341   -8295.8165    682.93156   -8978.7481   0.13540984 
  149000     282.6485    271.48683    25731.915    -8287.374    673.17467   -8960.5486   0.13216067 
  149200    280.68904   -113.85876    25795.535   -8293.4965    668.50789   -8962.0044   0.13493378 
  149400    274.67223   -229.15551    25812.259   -8302.1068    654.17785   -8956.2847    0.1425326 
  149600    284.89906    180.54513    25724.074   -8299.1896    678.53475   -8977.7244   0.14678535 
  149800     282.0085     103.3038    25736.655   -8294.9471    671.65039   -8966.5975    0.1331991 
  150000    294.57974   -217.72782    25842.729    -8285.289     701.5909   -8986.8799   0.13031665 
  150200    295.48884   -134.56547     25819.99   -8250.3212    703.75608   -8954.0773   0.14177661 
  150400    297.16762    297.87269    25711.575   -8238.0063    707.75437   -8945.7607   0.14260222 
  150600    293.11263    27.977138    25765.993   -8261.3491    698.09675   -8959.4459   0.13787271 
  150800    289.43776   -372.10602    25875.534     -8259.25    689.34443   -8948.5944   0.14113501 
  151000    287.86746    11.208624    25790.464   -8258.6711    685.60449   -8944.2756   0.13626811 
  151200    287.44301     323.5766     25690.83   -8274.7721    684.59359   -8959.3657   0.13361763 
  151400    292.14319   -50.990469    25805.347   -8236.8234    695.78785   -8932.6112   0.14147528 
  151600     299.5735   -433.85498    25900.524   -8219.0531    713.48438   -8932.5375   0.14918933 
  151800    291.60758    162.77407    25768.536   -8233.4617    694.51222   -8927.9739   0.13690685 
  152000    290.61271     343.8853    25712.214   -8231.6672    692.14277   -8923.8099   0.14832917 
  152200    302.96608   -301.16088     25874.51   -8241.8393    721.56437   -8963.4037   0.13950893 
  152400    285.18776   -424.79905    25886.687   -8248.4073    679.22234   -8927.6297   0.14059133 
  152600    288.64183    476.84562    25679.873   -8256.7529    687.44878   -8944.2016   0.13526213 
  152800    304.97891    386.58414    25711.708   -8219.5797    726.35827    -8945.938   0.14504916 
  153000    279.91042   -714.90756    25957.582   -8230.4589    666.65347   -8897.1124   0.15192147 
  153200    309.10987   -200.23441     25863.68   -8228.0461    736.19684    -8964.243   0.12837204 
  153400    300.00462    807.68174    25639.072   -8222.5194    714.51118   -8937.0306   0.13536982 
  153600    292.16519    16.670815    25794.654   -8226.7847    695.84027    -8922.625   0.14217049 
  153800    294.07681   -776.46526    25977.394   -8233.6635     700.3931   -8934.0566   0.13706498 
  154000    289.32976    75.604744    25779.022   -8241.2257    689.08722   -8930.3129    0.1339697 
  154200     298.3913    677.74438    25641.984   -8246.6549    710.66877   -8957.3237   0.13815654 
  154400    293.73247   -217.27983    25864.998   -8222.8141      699.573   -8922.3871   0.14567286 
  154600    299.18381    -639.6689    25960.003   -8233.9098    712.55629   -8946.4661   0.12995368 
  154800     292.6387    332.74997    25712.673   -8249.9912    696.96801   -8946.9592   0.13898072 
  155000     300.5298    643.33761    25680.318    -8243.532    715.76198    -8959.294   0.13028437 
[...]
  163200    294.62392    86.215767    25782.796    -8272.228    701.69613   -8973.9241   0.12952284 
  163400    279.44776   -290.32006     25832.42   -8288.3365    665.55158   -8953.8881   0.14042021 
  163600    293.05349    89.879401    25764.026   -8289.8737    697.95589   -8987.8296   0.13400407 
  163800    282.30611    235.17958    25732.027   -8298.4507    672.35921   -8970.8099   0.12875329 
  164000    275.87274   -195.93169    25815.687   -8305.1344    657.03706   -8962.1715   0.14116372 
  164200    287.32227   -190.01347     25820.52   -8303.2572    684.30603   -8987.5632   0.13523318 
  164400    290.51133    305.01948    25716.446   -8292.5278    691.90131   -8984.4291   0.12974045 
  164600    292.81051    214.74422    25744.992   -8282.3739     697.3772   -8979.7511   0.12681282 
  164800    275.34836   -395.73642    25870.506   -8291.6836    655.78816   -8947.4718   0.13983328 
  165000     287.5771   -76.901396    25802.948   -8290.8194    684.91294   -8975.7323   0.13428396 
  165200    280.82507    536.32032    25644.249   -8293.1694    668.83187   -8962.0012   0.13358185 
  165400    295.65903    92.351412    25772.978   -8286.1054    704.16141   -8990.2668    0.1284964 
  165600    293.95422   -832.96634    25960.964   -8279.5291    700.10113   -8979.6302    0.1358943 
  165800    289.83433    215.88356    25755.775   -8286.1452    690.28893   -8976.4341   0.12508386 
  166000    287.53123    882.20522    25582.379   -8275.5548     684.8037   -8960.3585   0.13848467 
  166200    280.37768   -299.16939    25834.218   -8292.8812    667.76633   -8960.6475   0.14244126 
  166400    278.43299   -764.10717    25965.687   -8268.0697    663.13474   -8931.2044   0.13491111 
  166600    283.80227    407.13778    25671.221   -8282.3162    675.92257   -8958.2388   0.14044716 
  166800    278.52477    710.22913    25602.109   -8312.5115    663.35332   -8975.8648     0.135733 
  167000    289.52574   -684.96418    25913.177   -8312.3534    689.55396   -9001.9073   0.12802152 
  167200    286.88354   -480.22011    25901.752   -8294.1473    683.26114   -8977.4084    0.1200826 
  167400    287.36268    832.24147    25589.514   -8295.9357    684.40227    -8980.338   0.13890452 
  167600    290.81131    356.76091    25682.195   -8288.2618    692.61576   -8980.8775   0.13620487 
  167800    277.34224   -915.31479    25971.059   -8316.4524    660.53691   -8976.9893    0.1284114 
  168000    282.88841   -128.16082    25808.658   -8321.9573    673.74605   -8995.7034    0.1281925 
  168200    276.86514    855.44841    25580.614   -8316.9908    659.40064   -8976.3914   0.13370535 
  168400     282.0374   -77.139741    25774.455   -8307.5906    671.71922   -8979.3098   0.12278763 
  168600    266.73794   -928.87152    25950.896   -8277.5503    635.28102   -8912.8314   0.14846738 
  168800    283.33136    107.39612     25739.23   -8309.7136    674.80101   -8984.5146    0.1347559 
  169000    285.25639    708.56176    25618.469   -8303.5659     679.3858   -8982.9517   0.12737977 
  169200    285.54824   -315.39408    25848.146   -8311.7987    680.08088   -8991.8795   0.12361118 
  169400    281.69887   -614.41658    25913.455   -8309.7923    670.91297   -8980.7052   0.13765289 
  169600    298.44566    453.20425    25697.629   -8306.7201    710.79824   -9017.5183   0.11847323 
  169800    279.09531    402.33127    25695.355   -8308.0478    664.71215     -8972.76   0.13132178 
  170000    285.85832    -448.6691    25882.311   -8309.0815    680.81938   -8989.9009   0.13628589 
  170200    279.33603     -238.176    25836.226   -8313.8108    665.28548   -8979.0963   0.12872006 
  170400    296.55401    448.90256    25677.755    -8316.808    706.29297    -9023.101   0.12037342 
  170600    292.45493    115.42371    25755.835    -8313.908    696.53032   -9010.4383   0.12599914 
  170800    287.45851   -544.09588    25884.074   -8312.7544    684.63051    -8997.385   0.13774782 
  171000    275.80645    26.460494    25776.766   -8307.8917    656.87918   -8964.7709   0.12925093 
  171200    278.53856    471.49225    25689.363   -8311.4631    663.38615   -8974.8493   0.13224357 
  171400     283.8079   -32.885059    25809.272   -8306.6469    675.93598   -8982.5829   0.13256094 
  171600    278.00357   -332.93935    25858.388   -8309.1519    662.11199   -8971.2639   0.12810259 
  171800    292.49739    202.73646    25738.785   -8290.0169    696.63146   -8986.6483   0.12747995 
  172000    270.07179    157.63093    25726.758   -8301.1707    643.22113   -8944.3919   0.14821929 
  172200    282.52104   -194.84278    25824.567   -8324.0024    672.87111   -8996.8735   0.12386985 
  172400    297.94981   -78.258807    25810.343   -8298.5526    709.61729   -9008.1699   0.12187023 
  172600    283.05782    301.06975     25725.64   -8289.9651    674.14953   -8964.1146   0.13397239 
  172800    277.99641    134.10706      25765.3   -8283.0707    662.09495   -8945.1657   0.13975046 
  173000    283.57722   -247.90876    25836.416   -8297.1734    675.38657     -8972.56   0.12748638 
  173200    283.34912   -13.108641     25767.93   -8296.0807    674.84331   -8970.9241   0.14103327 
  173400    282.81193    271.24821    25699.433   -8306.2077     673.5639   -8979.7716   0.14392189 
  173600    276.20792   -21.853878     25783.72   -8285.9538    657.83536   -8943.7891   0.13803507 
  173800    287.11402   -280.60061    25850.941   -8277.4179    683.81006   -8961.2279   0.13832667 
  174000    273.41916    54.191154    25762.161   -8263.6152    651.19344   -8914.8087   0.15267234 
  174200    297.79665    311.93131    25720.036   -8250.2046    709.25251   -8959.4572    0.1410538 
  174400    286.26855   -188.83379    25830.106   -8252.2601    681.79643   -8934.0565   0.13693672 
  174600     288.8143   -285.79473    25851.994   -8253.5185    687.85955   -8941.3781   0.14381666 
  174800     295.2088    220.48161    25743.204   -8240.1105    703.08912   -8943.1996   0.14064418 
  175000    297.65929    267.96367    25739.062   -8250.9513    708.92538   -8959.8767    0.1318143 
  175200    296.78588   -315.20608    25857.188   -8264.1334    706.84521   -8970.9786   0.13810318 
  175400    299.53794   -146.01514    25837.361   -8280.7012     713.3997   -8994.1009   0.12881563 
  175600    286.40472    386.99854    25702.756   -8288.8839    682.12075   -8971.0047   0.12995849 
  175800     285.8259    230.30975     25751.89   -8275.0199    680.74219    -8955.762   0.13081648 
  176000    290.82156   -580.53075    25923.887   -8269.0071    692.64018   -8961.6473   0.13972647 
  176200    295.51666   -105.79953    25823.837   -8246.2426    703.82235   -8950.0649   0.13535159 
  176400    287.03966    708.08127    25633.065   -8254.1682    683.63294   -8937.8011   0.13450239 
  176600    295.79862    49.314195    25794.187   -8258.4149    704.49389   -8962.9088   0.13449441 
  176800    287.58336   -835.42899    25987.966   -8256.9754    684.92786   -8941.9033   0.13942301 
  177000    295.78489    143.40562     25757.08   -8257.0903    704.46119   -8961.5515   0.13066495 
  177200    284.77028    910.71882    25590.573   -8248.6166    678.22805   -8926.8447   0.14101222 
  177400    284.62755   -339.12629    25893.975   -8268.4388    677.88811   -8946.3269   0.13094891 
  177600    294.39379   -886.49361    26007.021   -8259.5536    701.14805   -8960.7017   0.12943405 
  177800    293.62695     637.6598    25665.695   -8263.5772    699.32168   -8962.8988   0.12634297 
  178000    293.42115     722.5987     25625.88    -8265.844    698.83154   -8964.6755   0.13873054 
  178200     284.7517   -823.89616    25988.046   -8254.5835    678.18378   -8932.7673   0.13400443 
  178400    294.45466   -579.92055    25939.929    -8269.991    701.29302   -8971.2841   0.12628492 
  178600    284.50098    859.76829    25594.898   -8258.1615    677.58665   -8935.7481   0.13977551 
  178800    294.51226    321.15688     25708.52   -8253.1952     701.4302   -8954.6254   0.13617234 
  179000    301.63834    -808.9177    26009.606   -8231.8837    718.40214   -8950.2859   0.12799726 
  179200     293.0108   -151.41978    25851.274   -8253.7204    697.85422   -8951.5746   0.12621898 
  179400    290.24505    774.83192    25609.537   -8263.6358    691.26713    -8954.903   0.13779164 
  179600    287.02611    30.839135    25800.572   -8268.6374    683.60067   -8952.2381   0.12543323 
  179800    291.41929   -762.83043    25962.661   -8269.6728    694.06376   -8963.7366   0.13169515 
  180000    303.26712    268.79459    25752.383   -8265.0175    722.28135   -8987.2988   0.13329659 
  180200     289.6043    594.56043    25654.005   -8254.3871    689.74108   -8944.1282   0.14075202 
  180400    288.72083   -301.92472     25870.81   -8245.4572    687.63695   -8933.0942   0.13542473 
  180600    293.49637   -606.16086    25926.867   -8250.3262    699.01069   -8949.3369   0.14058477 
  180800    293.89405    375.93132    25723.495   -8267.0058    699.95783   -8966.9636   0.12559688 
  181000    293.68183    417.70157    25710.484   -8263.6195    699.45239   -8963.0719    0.1267793 
  181200    299.31262   -385.89318    25888.588   -8270.2069    712.86305   -8983.0699   0.12981108 
  181400     281.1922   -306.57067    25860.897   -8279.6637    669.70624   -8949.3699   0.13619886 
  181600    297.50625    479.72655    25703.313   -8280.1064    708.56088   -8988.6673   0.11933364 
  181800    300.26749    224.95274    25759.716   -8281.9091    715.13724   -8997.0463   0.12267462 
  182000    287.43328   -482.61731    25902.258   -8272.5367    684.57042   -8957.1071   0.13564839 
  182200    294.32631   -100.49961    25833.961   -8277.3314    700.98732   -8978.3188   0.12494384 
  182400    288.86884    303.96011     25711.93   -8284.8032    687.98945   -8972.7927    0.1313978 
  182600    285.08663     18.46027    25789.562   -8273.3111    678.98148   -8952.2926   0.13875944 
  182800    282.54076   -432.12069    25895.264    -8258.563    672.91807   -8931.4811   0.13158349 
  183000    282.09232    37.953869    25800.768   -8254.9543    671.85003   -8926.8043   0.13105454 
  183200    286.88216    301.72523    25724.697   -8245.3369    683.25784   -8928.5947    0.1420909 
  183400    289.51389   -102.20954     25835.42   -8253.5472    689.52575    -8943.073   0.13361505 
  183600    294.78425    -385.0917     25881.77   -8269.4817    702.07798   -8971.5596   0.12897862 
  183800    282.76313    205.64754    25752.243   -8280.5022    673.44768   -8953.9499   0.13747704 
  184000    281.67215     325.4961    25718.938   -8284.4853    670.84932   -8955.3347   0.13396927 
  184200    293.00817   -207.96913    25848.518   -8295.7908    697.84796   -8993.6388   0.11961606 
  184400    293.14739   -164.58421    25838.651   -8290.6094    698.17954   -8988.7889   0.12428645 
  184600    277.15572    285.37755    25713.748    -8310.415     660.0927   -8970.5077    0.1406613 
  184800    279.83355    216.92434    25757.284   -8294.7631    666.47039   -8961.2335    0.1233183 
  185000    290.94411   -469.69407    25885.325   -8298.3727    692.93206   -8991.3048   0.12650762 
  185200    274.03933   -82.988742    25812.896   -8299.5282    652.67049   -8952.1987   0.13293876 
  185400     282.3189    407.97833    25692.081   -8309.0744    672.38967   -8981.4641   0.13039121 
  185600     290.6111      23.7974    25773.703   -8299.0957    692.13893   -8991.2346   0.12277348 
  185800    281.34665   -350.40774    25876.597   -8299.9211     670.0741   -8969.9952   0.13715975 
  186000    289.89022    183.48613    25770.926   -8286.1535    690.42203   -8976.5755   0.12755923 
  186200    295.25798    513.64215    25685.621   -8280.9698    703.20625    -8984.176   0.12123148 
  186400    286.12713   -232.22529    25835.903   -8286.1516     681.4596   -8967.6112   0.13607933 
  186600     287.5842   -430.37417    25905.112   -8272.8028    684.92986   -8957.7326   0.13706346 
  186800      286.752    349.33647    25726.514   -8284.4245    682.94784   -8967.3723    0.1239121 
  187000    285.10509    507.89214    25687.909   -8279.9244    679.02546   -8958.9499   0.12834088 
  187200    278.11571   -601.13793    25916.183   -8283.1413    662.37907   -8945.5204   0.14358735 
  187400    289.22615    -447.7917      25891.8    -8275.923    688.84045   -8964.7635   0.13366565 
  187600    280.88367    877.67329    25583.159   -8284.0434    668.97142   -8953.0148   0.12870734 
  187800    290.84087    429.96625    25687.003   -8285.7949    692.68617   -8978.4811   0.13366888 
  188000    284.86756   -1202.2138    26070.438   -8283.1261    678.45972   -8961.5858    0.1358469 
  188200    288.62852   -208.19187    25844.085   -8276.2535    687.41709   -8963.6706   0.12775607 
  188400    281.08696    1398.4612    25460.474   -8265.5208    669.45559   -8934.9764   0.15569768 
  188600     283.5403   -160.83729    25804.306    -8274.334    675.29864   -8949.6327   0.14801951 
  188800    280.20841   -1432.9191    26117.004   -8288.9332    667.36319   -8956.2964   0.13562613 
  189000    278.84463    340.30646    25697.956   -8284.6145    664.11511   -8948.7296    0.1401732 
  189200    296.34359    1289.4225    25509.047   -8273.7299    705.79181   -8979.5217   0.14016559 
  189400    282.96336   -533.81278    25934.534   -8284.2388    673.92455   -8958.1634   0.12863986 
  189600    293.57903   -853.34224     26016.28   -8280.9271    699.20755   -8980.1347   0.12185742 
  189800    288.81703    717.13902    25641.449   -8284.4366    687.86606   -8972.3026   0.13655379 
  190000    281.69095     626.8248    25637.202   -8295.1186    670.89411   -8966.0127   0.13457263 
  190200    288.78434   -665.77649    25933.962   -8301.0888     687.7882    -8988.877    0.1255291 
  190400    271.28649    -451.8769    25861.358   -8286.8529    646.11415   -8932.9671   0.14251768 
  190600    278.38093    782.53472    25619.125   -8275.7488    663.01075   -8938.7596   0.14842812 
  190800    288.72919    113.12342    25755.136   -8275.3764    687.65684   -8963.0332    0.1337486 
  191000    286.91471   -791.37293    25944.585   -8275.6484    683.33536   -8958.9837   0.14451115 
  191200    283.95509    37.566163    25752.909   -8285.5415    676.28654    -8961.828   0.14634232 
  191400    282.17195    660.15385    25619.462   -8295.7056    672.03969   -8967.7453   0.13912755 
  191600    286.91554   -247.44153    25838.898   -8283.5103    683.33734   -8966.8476    0.1349358 
  191800    272.58638   -632.33778    25924.969   -8272.8356    649.21005   -8922.0456   0.15132771 
  192000    283.59112    309.29086    25713.741   -8292.3446    675.41967   -8967.7643   0.14106629 
  192200    288.30946    536.17701    25679.178   -8276.1186     686.6572   -8962.7758   0.12413139 
  192400     293.5334   -459.36574    25895.247   -8276.1064    699.09889   -8975.2053   0.13277329 
  192600     293.0509   -313.21943     25873.15   -8273.6765    697.94971   -8971.6263    0.1372882 
  192800    293.63997    523.16557     25679.36   -8280.3521    699.35269   -8979.7048   0.12715458 
  193000    293.46203     221.9498    25741.392   -8265.8109    698.92889   -8964.7398    0.1287231 
  193200    276.03816   -576.99225    25901.408   -8250.0185    657.43103   -8907.4495   0.15727783 
  193400    298.05601   -72.603278     25809.24   -8237.5711    709.87023   -8947.4413   0.14399004 
  193600    299.66226    416.08407    25687.964   -8243.1339    713.69577   -8956.8297   0.14162122 
  193800    286.42976   -136.99532     25809.29   -8258.7811    682.18037   -8940.9615   0.15084384 
  194000    280.47886   -473.87792    25892.897    -8268.155    668.00731   -8936.1623   0.15006426 
  194200    278.56103    104.56566    25737.559   -8280.9961    663.43968   -8944.4358    0.1417548 
  194400    273.29253    530.83346    25677.451   -8283.2664    650.89186   -8934.1582   0.13358991 
  194600    291.18497   -313.93092      25835.1   -8287.6661     693.5057   -8981.1718   0.13634105 
  194800    288.32843   -330.74005    25845.656   -8287.3764    686.70237   -8974.0788   0.13656407 
  195000    297.12041    368.51648    25700.007    -8283.158    707.64193      -8990.8   0.13067734 
  195200     286.3838    136.16136    25734.081   -8273.2191    682.07091     -8955.29   0.15194116 
  195400    295.56111   -374.53997    25874.715   -8273.1313     703.9282   -8977.0595   0.13376287 
  195600    296.54826   -91.240532    25824.433   -8268.7087    706.27928    -8974.988   0.12669244 
  195800    289.74383    377.77156     25708.93   -8284.6265    690.07339   -8974.6999   0.13196319 
  196000    283.38736   -7.4431527    25772.543   -8291.4767    674.93439   -8966.4111   0.14259202 
  196200    295.19866   -299.56773    25863.058    -8268.309    703.06497    -8971.374   0.13150177 
  196400    287.38205   -47.813126    25797.015   -8275.0695    684.44842   -8959.5179   0.13713471 
  196600    275.69783    353.32986    25712.236   -8298.6748    656.62048   -8955.2953   0.13235668 
  196800    291.23841    34.449684    25784.938   -8287.5873    693.63298   -8981.2203   0.12694743 
  197000    278.71915    -301.1794    25855.716   -8292.2684    663.81627   -8956.0847   0.13075604 
  197200    279.92929    4.1495091    25769.127   -8306.0404    666.69841   -8972.7388   0.13646107 
  197400    283.34178    332.14455    25715.517   -8313.2824    674.82584   -8988.1083   0.12956461 
  197600    272.21565   -186.74647    25822.168   -8282.4501     648.3271   -8930.7772   0.13761401 
  197800    290.23956   -221.13298    25870.593    -8259.413    691.25406   -8950.6671   0.13199383 
  198000    278.85097    67.571518     25767.35   -8270.9152    664.13021   -8935.0454   0.14250907 
  198200    293.27067     281.0403    25745.292   -8281.3908    698.47316    -8979.864   0.12293084 
  198400    284.20572   -183.13519    25847.279    -8262.659    676.88344   -8939.5424   0.13359818 
  198600    292.73632   -195.79201    25861.958   -8255.9395    697.20049     -8953.14   0.13260335 
  198800    279.78365    200.67321    25745.004   -8266.0451    666.35154   -8932.3966   0.13773852 
  199000    286.06264     291.9963    25747.322   -8275.3176    681.30602   -8956.6236   0.12719309 
  199200    286.72476   -299.65147    25883.076   -8286.6844    682.88297   -8969.5674   0.12723628 
  199400    291.28287   -106.04231     25841.38   -8283.5976    693.73886   -8977.3365   0.12029845 
  199600    290.19139    387.85847      25694.6   -8278.4464    691.13932   -8969.5857   0.14077018 
  199800    299.67324    114.68534    25784.224   -8279.9314    713.72193   -8993.6533   0.12525655 
  200000    284.78065   -659.69573    25945.432   -8266.7779    678.25274   -8945.0306   0.13727361 
Loop time of 41.3669 on 4 procs for 200000 steps with 800 atoms

Performance: 2088.627 ns/day, 0.011 hours/ns, 4834.784 timesteps/s
99.5% CPU use with 4 MPI tasks x no OpenMP threads

MPI task timing breakdown:
Section |  min time  |  avg time  |  max time  |%varavg| %total
---------------------------------------------------------------
Pair    | 26.507     | 26.752     | 27.006     |   4.7 | 64.67
Neigh   | 3.759      | 3.7716     | 3.7852     |   0.5 |  9.12
Comm    | 5.2181     | 5.51       | 5.801      |  11.2 | 13.32
Output  | 1.163      | 1.1658     | 1.1737     |   0.4 |  2.82
Modify  | 3.4127     | 3.4589     | 3.4966     |   1.6 |  8.36
Other   |            | 0.7085     |            |       |  1.71

Nlocal:        200.000 ave         203 max         194 min
Histogram: 1 0 0 0 0 0 0 1 1 1
Nghost:        648.750 ave         652 max         647 min
Histogram: 1 0 2 0 0 0 0 0 0 1
Neighs:        0.00000 ave           0 max           0 min
Histogram: 4 0 0 0 0 0 0 0 0 0
FullNghs:      5686.00 ave        5782 max        5504 min
Histogram: 1 0 0 0 0 0 0 1 1 1

Total # of neighbors = 22744
Ave neighs/atom = 28.430000
Neighbor list builds = 10124
Dangerous builds = 0
write_data		data.${NAME}
write_data		data.ice_289K_1atm_ML
System init for write_data ...
Total wall time: 0:01:02
