LAMMPS data file via write_data, version 29 Oct 2020, timestep = 100000

8546 atoms
1 atom types

-0.2291300585364695 104.62446529664362 xlo xhi
-0.25759104221948803 51.35288664658526 ylo yhi
-0.25759104221948803 51.35288664658526 zlo zhi

Masses

1 18.015

Atoms # atomic

381 1 1.5123081966139234 0.935945964965913 2.0654392210975896 0 1 0
380 1 0.1014044785728776 2.373572744193907 0.5222199603724432 0 1 0
385 1 5.971101693169254 2.6271603920973186 0.6691628886987985 0 1 0
383 1 9.188851884273019 2.3674257799740515 3.148259886379542 0 1 0
382 1 7.607775250801667 0.6461030817039829 1.8553036897463162 0 1 0
384 1 14.019838528100559 1.1407154685472896 2.0185563409397433 0 1 0
1089 1 20.73149322135949 0.8196050734191083 1.8842715863764852 0 1 0
1093 1 18.950038387976175 2.6136486947603363 0.5107970440722024 0 1 0
1090 1 26.80745181972716 0.7849293685751264 1.8539315811514956 0 1 0
1091 1 28.401087517443138 2.5174896801280755 3.266280774499293 0 1 0
1092 1 33.34814176259694 0.760189054373025 1.9274820405786515 0 1 0
1010 1 32.04021681061372 2.3510198772629445 0.21079878832539023 0 1 0
245 1 6.235874624234374 35.153019177418365 0.1835357041700011 0 0 0
386 1 4.176104272807134 4.281821084657027 2.301145598905125 0 1 0
387 1 11.181386833754788 4.090136241727843 1.7194146640361074 0 1 0
388 1 17.259071594139574 4.180727448169437 2.2014112847307357 0 1 0
1094 1 23.60776736935619 3.9687251415009204 1.4568270803861179 0 1 0
1095 1 25.272111581848392 5.541408868109327 3.261915763685932 0 0 0
1096 1 30.124997160393615 3.9633141296883565 1.5901094297914564 0 1 0
294 1 1.085632352335551 7.721693181104358 2.019091975429343 0 0 0
295 1 2.796794583067206 6.345951646528201 0.3465952181091665 0 0 0
296 1 7.5467134617720015 7.679126085875591 1.617914771971664 0 0 0
297 1 9.244519944375115 8.877771830659803 3.2759491715662263 0 0 0
298 1 12.258911555774871 8.88400350978767 0.48427973309008254 0 0 0
300 1 14.086628720223144 7.684000026099642 1.9808051012302372 0 0 0
299 1 15.571089562788941 6.100988620465449 0.3562931159811472 0 0 0
1016 1 20.636200717829666 7.873713059750807 1.7822557839460353 0 0 0
1017 1 22.21627424223319 6.2592923470902395 0.28851401350606143 0 0 0
1018 1 26.398026348263492 7.967293110862645 1.7011057618751886 0 0 0
1019 1 28.246347561968978 6.3056005706856535 0.668121095215337 0 0 0
1020 1 31.53861476578653 6.101193274919474 3.2042781805122407 0 0 0
1021 1 33.13941690080233 7.806302203719568 1.5805906702577586 0 0 0
971 1 18.928613137421056 28.433573897731463 0.14872188870621644 0 0 0
302 1 4.3626257644792386 10.711305748989167 1.703931515434794 0 0 0
303 1 10.663907342402043 10.771190303306495 1.8457466157204143 0 0 0
304 1 15.619805911396565 9.536704651469007 3.1662917163479274 0 0 0
305 1 17.52488656312411 10.85925944659593 1.7939689459238894 0 0 0
1022 1 23.506999466139362 11.138091709523275 1.5127416793542443 0 0 0
1023 1 28.448313072595603 9.245331239283114 3.179474122284478 0 0 0
1024 1 30.03868876232367 10.853577923640813 1.9138981111296167 0 0 0
306 1 1.0571433288341656 13.883723979080791 1.7500581486778652 0 0 0
307 1 7.577479886550631 14.069271651268187 1.8822361073261709 0 0 0
308 1 9.169580921485167 12.761239811506716 0.32265807706720073 0 0 0
309 1 14.09042107997678 14.027379544563717 1.7476172361976934 0 0 0
210 1 15.480460093164972 12.245905265752386 0.21757147846735508 0 0 0
1026 1 19.150373171696465 12.453904691153339 3.2650645054951517 0 0 0
1025 1 20.3641569412113 14.240571374007004 1.7840726690268403 0 0 0
1027 1 25.161383463492594 12.598086710654846 3.406455583553639 0 0 0
1028 1 26.7348813686519 14.030848509075808 1.9929990664684514 0 0 0
1029 1 28.178916857784404 12.38879360010587 0.3118721243283016 0 0 0
1030 1 33.42233446356179 14.30434726175032 1.752348380953472 0 0 0
310 1 4.37943028800967 17.07632086299136 1.8475216582407676 0 0 0
311 1 9.075657253905375 15.712359343639104 3.1806579783438185 0 0 0
313 1 10.730926131882008 17.117313642605737 1.7454421088393066 0 0 0
312 1 12.445472481607029 15.770617460120445 0.2578903431465116 0 0 0
315 1 15.883100631670146 15.283877684548953 3.154752944663491 0 0 0
314 1 17.228104402774978 17.59954878767886 1.713887691762901 0 0 0
1031 1 21.995338392369987 15.54128326295842 3.3710107127139612 0 0 0
1032 1 18.882081078805385 15.781608784320099 0.2994292138821255 0 0 0
1034 1 23.54099175218998 17.294808533904156 2.267148797481761 0 0 0
1033 1 25.037108031613382 15.587269233810158 0.3613569443395127 0 0 0
1036 1 28.67867764846537 15.789245475133228 3.1782541562851616 0 0 0
1035 1 30.48607481042736 17.13901446165988 1.781756612641482 0 0 0
316 1 1.8340597874646578 20.388182064925218 2.3056234812523515 0 0 0
317 1 5.750371319158822 18.95530492691053 3.0469949357014308 0 0 0
219 1 3.023779608072698 18.89088195508744 0.21420644667965627 0 0 0
319 1 7.729110034619392 20.71459448324543 2.1160154152656974 0 0 0
318 1 9.26794638095642 19.27908477813066 0.28702274433882724 0 0 0
321 1 12.525305845896265 18.705684499930236 3.0613632022512136 0 0 0
320 1 14.003381054604166 20.66383761314241 1.826768408095849 0 0 0
1038 1 19.160689504885156 18.965630074021355 3.0234044636739585 0 0 0
1037 1 20.914621356340554 20.584090447426632 1.556010804649604 0 0 0
1039 1 25.338249566305215 18.89504066901695 3.278416559275191 0 0 0
1040 1 27.182778637668797 20.197915863000315 1.8330015147480592 0 0 0
1041 1 28.583198568234 18.5387058158933 0.4177700278197223 0 0 0
1043 1 31.895291182871972 18.971346569144217 3.285457579623401 0 0 0
1042 1 33.53572613708379 20.7578579676184 1.9634443112346083 0 0 0
224 1 0.204220530789484 22.170311468757237 0.23706362691081634 0 0 0
322 1 4.515127893049178 23.796072754676448 1.9857950137531502 0 0 0
324 1 10.8621342813348 24.03300036178796 2.0475814930466103 0 0 0
323 1 12.319617250439395 22.19038139096162 0.5391954554377307 0 0 0
325 1 17.19358544708936 23.587138410334045 1.7003479825699257 0 0 0
1044 1 18.904135935782673 22.16754354012094 0.3622860764067004 0 0 0
1046 1 23.918802940984566 23.526228476241965 2.124934798009251 0 0 0
1045 1 25.209333311002123 21.870195800098642 0.2427029832347144 0 0 0
1048 1 28.56008481208004 22.04344299480173 3.3565387176813735 0 0 0
1047 1 30.130226889802508 23.619435347572765 1.6803024871621333 0 0 0
326 1 1.2026191761169296 26.662915012862015 2.39301442575798 0 0 0
327 1 3.1150101662354728 25.509418387818197 0.5508751003151378 0 0 0
328 1 8.068728162034493 27.063473073417658 1.7707138364760144 0 0 0
330 1 14.276118478293355 27.032038505682692 1.6918184752325454 0 0 0
331 1 12.594267200679576 25.866985094672156 3.3267600915928077 0 0 0
329 1 15.532388424815242 25.21017213746864 0.27607135730540977 0 0 0
332 1 18.675267471653125 25.237834034252163 3.1503657451920626 0 0 0
1049 1 20.295369349162772 26.697850484955367 1.9151242546946947 0 0 0
1050 1 22.216531453393433 25.008189144119157 0.6343817614031845 0 0 0
1051 1 26.977174464463868 26.993498314355744 2.0176621958149457 0 0 0
1052 1 31.574795291709165 25.584772779128564 3.101209178945412 0 0 0
1057 1 33.34121946561534 27.13183445886249 1.7512674416429954 0 0 0
333 1 4.32368269481074 30.033435443432218 1.9691078457485882 0 0 0
237 1 6.351505890447854 28.744399215846634 0.19179598269903814 0 0 0
334 1 10.826230659099062 29.96147453305182 1.5179242733535276 0 0 0
335 1 16.1126477562869 28.471431368304223 3.311771312242326 0 0 0
1054 1 23.29272933860062 29.928987049155893 1.9713274430764374 0 0 0
1053 1 25.066387475644255 28.258971904320337 0.43835279512522074 0 0 0
1056 1 30.251061521539814 30.044539060206702 1.6292528799845238 0 0 0
1055 1 28.49788342620414 28.86299850129 3.405766292179043 0 0 0
341 1 1.216203290280143 33.18511145524709 2.0106390860240704 0 0 0
336 1 2.8347212815492657 31.505020654151068 0.29075772012000545 0 0 0
337 1 5.805099043717127 31.839850526383714 3.356990704729714 0 0 0
338 1 12.508480513090147 31.454237147941004 3.197413670551069 0 0 0
339 1 14.091993697233157 32.98730122665022 1.5022658610080608 0 0 0
340 1 17.4727788208958 30.221735305667803 1.5963074437013127 0 0 0
1060 1 20.521861652341617 33.18333459047931 1.699091997294649 0 0 0
1058 1 19.00645517391629 31.75198428536057 3.405854033031854 0 0 0
976 1 21.92326474648153 31.595745345276853 0.22653840677291526 0 0 0
1059 1 31.40947545587188 31.699531436123582 3.3830578490469225 0 0 0
979 1 28.78418880175366 31.62890386263604 0.21935926807060474 0 0 0
1064 1 33.30528653437098 33.11466859276134 1.4450348461435665 0 0 0
342 1 2.876773387951111 34.740936151538584 3.3986761581549687 0 0 0
348 1 4.339818804618801 36.15886346131777 1.9069096167922845 0 0 0
343 1 7.476148696691114 33.24557216776046 1.7937366426694972 0 0 0
350 1 10.516871103645016 36.23567026804503 2.083260138453931 0 0 0
344 1 12.436628409671338 34.791005362427384 0.38698599701957015 0 0 0
345 1 15.472229698874292 34.96327295200146 3.220972299863039 0 0 0
346 1 18.86352288716143 34.96494266465328 0.27637134941582897 0 0 0
1061 1 25.12513717140881 34.63248061565898 0.2624528356972736 0 0 0
1062 1 26.785717669415725 33.337870212368614 1.8011250389007158 0 0 0
1063 1 31.453224279992348 35.148738036642655 0.32902579166412393 0 0 0
3139 1 34.62559766205459 34.39459382106061 3.3287795846843085 0 0 0
989 1 18.924878919220927 41.422756652894954 0.05332258301310011 0 0 0
349 1 9.035123353314372 38.121413314357675 0.5329037172176173 0 0 0
358 1 13.579987976242458 39.218517450242885 2.3024075086034568 0 0 0
352 1 17.2057232207413 36.59787245071888 1.8413361692375978 0 0 0
351 1 15.675665872004773 38.22941062820235 0.6278162420100865 0 0 0
1065 1 19.240276743284458 37.81849875413488 3.24068072472062 0 0 0
1067 1 23.78581028199891 36.48210220847349 2.3005325919706627 0 0 0
1066 1 22.47247840227383 37.980827552398054 0.5364641785741611 0 0 0
1068 1 27.854496712954667 38.080065148187444 0.3590279419713206 0 0 0
1069 1 29.722664083426125 36.79331991080663 1.674023617799252 0 0 0
1070 1 32.00368307561819 37.96677111717354 2.960610370183755 0 0 0
353 1 1.0567844444838972 39.59100764071637 1.5037045809933731 0 0 0
354 1 2.6043361863090158 40.945084317835864 3.3583176703005533 0 0 0
355 1 5.955875553902151 41.43517309838064 0.25910640159591714 0 0 0
356 1 7.242485265711959 39.700830437190916 1.9629467279228723 0 0 0
357 1 12.638350632820519 41.25693981210238 0.8681774549760342 0 0 0
359 1 15.658383243958307 40.85175341376532 3.3505621154013707 0 0 0
1071 1 20.3677605675426 39.66155741565973 1.6202878092249207 0 0 0
1072 1 25.108271284128726 41.37640991787385 0.7164881475481936 0 0 0
1073 1 26.239147872631882 39.42688599562777 1.9213089898233022 0 0 0
1074 1 28.242089203586186 40.96453502223607 3.3271231630750586 0 0 0
1075 1 33.45828681616682 39.72103195032622 1.4843535535044854 0 0 0
360 1 3.968672498976799 42.695630023134406 1.7954795291739023 0 0 0
361 1 6.061747286648277 44.232003759471915 3.3636672275821793 0 0 0
363 1 10.792514999269285 42.75237020872391 2.239199597395366 0 0 0
362 1 9.392063550950823 44.36663835327035 0.38256038638592393 0 0 0
364 1 12.74109003492549 44.37305029041958 3.3669266136471276 0 0 0
365 1 15.642292454246626 44.15759463879423 0.32574320584259087 0 0 0
366 1 17.228702355669125 42.66020568696359 2.058359576292956 0 0 0
1076 1 21.842792503580608 44.434741309798724 0.511336916412086 0 0 0
1077 1 23.288015191592077 42.502512639923125 1.9866140739064488 0 0 0
1078 1 28.049534864852742 44.29564001588054 0.28614668245109953 0 0 0
1079 1 29.678133612181572 42.58578919278777 1.5641320375671202 0 0 0
1080 1 31.815459550561847 44.07256241397636 3.330390670504657 0 0 0
368 1 0.9774481990846238 45.5869854783286 1.4228117959830942 0 0 0
369 1 2.391056283663146 47.81170858531655 2.973520898604505 0 0 0
370 1 7.7014452653505705 46.25042205102108 1.9097273446480156 0 0 0
269 1 6.13483095783318 47.64087808212985 0.21041974644222805 0 0 0
372 1 14.170312400183038 46.11037041716721 1.9834780166353885 0 0 0
371 1 12.53523518393203 47.60294408636019 0.4780781664907169 0 0 0
373 1 15.745044408797717 47.81763982473318 3.362785562272249 0 0 0
1081 1 20.46712606275278 46.23872045008947 1.8628082216891997 0 0 0
999 1 24.989490125882984 47.78775208331616 0.1921327145590666 0 0 0
1082 1 26.55004093679376 45.77877941361347 1.872274078614971 0 0 0
1083 1 28.262870002527333 47.43222636109532 3.3856965155273673 0 0 0
1085 1 33.69790601505674 45.81874172020416 1.9932542738377657 0 0 0
1084 1 31.695287399438943 47.491644798048405 0.38924072121671527 0 0 0
374 1 -0.1800213618899745 50.83615625311618 3.1818054495906254 0 0 0
375 1 4.363057031240085 49.177388466035836 1.710772839112416 0 0 0
376 1 5.828036008263007 50.7989306968964 3.39284626187845 0 0 0
280 1 9.292880827703463 50.81409190175038 0.2408289651041658 0 0 0
377 1 10.823590187295867 49.27673572145959 2.1497980691146257 0 0 0
282 1 15.26492373622238 50.86370587555118 0.20885395833249898 0 0 0
378 1 16.972039199203998 49.44615269057709 1.5070167034491497 0 0 0
379 1 18.767702953671815 51.00778478468689 3.213539999334622 0 0 0
1002 1 21.91406045235229 50.86933953290636 0.2309188105119661 0 0 0
1086 1 23.331728086424768 49.32754616907307 2.1049027262759714 0 0 0
1087 1 29.919036560805644 49.232835047110896 1.9324610071556911 0 0 0
1004 1 28.67732201036789 50.79865390377246 0.18925388787322794 0 0 0
1088 1 32.051819808899694 50.54395788098479 3.2128960257262733 0 0 0
469 1 2.9043638549920163 2.3741707442657236 3.8693151475485656 0 1 0
471 1 6.075914268465488 2.161760930275623 6.568349223240799 0 1 0
470 1 4.479085546052588 0.6309832031305537 5.377388173878107 0 1 0
473 1 12.383500146643897 2.160165040924639 6.488557138428561 0 1 0
472 1 10.734719910061973 0.5750195010980911 4.9915029538679825 0 1 0
479 1 15.703235859424554 2.600245327320119 3.5804998732932782 0 1 0
474 1 17.544413265183476 1.0657236083852746 5.089143757917483 0 1 0
1168 1 22.68584114236535 2.1374976609431977 3.450896060248572 0 1 0
1167 1 24.233226762601262 0.7153614262946126 5.267281612514331 0 1 0
1169 1 25.694409864879344 2.2887097588856555 6.510711785858767 0 1 0
1170 1 30.225001882956168 0.6868830545029356 4.512342501880303 0 1 0
1171 1 31.553369945101014 2.2602097562906667 6.577969046682486 0 1 0
475 1 1.2209056129824534 4.2327874951405455 5.195882974914426 0 1 0
476 1 7.68413801801751 3.8631747897299142 5.158223780033121 0 1 0
477 1 12.854960436181925 5.388557919214704 3.8759793764773285 0 0 0
478 1 14.378289707704708 3.9458594064924997 5.404582655267556 0 1 0
1172 1 20.732702791755816 3.6674698671825383 4.975829070704275 0 1 0
1173 1 26.928455142181967 4.061313678527258 4.954656241617596 0 1 0
1174 1 33.29350957684321 4.221808619645269 5.191267788838329 0 1 0
390 1 5.879898429064683 6.163263569772397 4.0799747947265255 0 0 0
389 1 4.383984912142211 7.900663170403655 5.608583651240605 0 0 0
391 1 10.942528501406077 7.330166034068735 5.212429211764713 0 0 0
393 1 17.105464811361678 7.7216848719465405 4.9514563564008025 0 0 0
1097 1 19.185894428909613 6.041022343752255 3.640498022172298 0 0 0
1099 1 22.238795065880655 6.072830991349415 6.524574491054545 0 0 0
1098 1 23.926079570049524 7.710223527545585 5.067552803942376 0 0 0
1100 1 29.858581668191377 7.452262695333361 5.107222236281713 0 0 0
1101 1 31.804791444055617 8.824934723470015 6.427525086836958 0 0 0
394 1 1.4828649997584795 10.739041042826447 5.503220592474407 0 0 0
395 1 2.9780360986041865 9.338599990518453 3.5343914290588 0 0 0
396 1 7.506507854645522 10.667523908523139 4.916118250735632 0 0 0
392 1 12.621283156905386 8.966832884328225 6.469582253621633 0 0 0
397 1 14.11325561775242 10.89273670342305 5.2115376320512246 0 0 0
1102 1 20.594910876773596 10.885615871278027 5.148014839591733 0 0 0
1103 1 22.197593723277237 9.577637303518072 3.539468682362698 0 0 0
1104 1 27.15482275044838 11.119582178498534 4.83939890333313 0 0 0
1105 1 33.28157464574658 10.633338634232842 4.945550726111003 0 0 0
399 1 5.680809658665983 12.553800323507248 3.455235932257034 0 0 0
398 1 4.418320514566029 14.366495015150063 5.3313399767767615 0 0 0
400 1 9.143625127258964 12.26497722579374 6.418948336789724 0 0 0
401 1 12.302510217401624 12.293030992875105 3.544807296749441 0 0 0
402 1 10.672311098150372 13.896147585873603 5.0430841845476975 0 0 0
404 1 16.037163936936896 12.374464716333554 6.51713316483141 0 0 0
403 1 17.589384916733625 13.904875872980677 4.903398394429608 0 0 0
1106 1 23.68642354990787 14.200111762068365 5.135961046443449 0 0 0
1108 1 28.673312191083493 12.669298569219164 6.558652774120951 0 0 0
1107 1 30.19969630292412 14.241992593662053 5.006822614450476 0 0 0
1109 1 31.68415523635844 12.39628220702928 3.5216138891727855 0 0 0
405 1 2.764938498433053 15.786108576637115 3.7395742946311272 0 0 0
406 1 0.9904742865137419 17.39165828119486 5.1466471712218995 0 0 0
407 1 6.301801150719551 15.893074755092886 6.501533721156713 0 0 0
408 1 7.690978686481088 17.4321248841537 4.669925186212031 0 0 0
410 1 12.58794305028011 15.564523337423758 6.291002338459674 0 0 0
409 1 14.401411882531402 17.16399545850185 4.523845284699714 0 0 0
411 1 18.65826361112661 15.815768165632903 6.482019634833703 0 0 0
1110 1 20.063316997810514 17.39729766423658 4.865693075741396 0 0 0
1111 1 25.50247469006147 15.833823881337743 6.318323918407662 0 0 0
1112 1 27.00610703963869 17.45912062837666 4.712547512469881 0 0 0
1114 1 31.705987722730697 15.89196775133113 6.57164668974143 0 0 0
1113 1 33.48283143378628 17.179830755306643 4.81781200711631 0 0 0
412 1 4.505487671079271 20.35933208292944 5.2019387873955045 0 0 0
414 1 9.46142714398765 18.64109335268136 6.389337637200232 0 0 0
413 1 11.043737239510547 20.198112897966773 4.7836890398150285 0 0 0
415 1 15.572217924705482 18.769051374053667 6.346359666255746 0 0 0
416 1 17.474638173330376 20.284449142745085 4.881626526634785 0 0 0
1115 1 21.81762783310691 18.964582810110517 6.483195774616074 0 0 0
1116 1 23.685153491666718 20.406785860793523 4.896206830429179 0 0 0
1117 1 30.281444600425182 20.66111840993895 5.0267931586077506 0 0 0
417 1 1.1743883217092452 23.83841840811252 5.2939717660688475 0 0 0
418 1 3.1963013181086644 22.27328938255138 3.852657737086375 0 0 0
421 1 9.27665178568874 22.222159049143762 3.681242831541627 0 0 0
419 1 6.316721580204754 22.00275699434505 6.5942641550155825 0 0 0
420 1 7.602223127027518 23.700260633449524 5.100460795173149 0 0 0
422 1 12.551405911938714 22.184130572297164 6.198164037443211 0 0 0
423 1 14.459676828431387 24.05460220105419 4.673053312789631 0 0 0
424 1 15.994605927609769 21.870958421326716 3.5033556837370425 0 0 0
1118 1 20.167555346046555 23.60249313533585 4.726614345921229 0 0 0
1119 1 22.322859331622418 22.331644989726325 3.6472164710308896 0 0 0
1120 1 26.99166190191273 23.54886336468529 5.379013538198696 0 0 0
1121 1 33.36468798568818 23.926418563017315 4.882811434854594 0 0 0
1122 1 31.913021724522302 22.311707187832127 6.588432507388705 0 0 0
425 1 5.99234820136301 25.407700573431796 3.5986841396429603 0 0 0
426 1 17.32827876834091 26.769361984933845 4.8138545160051285 0 0 0
1123 1 21.793063580534447 25.04147923652665 6.4927831637441065 0 0 0
1124 1 23.599041600635978 26.6866470942708 5.063952284104096 0 0 0
1125 1 25.45112111570727 25.177606518707915 3.6474649041191665 0 0 0
1126 1 29.117081245800527 25.421077729668735 6.537920269695816 0 0 0
427 1 2.571926722143191 28.49328605918797 3.6465280894468766 0 0 0
428 1 0.9913014258503192 29.97766342456922 5.160609002589704 0 0 0
429 1 4.357715561846125 27.226840282172116 5.204976245155436 0 0 0
430 1 5.929641198041493 28.736570151458377 6.6288626727551465 0 0 0
431 1 9.41107754391424 28.79715113626325 3.6902710383615176 0 0 0
432 1 10.90748356271697 27.17380336160936 5.287776290616415 0 0 0
433 1 14.165649146004826 29.930158657832123 4.884538494671621 0 0 0
1127 1 21.98581088148304 28.002311258468804 3.5501397747729118 0 0 0
1129 1 19.088478845109034 28.180279042520944 6.286147936266206 0 0 0
1128 1 20.632611274917693 30.081070685643137 5.122704059484655 0 0 0
1134 1 26.720507716342137 30.127116650582405 5.437201230978309 0 0 0
1130 1 30.114724617173202 27.21764498701019 4.833409156170396 0 0 0
1131 1 31.45913057357506 28.80001670882819 6.049456906950773 0 0 0
1132 1 34.60990786470049 28.48025800608406 3.536793757040156 0 0 0
434 1 7.711450242497584 30.491122978175742 4.872902379190267 0 0 0
435 1 9.196826856976815 31.88643854451592 6.602406392424575 0 0 0
436 1 11.007359888123567 32.90283971783836 4.985489214707644 0 0 0
437 1 15.776228083468869 31.4530617583439 6.305552322473751 0 0 0
1133 1 25.296888795865513 31.592103039245803 3.5035512660055037 0 0 0
1139 1 29.90289523804167 33.15229981450284 5.255576471533269 0 0 0
1135 1 33.38288896951752 30.477575260523494 4.954380816040025 0 0 0
953 1 32.2221548446564 15.659141143383524 -0.12077947472477588 0 0 0
439 1 4.182367404593595 33.39289522182903 5.17987522970738 0 0 0
440 1 5.965738918447845 35.11610541331221 6.60923582180896 0 0 0
441 1 8.94783689308536 34.62656135507342 3.6121137873208804 0 0 0
442 1 17.314043284960697 33.29373889573474 4.8004379931600605 0 0 0
1141 1 20.508942298094546 36.208102486477074 5.26389288276871 0 0 0
1136 1 22.204451991079143 34.795042027560505 3.682380686062443 0 0 0
1137 1 24.056514941740236 33.5669484028534 5.253150664978027 0 0 0
1138 1 28.482322693287436 34.90292538581713 3.744634205121679 0 0 0
1140 1 31.43589314260521 35.105408182942455 6.516926250429069 0 0 0
1146 1 33.091293983694484 36.19578216894222 4.777441528919669 0 0 0
443 1 1.5562610918088917 36.57567842086729 4.888070046179257 0 0 0
444 1 2.8547123742209646 38.09007153088038 6.536956839204271 0 0 0
445 1 6.014814351385907 37.780384395270254 3.466722508035165 0 0 0
446 1 7.588028994948475 36.29905763881553 4.852063952389633 0 0 0
447 1 11.972173595105586 37.710530916903956 4.053594563400878 0 0 0
448 1 13.98989924723295 36.40397447680356 5.210556615915339 0 0 0
449 1 15.84736104073562 37.879784691746465 6.378767906152905 0 0 0
1142 1 21.655210142619534 38.206226646794704 6.587517125927748 0 0 0
1143 1 24.850025007007957 38.25435731786279 4.0100601356814805 0 0 0
1144 1 26.98142473216627 36.45732076944218 5.19588626363688 0 0 0
1145 1 28.55057856921119 38.226440856172054 6.3190291298041235 0 0 0
3240 1 34.6328676666416 37.97681048768625 6.434480410434173 0 0 0
451 1 4.416005435859343 39.536103614571175 4.864430150082206 0 0 0
453 1 6.09737474677283 41.22611561281221 6.459814412492219 0 0 0
452 1 9.111886876417758 40.99456251600348 3.5342871272061283 0 0 0
454 1 10.572936425694191 39.60321023996677 5.558602712994479 0 0 0
455 1 17.500274158953438 39.537407797514796 4.789812691677248 0 0 0
1147 1 21.390702728471705 41.239737054720834 3.474618559963991 0 0 0
1148 1 23.29312130067518 40.02261278789093 5.196743041770816 0 0 0
1149 1 25.58915183899448 41.308462552031074 6.609311384870803 0 0 0
1150 1 30.278939727688964 39.471481036136126 4.625154658991889 0 0 0
1151 1 31.50148715920464 41.11862556436915 6.558194037674066 0 0 0
456 1 1.420036607684428 42.726327555754786 5.129495736536365 0 0 0
457 1 2.87430920864675 44.703988298839285 6.10942061048596 0 0 0
458 1 7.704891153174198 42.8454427896077 5.079901361828303 0 0 0
459 1 14.385408067840517 42.68418614293823 5.080280336199891 0 0 0
367 1 18.865363548649764 44.79814649621889 3.4208127474410905 0 0 0
1152 1 19.95592050604415 43.03026548794093 5.073174260141048 0 0 0
1153 1 24.740270012680075 44.31718101200924 3.5729856848300288 0 0 0
1154 1 26.81643705331765 42.759991901608466 4.519453419150908 0 0 0
1155 1 28.304148139822082 44.090506709176466 6.212653068395315 0 0 0
1156 1 33.43000902149123 42.62066971106881 5.140516957074332 0 0 0
460 1 4.518362693645691 46.21639590238931 4.449340275043188 0 0 0
461 1 9.300573808748137 47.70773974752278 3.785353812372257 0 0 0
462 1 11.067107683181868 45.98360049180968 4.944869750287204 0 0 0
463 1 12.554898770464991 47.71001780037951 6.454437348241956 0 0 0
464 1 17.221591931169435 46.23719607520264 5.128564891882283 0 0 0
1157 1 21.721711195236338 47.577653529510194 3.6823617998164733 0 0 0
1158 1 23.001355963270587 45.79616084158257 5.048020961554172 0 0 0
1159 1 25.111179019505716 47.460723882865686 6.125965898285279 0 0 0
1160 1 30.042918922360396 45.75740186960822 4.930775133464396 0 0 0
465 1 1.0896645085183927 49.23502771691309 5.27429088918902 0 0 0
466 1 7.35431899915885 49.13345881435322 4.965370930109722 0 0 0
467 1 12.500142648924015 50.9735264481314 3.6752868245457644 0 0 0
468 1 14.177739961997714 49.51941416763165 5.021274780488592 0 0 0
1161 1 20.40103797241746 49.38949495113974 4.917610982351209 0 0 0
1163 1 22.170259436738917 50.88549262703872 6.508381080251856 0 0 0
1162 1 25.259912531262238 50.60481920463845 3.6037912538259893 0 0 0
1164 1 26.792094943069966 49.135648444379875 4.900846855771897 0 0 0
1165 1 28.79798745980045 50.728341209055195 6.354428981009213 0 0 0
1166 1 33.5446303347557 48.98106775533339 4.997947885012104 0 0 0
572 1 1.2649936808848834 0.6439821290107046 8.464017937355308 0 1 0
574 1 9.20374217687362 2.0290615777862318 9.640701447960037 0 1 0
573 1 7.264974096922783 0.47549521006743967 8.4336298079136 0 1 0
575 1 14.307201300606504 0.935541989330072 8.364854262542206 0 1 0
1245 1 19.265695058959317 2.4375436171342115 6.868468053324584 0 1 0
1246 1 20.684915643478245 0.676743654037295 8.501967125351824 0 1 0
1247 1 22.369266620157845 2.4251999563384143 9.756257634254311 0 1 0
1248 1 27.203507023059334 0.5756699374704388 8.096289116349116 0 1 0
1249 1 33.221102711604644 0.6164206888034243 7.993537497540386 0 1 0
2387 1 33.29467446466606 49.21816178519508 24.143124290663838 0 0 0
577 1 4.673247553650668 3.8722846635985144 8.22026809471529 0 1 0
578 1 9.095188928510504 5.5520876788763305 6.66412548767239 0 0 0
579 1 10.811545270564112 3.7930170040846134 8.05983925866712 0 1 0
580 1 17.347701395799575 4.155655428397571 8.117920379727362 0 1 0
1251 1 23.86657549113514 3.8061603284560928 7.844712681639802 0 1 0
1250 1 24.96061101785295 5.39413963102821 9.826255364501986 0 0 0
1252 1 28.109667538891795 5.397827007091362 6.644625063888316 0 0 0
1253 1 29.931093758481083 4.135131545303276 7.990995241946388 0 1 0
481 1 2.869240763930441 6.08658749763352 6.898574965503013 0 0 0
480 1 1.6182653904996593 7.823219386619012 8.692706143469122 0 0 0
483 1 6.077643762806691 6.162051112570803 9.656983583558134 0 0 0
482 1 7.606913711649295 7.671646367170278 8.168290173527337 0 0 0
484 1 9.3871477831175 8.912123499257463 9.753710831658005 0 0 0
486 1 15.579100364091527 6.374888580821849 6.918288752174174 0 0 0
485 1 13.71067122857067 7.28502803334382 8.65672588381285 0 0 0
1175 1 20.621316280041988 7.450867557772487 8.485468133371898 0 0 0
1176 1 26.65454572263415 7.342464675325796 8.37505502408967 0 0 0
1178 1 31.754207049442844 6.205723230199624 9.319571884118329 0 0 0
1177 1 33.504258862357844 7.457730313694012 8.043118030275906 0 0 0
487 1 0.20176468703249378 9.125064255667972 6.850292428261683 0 0 0
489 1 6.1090844828693 9.452381191237487 6.8457755253914625 0 0 0
488 1 4.366493174782167 11.094891663941361 8.34149957682215 0 0 0
490 1 10.898218476294238 10.517224109505708 7.7520945801224475 0 0 0
491 1 15.466565147137633 9.29686593584528 9.842668516440165 0 0 0
492 1 17.345900040737323 10.635179313995945 8.210719082626126 0 0 0
1179 1 19.000207947028827 9.132494363426447 6.766343151010578 0 0 0
1180 1 23.947346766437324 10.825124060131353 8.152051713666767 0 0 0
1181 1 25.53856765568577 9.313891165833036 6.736318199967661 0 0 0
1183 1 28.527250332593006 9.12461392646288 9.44083821888964 0 0 0
1182 1 30.385547477387448 10.668532556140443 8.046674099044006 0 0 0
493 1 1.6267025948096894 14.268697908648981 8.508907132033535 0 0 0
494 1 2.960309205316353 12.559400551159241 6.849727282307687 0 0 0
495 1 7.718491926078641 13.745471668552957 7.991004694454588 0 0 0
496 1 12.354005311837271 12.324690321769673 9.534098798056103 0 0 0
497 1 14.206998569719739 13.909125765095672 8.090252022534537 0 0 0
599 1 18.736928214395263 12.348062643812666 9.84617596526471 0 0 0
1184 1 20.427092337102007 14.138468321793829 7.917810062742314 0 0 0
1185 1 22.157200386685513 12.379774330199583 6.8714038317031925 0 0 0
1186 1 25.315688145633253 12.53053335207973 9.736646704634568 0 0 0
1187 1 26.931041350659168 14.082532736694503 8.032972995789553 0 0 0
1189 1 31.89109249882602 12.313743922999183 9.459025871129885 0 0 0
1188 1 33.3534994443398 14.04689174178789 8.071208200926769 0 0 0
499 1 4.421044287800399 17.514678616348345 7.847675760350539 0 0 0
500 1 9.109894470492845 15.405833248714801 9.291175851053753 0 0 0
501 1 11.130324664178703 17.06625712181274 7.986964382362343 0 0 0
502 1 16.897552593469065 17.271658357702833 8.361519656192332 0 0 0
1190 1 22.153285905190625 15.527752322218694 9.400947173879027 0 0 0
1191 1 23.6354526175083 17.26577174165109 7.8462345141541245 0 0 0
1192 1 28.562215153471698 15.484904817221453 9.659651929370346 0 0 0
1193 1 29.863111753323867 17.238764737843262 8.00956810494105 0 0 0
503 1 2.5699373699188097 19.10538655431294 6.804228879581846 0 0 0
504 1 0.9138245334992665 20.666655085112623 8.507575354196744 0 0 0
505 1 6.229564456894437 19.01030247104106 9.612963489663448 0 0 0
506 1 7.573477410897462 20.079847780535825 7.8415222522923145 0 0 0
507 1 12.658672609831259 18.867882720206367 9.268919247168022 0 0 0
508 1 14.283486460034046 20.502368180863666 7.7050817116178605 0 0 0
1194 1 20.137436207653334 20.288580205979905 8.442187767654795 0 0 0
1195 1 24.868846740306378 18.918323679476266 9.84194070286151 0 0 0
1196 1 26.528571899144634 20.39716739598463 8.59526747704771 0 0 0
1197 1 28.467410917480322 19.232588779486232 6.686645608580222 0 0 0
1198 1 31.588890415072445 18.873051005700937 9.436351969322399 0 0 0
1199 1 33.5613786462617 20.63548102972645 8.204156155367144 0 0 0
509 1 4.773411573973423 23.23534677394984 8.291473580300934 0 0 0
510 1 9.37590750820801 21.59797214326444 9.791515991712888 0 0 0
511 1 10.85131575732383 23.44721558772681 8.124751245775288 0 0 0
512 1 15.607229011183312 21.900908283677577 9.550884564773847 0 0 0
513 1 17.33432362702368 23.46494801771018 8.22021698031426 0 0 0
1200 1 18.91616651638987 21.82411929507421 6.721461622130018 0 0 0