LAMMPS data file via write_data, version 29 Oct 2020, timestep = 200000

4608 atoms
1 atom types

-0.09997621338293783 53.49997621338504 xlo xhi
-0.29099798949400935 51.19811798949294 ylo yhi
-0.29099798949400935 51.19811798949294 zlo zhi

Masses

1 18.015

Atoms # atomic

3256 1 12.424563473280948 21.86126833032723 -0.2392490460008639 2 0 0
4063 1 1.8645044259434245 1.4904240670121613 2.670776295594422 0 0 1
3383 1 0.3656000697231799 12.593393957522423 15.70432615251209 1 0 0
4219 1 10.42557776436676 3.253310183346184 1.1850553000367965 0 0 1
2260 1 16.860605064607316 42.73121092155706 19.68420672381182 1 -1 0
2844 1 0.07637571950701982 5.954929759796944 23.079685413115573 0 1 1
3487 1 2.358841757664716 37.01092683210208 24.464824040663686 0 0 1
3348 1 5.7103953795956235 0.791573386424923 3.9007267633612823 1 1 -1
2998 1 4.906069785449542 3.1825720697887427 1.5418126247853101 -1 0 1
3752 1 0.9527052005594134 25.009763739699984 0.42738197501392405 1 0 1
2016 1 0.6340939936299722 13.2814285753359 8.017782777625847 -1 -1 0
4132 1 14.2842907648232 2.177378513699024 1.909811026909364 0 0 1
2643 1 15.116326593183496 49.252414171721846 3.7919987674894067 1 -1 1
99 1 2.814468871623153 38.300275539390206 4.088419062947344 0 -1 -1
3168 1 0.7908295697637117 8.577216662583712 10.472040222456089 0 1 -1
60 1 8.720207299304258 8.568948388283998 5.129326378940649 -1 0 1
915 1 5.994732856218822 12.027847535159946 20.914073706919904 0 -1 0
1320 1 13.23287322300614 4.62311628457269 1.6681315397602374 0 0 1
1107 1 8.0939873223631 8.79431254452224 1.7324634011943862 0 0 1
3570 1 10.94216305588062 9.801440681513077 1.1350495625935884 1 0 0
3197 1 17.508683960812647 8.696866278380263 4.915482830341268 0 0 0
2892 1 15.520050927414394 10.96354317184468 0.656614979300572 1 0 1
727 1 0.5610134703088179 30.770645405504716 6.50185085541021 0 0 1
2037 1 16.931379432895607 40.78353132733321 21.909006363856633 0 1 1
3568 1 7.80613785411947 1.8288364988384256 0.8124580483774524 0 1 -1
2114 1 8.781013451894381 5.888776798414385 0.7531536571673083 -1 0 0
1383 1 0.8759110673714251 48.7442361201089 4.908357112441854 1 -1 -1
1987 1 3.641763986136114 16.565197310441196 1.950762078903888 1 0 0
1659 1 0.7550099626976225 14.488974086546001 21.687567676433524 0 0 -1
4555 1 0.8420386540080406 25.37605430987231 10.8638843983711 1 -1 0
3331 1 0.030084732861646618 45.04753130979728 16.47550072274707 1 1 0
834 1 13.535637152163824 19.360825476629913 1.1314596878346634 -1 0 1
1760 1 0.10522692232323042 17.811355341155373 9.48477242150702 1 1 1
136 1 1.35246815395722 18.292178763569236 2.4565162668880944 0 -1 0
1484 1 17.10126062365738 19.970962388259952 4.87822663748967 0 0 0
3002 1 4.050566614183406 18.558608530186646 6.175559223966964 0 -1 0
237 1 17.718422905874814 37.40239867839137 4.8368713358731155 -1 0 -1
977 1 9.771100626998924 22.20611346867173 0.6115515439112812 0 1 2
4129 1 0.8407804436756129 15.568841318591337 18.43663978636499 2 0 -2
4376 1 6.2684070579640085 21.739644425878442 1.5474388601708406 1 0 0
2187 1 5.382968987564141 4.1457810267447295 24.466077798088094 0 0 -1
1776 1 9.583778337276426 25.347244801110943 1.6368218914053192 2 0 0
1821 1 0.454638273495203 39.598152170453126 21.414023524182294 0 0 0
800 1 3.793701756122357 25.89105136139231 1.46174059888084 1 -2 1
4003 1 8.839848149522 26.651990855805806 3.989669552281212 1 -1 1
2570 1 16.388647600886646 10.883121909204512 14.203362153295283 1 -1 0
4465 1 15.7063114593594 25.80516889347501 5.377279234885286 0 0 0
2863 1 4.129536243494446 29.168482174647473 2.6392568203670717 0 0 -1
3761 1 1.6731552253594582 31.27274361918055 3.898229254185427 1 0 0
4336 1 10.404142467194095 28.991593680618145 2.9242304053719432 1 1 -1
882 1 12.788779941887553 27.796533905629637 3.0288850883565432 0 1 1
2312 1 16.600926653374852 43.534606598243805 24.13782287553954 1 0 1
3486 1 2.3021694130217907 1.9100710938258234 7.178644107029 1 0 0
375 1 6.193679076652519 32.67626854345211 1.9910631705178456 0 0 0
4332 1 14.616532842927041 32.25848128878865 13.431456424675 0 -1 0
3023 1 8.625132933277543 2.8341965271043246 24.313470025773075 1 0 1
2740 1 17.522688850246585 36.74481467187145 12.334481321153973 0 -1 0
2469 1 0.5923068513406602 31.795124394280634 9.137408020198144 0 -1 0
4285 1 5.074447904339594 35.15090472631881 1.50520659852884 1 1 1
1008 1 8.553707423154712 33.58548120357216 0.7107315319706711 1 -1 0
1314 1 2.899583686570775 35.851591577968904 0.14683305925235318 1 0 1
1508 1 0.5260172941808594 50.97635743679164 17.25862879710377 0 -1 0
768 1 0.4312883528145386 6.275259323081197 3.6719569491693247 1 1 0
1522 1 3.589483032852648 40.950235087038784 4.63653081001381 0 1 1
2397 1 0.512106344699666 35.68756064050926 20.46343770226068 0 0 0
1055 1 16.851493945681682 21.7734586148493 14.751566139366481 1 1 1
1639 1 2.095479934047722 4.466363736715638 2.094276975001332 0 0 0
1404 1 -0.05682600479663426 15.208297254101886 15.664214949777865 -1 0 1
766 1 0.13936985150273729 35.86241264931935 3.072733105060923 0 0 1
596 1 1.8391888752700944 42.50693309022983 1.8766965490068803 0 0 1
1442 1 3.995166750301072 1.3683761021941594 24.782623696759053 0 2 0
1950 1 8.75221746189339 39.36285863765647 2.056300240179132 -1 0 -2
4393 1 0.45479131494486125 31.1804112280334 18.872742760367387 0 -1 1
1601 1 5.066473795685326 28.063425830635836 23.68372844832461 0 -1 -1
221 1 1.4804217305639666 20.530747030012517 23.593506178090706 0 0 0
1981 1 16.66217693011155 2.333147969363018 0.5641916675525975 0 0 0
2515 1 4.674681750670355 41.842726909821714 2.1452216399860036 0 0 0
2917 1 9.898923912558411 45.62659684505012 4.4177384325368845 0 0 0
3903 1 8.371663092342585 43.404866651504214 4.660176517818309 1 2 2
2638 1 12.845234266815407 16.958618018081722 0.022057602964490608 0 0 1
657 1 16.34683619648057 44.43502157757297 1.6468870388737402 -1 0 0
2511 1 0.9941903364194253 45.07012593329754 1.6009637402938908 1 -1 0
3190 1 4.602838146696277 46.5204866749783 -0.16736099029723112 2 0 1
2882 1 0.25407150589410676 42.808033976005895 8.032376615981121 0 0 1
2706 1 6.180379559015023 43.88759418557647 3.16758757148485 1 -1 1
2522 1 16.443372855690463 44.87379773182339 12.885348145625537 0 0 1
548 1 1.319864924864854 43.22557531945481 13.24962055622715 1 0 1
1053 1 11.9372666116042 26.49456059220069 0.7262614691771834 -1 -1 1
555 1 5.340632139263053 21.641787642886023 24.58803655676312 0 1 1
3244 1 8.575437110371114 47.27062971815089 2.485065850475454 0 0 0
2664 1 10.694056313337297 49.28753673665766 2.2501002024473458 0 0 0
841 1 4.177315189821074 9.499016082230133 -0.16617037482071934 0 -2 0
672 1 7.255850848156689 9.085763901007356 25.141416199653683 0 0 -2
3220 1 16.55593877890393 7.869028165395692 22.120094318601865 1 0 -1
2565 1 6.877246167080854 50.7466477404386 1.4517217578813606 0 -1 1
2962 1 9.810643655916564 51.031203564831365 4.693506331810936 0 -1 1
1214 1 11.398620407234667 0.8604082547696446 2.6961750857751547 0 0 0
3988 1 14.978529010034505 0.1300235253637959 6.364148291195028 1 -1 1
523 1 3.8061518005958974 2.9214281062485443 4.859448571383754 -1 0 0
577 1 7.074250881216013 5.484283441926847 6.296991195607065 -1 -1 -1
4039 1 9.445601712243418 4.436883715080098 3.793946739758474 1 0 1
1312 1 13.042198139275929 1.8404219000092046 5.051466621385498 0 1 2
1978 1 1.0608215934106846 47.55231280481272 23.651243888911715 0 0 -1
294 1 4.288404278293329 7.264060025071413 6.397100520292103 1 1 0
1257 1 6.672707781643593 8.715355310821852 7.314563481929543 0 -1 1
1224 1 4.328242632184502 5.684741446841933 3.916914889876921 0 0 2
2442 1 12.870062507703647 6.121921989807409 4.042197824411212 2 1 0
1101 1 15.12552241132935 7.46115168472115 3.303025391737665 -1 1 0
2566 1 1.2899398116958054 10.298498726412978 0.759781051118702 1 0 0
2984 1 3.552461474655743 9.20357811730404 4.33498249136496 0 -1 0
3065 1 4.788638435805425 12.223073771323124 4.027503918437599 1 0 0
3179 1 11.384755539206024 8.537815708055302 5.032530943071637 1 0 0
1732 1 8.655294882486578 11.29179519323849 4.1560451999213885 -1 2 1
3095 1 15.803800462493669 10.66374704249566 9.12891395042336 1 0 -1
1547 1 8.151236350508869 16.342439701061917 0.15547085681222178 0 0 1
1450 1 7.13507815850324 13.708233567758004 3.2386798212860426 0 1 1
3740 1 14.396503182278249 9.999907307153581 2.9586142233522397 0 1 2
3682 1 9.804047556164749 12.140541966763912 0.014593846857970216 0 -1 -1
2931 1 16.672754861065215 13.813470795519969 7.314264129628776 -1 0 1
3096 1 0.7725539282603876 47.81015335383141 17.098137000475855 0 0 0
2711 1 2.306056385223608 16.544164053170995 8.423824747714443 0 0 1
170 1 2.8503741028363536 14.075064792995493 3.6546210222242603 0 0 0
2335 1 4.737831897106875 16.692063186259308 4.223087183113906 0 0 0
4507 1 9.54838721560263 14.502759284550688 1.3808954181643218 1 0 0
1849 1 11.534442914657763 15.99710658135097 3.6137387391328173 2 -1 0
434 1 0.8366741208721336 31.486024817434437 14.117801006866243 0 -1 -1
1145 1 1.800288454990131 20.06391807990003 4.770651719692946 0 0 1
617 1 7.958161444067716 17.754517178647802 7.146088657142931 1 1 0
1603 1 6.547700128793531 18.84312668890281 3.1990226217533904 0 -1 0
1298 1 9.285908372597117 17.558299132192957 2.959938225722469 0 0 1
1643 1 14.413544243581157 19.957491539935344 3.9102646904267155 1 1 0
435 1 16.323243159239347 16.767909198000826 4.1803844827319425 1 1 0
3026 1 1.9915728921768747 23.02845625402716 4.138524423930736 1 0 0
2960 1 4.51773664386088 23.739144809361758 2.8084028522087854 2 0 0
739 1 9.555566157724085 23.167208231684246 3.6489839267921242 0 0 0
1666 1 12.668549981482677 23.996721544834376 3.57423442916383 0 0 0
1925 1 11.40965088737299 19.994703331340627 25.0294813488365 0 -1 -1
4010 1 16.16148869469044 40.54895099314087 -0.187744031941161 1 -1 0
1544 1 2.815935038525331 21.026389222681217 7.705381326438368 0 -1 0
1185 1 2.1542866958260367 27.203950679432054 3.43080852718135 0 0 0
3259 1 5.750008869687524 24.94456168933996 6.504685479973639 1 0 1
1633 1 13.497842813815424 23.99732516043159 1.0810941824070648 0 1 -1
2509 1 13.100791012435007 26.29421684995387 5.082814046701181 1 1 0
820 1 14.929963240314498 13.51862678948638 1.421773935540111 0 0 -1
3715 1 6.303888845070026 31.858978003991894 4.747061179677721 2 0 0
346 1 5.793469210777495 26.676222352167116 3.957345651601411 0 0 -1
1081 1 10.997330079626803 30.859684341694766 5.026501829645871 0 -1 0
3132 1 5.84306322822221 14.908703924527844 0.9635194851551854 0 1 0
2307 1 1.506603297232176 34.06768864709327 4.928247154793775 2 0 -1
4431 1 13.577613170468812 32.182928316422895 4.224631280210993 1 0 0
526 1 11.925848286178592 29.40004328167725 7.202511827575178 0 0 0
946 1 14.921077950529634 29.941303706157964 2.8526778872636016 -1 0 1
4075 1 3.224065951427485 37.458376049854316 7.843451646766281 2 -1 0
1914 1 1.3048167932893837 33.52282120547343 1.416856734990395 1 -1 0
1795 1 9.567855140091487 35.17198147397765 3.016710670582377 1 2 -1
2911 1 9.65528415909644 33.52485946055285 5.334182427609934 1 -2 0
1715 1 12.068156188074662 36.662502115236464 2.4884009006959524 0 -1 -1
4207 1 13.11687514658934 33.76955782956135 1.5697886421298965 1 -1 1
364 1 14.913341094038737 37.527246898915806 0.9144837403885546 0 -1 0
3650 1 16.752249679107543 33.98522540773498 22.76369127905266 1 -1 -1
513 1 1.1014450971860807 37.29070744476033 5.921927959713879 0 0 0
4045 1 5.037552999467091 36.53096518589766 3.798660730197236 1 0 -1
2273 1 7.908242066985839 37.399779651807435 3.9193412397650995 1 -1 0
1985 1 14.64135656340383 39.933967637047644 2.580114986564657 0 0 -1
4574 1 12.54068321483925 41.75950860821902 2.3026744190043424 1 -1 1
2754 1 15.663280384521675 28.15387562637224 20.199372235718236 0 0 0
963 1 7.196063669334011 43.95204534295796 7.372471113207236 0 -1 2
4272 1 8.66566544093919 42.161384852179324 1.9744163650320763 1 0 0
2669 1 16.84018623058013 40.798234293291046 4.311091175023926 0 -1 1
4223 1 2.2463836950931317 27.10278060981361 7.414032015168672 1 -1 1
1471 1 4.909721038745268 44.151515529943666 5.3562383086148175 0 0 1
341 1 10.479578715918766 42.2573613454075 6.055203467672845 -2 -1 0
1270 1 17.49418490646694 41.93536075869997 1.837788884279131 0 -1 2
2777 1 1.1057242792603523 42.00855106240779 4.7049076667675145 1 0 0
1152 1 7.945187549494808 47.45628748650641 6.263987226916605 0 0 1
3889 1 12.784998952197581 45.278958123062324 3.6894531927773824 0 0 2
353 1 13.774631107845785 44.06014690178939 0.9312425203476586 -1 0 0
3694 1 14.213703937833527 45.89980406509654 6.236358426830586 0 0 0
208 1 4.511058442339144 47.514534268381695 4.341040790803896 0 0 0
2780 1 3.281167428823009 49.89399237753678 3.2385364198048996 0 -1 1
3327 1 3.978815464897049 0.26032422062281113 1.0327368706673807 1 -1 2
1764 1 5.5241769765782855 46.596319856003404 6.727617684393024 0 -1 1
580 1 5.841839820360805 46.45768551826424 2.4284400033979687 0 0 -1
361 1 13.121982914484176 47.87623025946438 2.4539978336731307 0 0 0
698 1 13.098107030014912 49.4074319827291 8.90749281832107 1 0 0
2857 1 3.238144401689518 2.108601117186365 10.491762571784568 0 1 1
4122 1 0.5267034419293528 32.70434630561279 24.735638299554186 0 -1 1
3550 1 5.09611379606013 50.40088176531149 5.9401501943399255 1 -1 0
3857 1 1.7573378018951336 4.108220319185337 8.918378966436823 0 0 0
2589 1 8.278979444300209 2.075277783778467 4.672385906441605 0 0 1
17 1 8.249733654617971 2.168616407209858 7.394694287047998 0 -1 0
27 1 10.644712404542233 50.27947532084503 7.286055990557484 0 0 -1
3597 1 1.2999533484533485 13.857904333333963 1.1477500549906514 0 1 0
191 1 1.0442808456261388 16.759594330556126 13.420803247874833 0 0 -1
4036 1 1.3029533668705087 6.543134283770961 6.389867604541645 1 1 1
116 1 4.74898282969097 17.43025220036153 24.66960772217568 0 0 0
2000 1 3.663445322511107 10.080467267692477 8.254712955785342 1 1 0
3790 1 5.015448325131587 4.401323705024639 10.23462498284959 1 1 1
4464 1 9.679310226724704 5.650287864530475 9.974374236721388 1 0 0
910 1 11.001062457099607 1.6218655585465467 7.517603623129249 -1 0 1
3559 1 11.861513872974584 3.7477958785137773 9.389749262321233 1 1 0
180 1 1.439934248832779 46.814076207776885 11.780865643501697 0 0 0
918 1 1.344886657951812 10.643986468958838 6.753545745355313 0 0 0
324 1 8.531823365999507 11.617630551930358 6.877350433127059 0 0 0
4246 1 6.721173056151857 10.28640547575442 9.892857621016997 0 0 1
976 1 9.72273303247323 6.487705533093306 7.367470500667637 -1 1 0
873 1 7.367309886645961 6.441906123250309 3.8867250306073737 0 1 0
2495 1 13.753657606387813 5.663311259813746 7.797883163213282 1 0 1
1193 1 0.8590543825653427 40.753778146771474 0.0768334450039237 0 -1 0
267 1 5.693067737170244 11.741032476725698 6.881609736489196 0 0 1
2294 1 12.803948087267871 10.04951238397261 7.11919412855589 2 0 1
407 1 11.387850440241762 4.509820104474599 5.993074530171326 1 0 -1
3137 1 14.39013802600046 8.298504928460133 9.12799743423323 -1 2 0
496 1 17.759625977549902 46.1665507165738 8.424291629341026 1 0 1
4013 1 15.443403442909942 19.293302499555935 11.609554487623864 0 0 1
3205 1 0.4902599628007247 15.513856610544726 24.871876216751705 1 1 0
1488 1 1.058742491175448 10.200380621589176 3.693551215983994 1 0 1
193 1 0.9138763617968122 19.42235349340841 13.667390893071142 0 0 1
119 1 15.589543240661389 30.73200359256967 25.39840183684921 1 1 -1
2886 1 11.626458719934604 10.706068432322153 3.507409235058552 0 0 1
4497 1 7.545222997083427 15.6624314125128 4.7644750322736105 1 -1 1
437 1 7.130257523004292 13.546547007565517 12.826082264929402 0 0 0
2241 1 15.150804423725356 10.902160819780578 5.422605108897943 -1 0 0
2537 1 11.08369710393692 14.402388038403355 5.89486524925158 0 -1 1
3024 1 17.729396697387394 14.895727194344255 11.371346874017567 0 2 1
2318 1 2.6033662564454576 15.009969507064215 6.237683178511296 0 0 2
4508 1 13.104694987684102 12.143226586547645 9.094088961263935 0 0 1
2760 1 12.338752004602403 15.364157478419362 9.226679826895369 0 0 1
4214 1 13.793115875733747 13.904591824583406 6.823334216415521 0 1 0
2073 1 4.435343698867424 51.05601222895397 9.881588687535718 0 -1 0
3469 1 17.444837783448058 49.19112942313957 18.304880848467697 1 0 0
2639 1 4.985479861902421 14.279520357539717 8.07162873529279 0 1 0
4221 1 5.5256409181126545 17.170544115623724 8.287804351204343 1 0 0
563 1 9.550040862600614 20.177514839339864 6.621345931732028 1 -1 0
2808 1 13.447575006988709 17.532776713160857 4.712630785164105 0 1 0
2576 1 12.679893122440314 39.95424147122159 24.23426203820473 1 0 1
670 1 6.75068650615052 22.809922001550497 5.108477408718376 0 0 0
3617 1 5.346719026039389 23.68102706471041 9.259179452300323 0 0 0
3000 1 6.299717397229118 19.991288425059018 5.695947980605889 1 -1 1
4199 1 13.144706440658288 21.717602242448976 5.2228611290331495 1 0 0
360 1 2.5939371611536135 50.610364630667135 7.809846715290856 0 -1 0
2797 1 4.4792171668605665 21.088236379444993 9.725101449469816 1 0 1
2529 1 5.001973536191156 28.940480661893577 8.51956032893184 0 -1 0
1408 1 6.854466598066879 28.05464191279576 6.526137226502291 -1 1 0
1011 1 9.844520961828168 24.60639385601737 6.370131263191662 -1 1 1
4001 1 15.331430826859268 22.60301835684845 8.678067187372811 0 0 0
1366 1 3.0519058142532343 25.410418108322794 5.320670495778101 0 1 0
3130 1 3.2366054102808413 29.336184516496917 6.325809790356318 1 0 0
4570 1 8.401004039002444 30.44121852583405 6.0391984604520506 0 0 1
1647 1 9.61440163791217 28.55492505074914 8.720452007670007 0 0 1
3561 1 8.28988002436566 26.292434830914754 7.859734052111172 0 0 -1
1511 1 11.855360414467002 26.434117729129603 7.4068554804484155 -1 1 1
2835 1 9.025986276721367 48.9937505773304 23.882680289348105 0 0 2
3335 1 16.324125123907017 25.33162334418703 9.997224997428098 0 -1 0
4544 1 3.867743176638749 32.119204532180675 6.033934373127549 2 0 0
2416 1 8.939725221620256 31.58361615129655 8.660088277308933 0 0 0
446 1 7.264256437369383 34.10282837926315 8.503439641311616 0 0 0
222 1 12.221143807877965 34.019031360354695 6.524904447813008 0 0 -1
1823 1 13.43194507865836 31.098462684667766 8.920125587707835 0 0 1
1676 1 1.3171957747149814 38.10536720881737 1.2913809422341618 1 0 0
1781 1 6.935144347984694 34.57286560866572 5.906798726675983 0 1 1
1388 1 4.374251301653856 33.84958614426917 8.911910832857926 1 0 1
4118 1 12.787653050410968 38.749858674574014 5.052756471611489 1 0 1
333 1 15.548166082009068 32.596646074407545 10.90066715441038 -1 -2 -1
4358 1 16.830364850448007 32.625644255938994 2.422442871273492 0 0 2
1109 1 14.857806791175896 32.8745116071925 7.567244388775807 0 0 1
3945 1 1.2182480464190912 34.4863881446957 7.917163743356557 2 0 0
3963 1 4.036422381161918 35.11861787323141 6.096017512028346 1 -1 1
484 1 6.583070333590223 40.686917648889796 7.08953098913069 0 -1 0
2622 1 8.525790314690964 38.09863508298097 6.6965126072217815 1 0 0
2078 1 13.395840065088805 36.594515752339646 6.334736801580174 2 0 -1
1321 1 17.07242489754722 34.30338206122383 8.123749501057693 0 0 1
1538 1 16.11661814508582 34.034103231425675 4.947688020533842 -1 -1 -1
2475 1 12.807901601557456 42.698213335732376 4.6964586276278 0 -2 1
3465 1 10.889979406760789 39.336194842984405 7.181594760991327 1 0 0
3987 1 14.620939906374016 40.80363188372605 6.017116590446727 1 0 1
1705 1 0.2931468731581998 29.041840302134457 2.7853492611007633 1 0 0
3808 1 1.9397493732900384 44.52369636717786 6.092634966125622 0 0 0
862 1 9.665617326153832 45.24903412776858 7.6184708348955805 0 -1 1
4305 1 5.760147975584931 42.704152925591124 9.513681922306048 1 0 0
2409 1 13.506414119012282 42.724690948664254 8.152068366074102 1 0 0
4527 1 17.056302983265898 42.15765053319309 7.5994411491625975 1 -1 0
4476 1 16.213337928559575 36.165515954861824 3.126151678835076 0 1 2
1806 1 6.440960002017935 47.22351566994283 10.723508538105497 0 -1 0
316 1 9.018755233254266 46.83676864020568 9.827013321874034 0 0 0
1652 1 14.190090567518226 45.186352480632216 9.016406712582771 1 -1 0
1067 1 1.7240789806841437 46.56125519675514 8.890420113316784 0 -1 1
2696 1 4.094317966193138 47.87218575730833 8.752293791071665 0 -2 1
3961 1 4.257992240531799 49.44583659788344 12.113909878211969 1 -1 1
2841 1 7.351192467764226 49.27679476877169 4.164350522224004 0 0 1
4315 1 8.40450249990127 49.2512903468306 8.491276750304232 1 -1 1
1271 1 13.294462517095225 0.7709676781206718 9.027983096615074 0 1 2
3881 1 15.212168558445377 36.44602979857745 24.837796670621053 1 0 1
2766 1 7.94277396889065 1.446979363434649 11.657268910662642 1 0 0
459 1 7.941551783373697 3.5867615370585106 9.909040955372518 0 1 1
1025 1 10.279560140336597 0.13409340092378869 10.744166738856382 -1 0 0
4420 1 4.925677494943175 5.7346468803378645 12.854249831081853 0 0 0
4164 1 4.8839618898222925 4.521554668061746 7.414069085343934 1 1 1
1417 1 12.428412378365705 1.7349309659704142 12.156958435989608 0 1 1
1227 1 16.87081567233223 4.4418729780640085 11.521528929413064 1 0 0
992 1 1.402067627324964 5.870194022733201 11.660684439972757 0 1 1
3346 1 3.073187929357774 6.777939921576917 9.12897847961519 2 1 -1
389 1 6.063435518758584 7.202826219934942 9.752434587178263 0 2 0
1606 1 11.102807913600214 3.735574780246788 14.707540088658906 0 0 1
3403 1 13.373509393271732 4.816965074142845 13.239701607407268 0 -1 0
2989 1 14.255616458987134 4.20894772279771 10.896297272958384 1 1 1
4210 1 11.357402065708255 39.306109342804675 1.909074536403907 1 0 1
1672 1 0.1513601895622625 23.749819537808676 13.541022773312559 0 1 -1
102 1 15.914121694643207 16.866396874321147 1.5974290943625178 1 -1 -1
2090 1 9.152123297676585 10.298213322735402 10.658912371686496 1 1 1
2111 1 9.99779588913946 9.59083733124138 8.081138452277917 1 0 0
3674 1 13.51918602970137 9.036504008875843 11.885433646465028 1 0 1
2658 1 7.012570276119489 29.30414488646409 3.3131194748674044 1 0 -1
3314 1 8.794904484607377 14.233889551402255 7.3388195240995335 1 0 0
2062 1 13.589377864692148 11.67820475822279 11.652645803226365 -1 1 0
3646 1 13.792477959769194 16.270833249989682 11.930299440457567 1 1 -1
984 1 16.11744333180491 14.359678800824994 14.302894274569654 0 0 0
3627 1 15.63009287482024 18.100723416294763 9.082058960955772 1 1 0
2347 1 2.4489478744240913 14.2107023499447 10.133208298306439 1 1 0
791 1 9.785407271521342 16.19352717221152 9.295628810372387 0 0 1
1921 1 7.180172871952753 17.88247756209683 12.925309092301127 -1 0 0
123 1 12.881457670651736 19.060306528153212 13.244908638997332 0 -1 0
3415 1 13.415991456099388 17.35301920098274 7.473018558458721 -1 1 0
231 1 2.217152068563842 10.801255065787677 23.681067393984687 0 1 0
1475 1 4.842649449292596 17.51589314542383 11.149860557359881 1 0 0
652 1 1.1028201325105556 21.788832511692036 11.30246908694308 1 -1 0
2337 1 8.416128404764162 15.866191490277242 11.683578499923867 0 1 0
38 1 10.44368928073622 20.207918177900282 3.8947900505001014 -1 -1 -1
2800 1 12.031256835102761 45.50254787244308 24.973462405156205 0 0 1
2985 1 1.1836737872241183 22.942055972717814 8.577815685734084 0 -1 1
3471 1 7.191758934209863 19.98386275241578 9.220965334445818 0 0 0
2580 1 8.276452226154458 22.326234186431446 7.465499035488275 1 0 1
1905 1 11.86762387198336 24.03065902598765 9.326989157271615 -1 1 0
811 1 4.911887173286594 49.81857292816059 21.176994867028725 -1 0 1
2156 1 12.360396556555235 21.5060706578307 7.93632086571945 0 0 1
2533 1 1.890988513198735 28.336372839713675 12.022168683067264 1 0 1
917 1 0.635007019687352 48.880384891163274 7.695351445861766 0 0 0
2082 1 3.0899371514492215 25.61299382134017 9.547865905058881 0 -1 0
908 1 4.630895926170303 27.082647518934028 11.59305735210868 -1 -1 1
2059 1 8.612041513047263 24.787532282478654 13.848948086119078 1 0 0
4279 1 7.956255460687366 23.971773295514684 10.292041782887706 1 -2 1
3794 1 13.792696939157713 27.161542309995834 9.640248104279333 1 1 -1
4073 1 16.213103277860718 22.198413931023925 0.4976745157010235 1 -1 2
593 1 16.148401127261263 27.41970631916913 7.554613939225019 0 0 0
3440 1 7.018640932723056 30.59612638231804 10.426006330066306 1 1 1
3301 1 9.048624086708148 26.319978945466925 10.975041395733754 1 0 -2
2678 1 11.70133665794175 27.008747732301927 11.967499850991054 1 -1 1
2521 1 11.585948977538285 28.839275442863197 14.223622674550255 -1 0 0
3084 1 13.727257583113293 24.852065978136473 11.845684838205974 0 1 1
1162 1 16.738838852580123 1.3478531713780284 13.630191669762914 -1 0 1
1318 1 15.2400307691817 29.380615482888537 10.783830977915358 0 0 0
63 1 3.6564443202367247 31.207581510994324 9.151327819460866 -1 -1 0
1140 1 4.679306131069514 31.875070851889475 11.893514991174351 1 0 0
562 1 10.995513249438206 34.6988823214998 9.272352031596565 1 -1 0
4459 1 11.066708121134942 31.894711852888065 10.14807511961274 1 -1 0
160 1 15.543537713793535 3.504806985026582 24.87446682043491 0 0 1
3552 1 3.070631000498977 19.37558946465839 -0.027934425723810163 1 0 1
3351 1 8.653754178168166 36.3140650470347 9.405152250684303 -1 0 0
3739 1 12.653452389834774 35.939909923449186 11.084544618610607 -1 0 1
2655 1 15.494621860907586 35.40371668355888 10.673991049920529 1 1 0
2726 1 0.4102092062413113 35.40120957381624 11.324571917375518 0 -1 1
3807 1 2.7759061022381624 35.976211310129955 9.970580448679064 1 0 -1
3936 1 5.006999832396361 34.7022957782307 11.688221893914495 0 0 1
2982 1 6.486337539217618 38.54430789293893 12.373448128578673 -1 -1 0
592 1 7.056285815012647 36.096011835641626 11.688969379304227 1 0 0
4486 1 10.343552595537949 38.578257716992844 10.269309044226901 1 0 0
1972 1 12.338312744043888 14.347848675857705 1.2202999045257301 0 0 0
2628 1 1.9053502804672378 41.030941110415384 11.757338362489834 0 0 1
1290 1 0.548699941014609 47.90730362622756 -0.11811105491015503 0 -1 2
2464 1 3.8690403273330864 40.2175338815478 7.54807486693427 0 0 0
1332 1 2.7833901835807184 42.04058749302787 9.329226529788802 0 0 1
2610 1 7.130313842298917 39.952377558423386 10.207758805041896 0 1 1
1889 1 9.472058728325976 41.17475114542441 10.469848500537971 1 0 0
4608 1 16.08950368834812 37.02425883072299 6.797290959375126 1 -1 1
1127 1 16.734658163661965 39.43291373016446 8.509230721841302 0 -1 0
4227 1 3.4187578528459297 45.392635068351396 12.866813539515942 0 -2 1
3092 1 6.365399959811869 38.112017983415555 8.339619442131562 1 -1 0
557 1 5.917871045140096 44.44892317532855 11.982097956293293 0 0 0
1856 1 12.80874345414619 37.82247323531407 8.740659175409352 1 0 0
3418 1 14.138289596198147 39.940869016464255 9.357837328050064 1 0 0
2951 1 16.421035456066132 2.657211545308151 21.96209461377536 1 1 0
3695 1 6.282521046259582 47.72170606940677 13.409916272189509 1 0 0
3521 1 10.760671303304902 42.90406614845868 8.824223295632674 1 0 0
3116 1 8.008462247440237 49.8364550249435 14.61648077189592 1 0 2
2140 1 11.606951367788778 47.9134454306278 10.814136063217683 1 -1 0
1469 1 12.894547968054972 45.77608118685112 11.756078900378434 1 0 1
4021 1 17.43967863341676 48.5295735637409 13.247882957697696 0 0 0
2896 1 1.4009096281269533 49.34471093463527 12.69578935978405 1 -1 0
1869 1 5.817480969007997 -0.03477295290842308 13.870637488013843 0 1 -1
4344 1 6.699681981024373 0.10250285219149702 8.004499721446983 1 0 0
840 1 10.63462332555118 49.58772771928186 13.031113922697768 0 -1 0
3579 1 15.577342754021652 14.40821698321997 25.281824782141587 0 1 0
4353 1 4.110665065516455 51.083705524726426 15.869376579612059 1 1 2
3435 1 7.659452079447975 7.592887207717872 11.7711109123771 1 1 0
3775 1 14.667407003780701 -0.14214614765852124 12.8963619720155 1 1 0
3967 1 15.53780566428598 3.5800006517627216 14.765407215607295 1 1 -1
4203 1 1.8642056296067224 46.400800023098164 4.0361458153451215 1 0 1
2510 1 15.18029900719619 1.5897020055863913 16.742064959247102 0 -1 0
3138 1 6.842656197344967 2.6126227885298126 14.316874268657292 1 0 0
854 1 7.52779011788495 4.850163168589928 12.742697766416201 -1 0 0
59 1 6.874979139588984 2.07602835795373 17.583960312181947 0 0 0
2665 1 11.103964250189062 4.013226713289944 18.410620909686266 0 1 1
3902 1 12.35543146018492 2.035790089620006 16.622935220862615 1 1 0
4419 1 16.82837540389588 8.18924849449005 13.384895762523001 1 0 0
264 1 15.290701464626418 40.82954465248419 24.19273312236553 0 1 -1
2919 1 0.6000761268115272 7.646797405621464 13.892404163729356 0 0 0
2425 1 2.7228929686426024 8.547150250206364 15.620944777129047 0 -1 0
3944 1 4.10652850689378 8.41666136316347 13.318106495445507 0 0 0
504 1 14.056729633566492 7.712900756401103 14.1774013586034 0 0 -1
2585 1 17.612743627156483 8.590139168227946 16.426947855625745 -1 0 0
4167 1 16.816275985033347 7.1915295388137706 10.974408687499317 1 0 0
509 1 3.238042008325243 9.821164895532455 11.050077898583684 -1 1 0
4179 1 3.174970755953463 11.95444868303539 15.190910292384203 1 0 0
2427 1 10.711216344512996 7.941926597665638 11.585612406990466 0 0 1
1958 1 11.948508609172759 12.618337459554693 13.752081257983962 0 2 1
4563 1 5.398578232960743 12.934654176100404 10.715084421157446 1 0 0
3207 1 2.797615814535878 12.096467274278687 12.034984678887056 0 0 0
3312 1 8.051144420012713 11.309482937354025 13.355638059299386 2 1 1
2095 1 5.968625235736321 18.231213320841903 0.2911003075176759 0 1 1
4230 1 1.5065285640103057 24.355459481795652 25.344752387006938 1 -1 1
827 1 3.339459162685418 15.815458867738492 12.280355641261094 0 0 2
3176 1 4.621083355395237 14.449205290302418 14.520445629039383 0 0 0
1218 1 8.93542077229546 14.757788922820513 14.934282525601702 1 2 2
4186 1 11.186249990991161 15.443423235400065 12.896011410618225 1 0 0
3888 1 13.918665720249045 13.1363339408345 15.855499694676539 2 1 0
2088 1 16.586573686829862 17.102095687129978 12.911299095454043 1 0 -1
453 1 3.243127987185711 47.783325642936816 20.262406460735285 0 -1 -1
4017 1 13.76046237868554 21.989134662699932 11.249498566711019 1 -1 1
2994 1 4.8575155372257095 21.520824187527595 16.19231461070816 -1 0 0
2345 1 11.079878595341327 20.439381528729566 11.826810278314387 0 -1 0
3069 1 11.195835070161749 19.36794960863395 9.209813354038177 0 0 0
610 1 3.665884360922724 20.135203470683372 12.091423658182473 0 0 -1
2539 1 6.445946485450933 23.778625282497735 17.324574917776346 1 1 0