LAMMPS data file via write_data, version 29 Oct 2020, timestep = 200000

4608 atoms
1 atom types

-0.10584877745948873 57.37635877746105 xlo xhi
-0.09408780218431545 51.00120780218181 ylo yhi
-0.09408780218431545 51.00120780218181 zlo zhi

Masses

1 18.015

Atoms # atomic

32 1 3.033429302899762 2.792375879964288 -0.04299161624847159 0 0 0
29 1 5.063895579659724 1.591190295925974 1.433988172961184 0 0 0
25 1 3.262626132217353 0.08901022872629843 3.087668707368798 0 0 0
285 1 11.057820448893654 1.6175981569480675 1.3613140578769662 0 0 0
541 1 17.155301248764008 1.093560482130677 1.392164608761369 0 0 0
30 1 1.9314387754803377 4.817009440887049 1.2097947282943204 0 0 0
26 1 0.2580220922160782 3.5671827521902015 3.0571577364608746 0 0 0
286 1 8.576407454414305 5.012774162245732 1.2237988359515137 0 0 0
282 1 6.637625671574932 3.3411412525340487 2.9471809826497073 0 0 0
538 1 12.453937490805863 3.4101911523181085 2.792414601164806 0 0 0
542 1 14.589278700588372 4.620520784545559 1.4880094978213427 0 0 0
1562 1 18.810716401217018 2.9944547176638165 2.85806276985302 0 0 0
61 1 4.841494601835504 7.7845660130494565 1.3567631168034227 0 0 0
57 1 3.323366590674492 6.327252284333914 3.0393959605674015 0 0 0
317 1 10.944128474467787 8.28270475354211 1.1233542044789087 0 0 0
313 1 9.709637009836003 6.390785132566017 3.0044240584625084 0 0 0
575 1 12.989079068860853 6.513156239979953 -0.01985413310120583 0 0 0
573 1 17.223643088995217 7.669288117542023 1.7647044875444358 0 0 0
1599 1 18.817512306513663 5.99171875060018 0.19464691209694251 0 0 0
62 1 1.6021958532351752 10.98369391928937 1.5768516886391697 0 0 0
64 1 2.8270654917128963 9.20641884100183 -0.020733497925220945 0 0 0
318 1 7.965620970337321 10.729375145482399 1.4257183280169317 0 0 0
314 1 6.493846472545363 9.354574381898543 2.9453920943916936 0 0 0
574 1 13.968811002255338 11.058033232966283 1.4237923013255016 0 0 0
576 1 15.810519884623162 9.690338866908817 0.1752423784009965 0 0 0
95 1 -0.010578217464783601 12.66299223302318 -0.017797961882010327 0 0 0
93 1 4.661350800003014 14.236173093473383 1.4161967016208021 0 0 0
349 1 11.47201594098207 14.103800320707725 1.4728490490214978 0 0 0
345 1 9.631191329746258 12.446873578375396 3.0855259233473604 0 0 0
605 1 16.866158528532722 14.103694675383784 1.7029302753398088 0 0 0
1631 1 18.862858486174307 12.893118803793211 0.1855880383207591 0 0 0
94 1 1.500957328863983 17.401868232588374 1.3817770393971227 0 0 0
346 1 6.613245882215672 15.74991600799764 2.9049883923502278 0 0 0
350 1 7.741783145265868 17.694487776146463 1.3981184799682398 0 0 0
352 1 9.408601986951883 16.00600549899934 -0.03220288282145134 0 0 0
606 1 14.499106395289655 17.69884326355518 1.8712089902068723 0 0 0
602 1 12.867168656865232 15.944093844611857 3.028348483979313 0 0 0
125 1 4.546994384474048 20.34576686983066 1.2216920459486742 0 0 0
377 1 9.673419796745758 19.28705113932867 2.7767481908006575 0 0 0
381 1 11.047865304193195 20.82798830515978 1.1793830059945685 0 0 0
639 1 12.749132187263672 19.20267279185694 0.021144788781214174 0 0 0
637 1 17.916467311003483 20.7455603775346 1.552542070425368 0 0 0
126 1 1.2198525785561667 23.645182622178368 1.6257578043665633 0 0 0
128 1 2.928763188368626 21.99184775945068 0.006244968392508099 0 0 0
382 1 8.199405526208974 23.559255685848544 1.34269756918675 0 0 0
378 1 6.352672670794374 21.95377341915075 2.9698459044798544 0 0 0
640 1 15.66647038720781 22.22332158578096 0.201544312397683 0 0 0
638 1 14.366019014878768 23.84710756050786 2.006067169318028 0 0 0
153 1 2.9753311420044937 25.15329191722207 2.779036136069321 0 0 0
157 1 4.974043227526345 26.828084490263137 1.4068345204432158 0 0 0
413 1 10.970214515036796 26.952567503497935 1.2038102534037423 0 0 0
671 1 12.552518905030535 25.03380130419587 -0.06896017407649821 0 0 0
410 1 6.235117919925493 28.762661348909287 2.7084952014581813 0 0 0
416 1 9.551885983560311 28.865514517423236 -0.016249324304354218 0 0 0
669 1 17.59417878875509 27.53413276281632 1.7136690165852644 0 0 0
158 1 1.4649016578795642 30.193530619893945 1.7871533436193823 0 0 0
191 1 0.08592477155193023 31.66681661671346 0.17393333826044 0 0 0
447 1 6.541178740598888 31.935224365515413 0.021823326286122574 0 0 0
414 1 8.183757776418226 30.457363967615084 1.6773189329437452 0 0 0
670 1 14.212986417085776 30.32060213690548 1.5345285060576574 0 0 0
703 1 12.796395102371212 32.10160156617668 0.04344646888451109 0 0 0
697 1 16.013020813970208 31.60480422088824 3.0855565655546067 0 0 0
192 1 3.019274118815751 35.133600816005924 -0.042637657583658964 0 0 0
189 1 4.94862176641495 33.457630309708435 1.6696634936582089 0 0 0
442 1 6.657696345059209 35.17816707318919 3.0121790216171975 0 0 0
445 1 11.28785526889612 33.53231970790647 1.8160989915958092 0 0 0
448 1 9.927077997499351 35.05859312493219 -0.06542173000318481 0 0 0
701 1 17.444831223303208 33.49631815299715 1.6429936454509806 0 0 0
190 1 1.2957060588892952 36.607242862489656 1.275067329830726 0 0 0
217 1 3.188343915777042 38.070816634866205 2.936561410722341 0 0 0
446 1 7.867341964949382 36.6171909728683 1.0915510836571838 0 0 0
473 1 9.405273069794243 38.31996939656416 2.5554543641349086 0 0 0
702 1 14.269417896756933 36.8684183137225 1.3718950704858528 0 0 0
224 1 2.9836061472220723 41.397671361992295 -0.048481375259667905 0 0 0
221 1 5.0951611561974595 39.72013054896651 1.4365881752309098 0 0 0
477 1 11.52566705431782 40.22228707583403 1.3885254979658728 0 0 0
480 1 9.672938146256994 41.604554378656005 0.008074538575435955 0 0 0
733 1 17.661745344781128 40.01061228605991 1.8653937523368465 0 0 0
736 1 16.085866891398496 41.344827294585855 0.14442859243519024 0 0 0
222 1 1.5004753112226166 42.96588395621907 1.4887358940625433 0 0 0
511 1 6.246336642485801 44.707972678227236 -0.03800096791023577 0 0 0
478 1 8.020677789370115 43.20338717283302 1.480067729299677 0 0 0
734 1 14.532112125107867 43.055109058393484 1.7610557294259463 0 0 0
767 1 12.895398913269606 44.88242720017301 0.15603707331186195 0 0 0
253 1 4.6349465232705285 46.16113988130583 1.5144817985190457 0 0 0
512 1 9.434345371797997 47.4537494193079 0.14604749866412453 0 0 0
509 1 10.92312674123742 46.07412182751037 2.052449535231043 0 0 0
768 1 15.768336142712315 47.89330194566931 0.11878875087007984 0 0 0
765 1 17.550835695210324 46.10521684030249 1.6452579405627459 0 0 0
254 1 1.5376364420897246 49.680421541757696 1.3265942622505353 0 0 0
510 1 7.860765054198916 49.19332380194746 1.577143030543586 0 0 0
281 1 9.39920010390844 50.98516238825022 2.9219002949135366 0 -1 0
766 1 14.016624981925855 49.062062397672705 1.712402511280071 0 0 0
27 1 1.2882126642479583 1.4206557073070922 4.594114657505136 0 0 0
283 1 7.704287593147598 1.3786010498463528 4.318208166904509 0 0 0
279 1 6.290853587636219 -0.02128936835974571 5.871891699475268 0 0 0
535 1 12.570859406400663 0.34343849195112525 6.119246996295772 0 0 0
537 1 15.661606525058781 -0.0898500778600777 3.2475944591189836 0 0 0
539 1 14.134260249706294 1.712873502939447 4.5391950762709286 0 0 0
24 1 3.06960935442241 3.2021050805118607 6.242208331087152 0 0 0
28 1 4.8051160712081735 4.634673492507126 4.745878249099539 0 0 0
284 1 10.811436328911006 4.697156270021878 4.909921568440342 0 0 0
540 1 17.2999682147072 4.404748883547071 4.988908682310569 0 0 0
59 1 1.8078150535671116 7.679696507357101 5.063625495347759 0 0 0
315 1 8.029566546023482 7.903742898478273 4.750285920748294 0 0 0
571 1 13.935384884794631 7.982403502696471 4.764939792784673 0 0 0
569 1 15.548485434609937 6.305679840055533 3.373988759732827 0 0 0
58 1 0.28443213538765544 9.434380705263544 3.5738350507257066 0 0 0
60 1 4.993949152324724 10.863124136347722 4.689228401851575 0 0 0
570 1 12.647326833345485 9.656142414115937 3.1066880959356946 0 0 0
316 1 11.130540039724398 11.241176584852383 4.8127374195904045 0 0 0
572 1 17.818987588317146 11.120025153831786 4.905880891507484 0 0 0
568 1 15.873901348218947 9.533253098655353 6.0176899732455285 0 0 0
91 1 1.3253979218401744 14.160884044618536 4.88217612347988 0 0 0
89 1 3.035449080139285 12.679814582432924 3.2309131799891344 0 0 0
343 1 6.546997262544932 12.87187932322192 5.9654941694632395 0 0 0
347 1 8.279574686659133 14.34262595539333 4.587481097403294 0 0 0
603 1 14.187528101832477 14.27124181924322 4.971380410080657 0 0 0
601 1 15.889939859967743 12.314752644717787 3.280670728321175 0 0 0
90 1 -0.0006896011347323622 15.791656217473403 3.1251780747555586 0 0 0
92 1 4.994436364817484 17.302586328472827 4.63689391569722 0 0 0
88 1 3.2025026333267044 15.628494083721407 6.235528587818522 0 0 0
348 1 11.489457637263259 17.672785679166775 4.448492309579495 0 0 0
344 1 9.492563192493463 16.24252211246806 6.156329680557602 0 0 0
604 1 17.301326609992003 17.662891786528387 4.776095239960068 0 0 0
1626 1 18.98603480496845 15.519052595886125 3.275154290342938 0 0 0
123 1 1.6522709283932582 20.350469524189176 5.048563338975104 0 0 0
121 1 3.171822082371999 18.693020624790442 3.141556093169221 0 0 0
375 1 6.2514909949515545 19.373446177790658 5.676624280730749 0 0 0
633 1 15.847837496176098 19.53290356500882 3.3115276150232758 0 0 0
635 1 14.222792511440947 20.596390527160402 4.81034680125896 0 0 0
631 1 12.790223821353178 19.139791204468487 6.218869994235705 0 0 0
124 1 4.759191262584653 23.380912934914225 4.453730487719256 0 0 0
379 1 8.38989754351616 21.02455103928401 4.629943799465508 0 0 0
634 1 12.509194425711446 22.314934573358908 3.2384173911462115 0 0 0
376 1 9.775187053206789 22.643749080181284 6.2678968771821735 0 0 0
632 1 16.15982824435513 22.203046791367523 6.065522775010428 0 0 0
636 1 17.72433099771211 23.92398670764179 4.5454805169763075 0 0 0
155 1 1.5897825409334292 26.712483195341996 4.5175932337858855 0 0 0
407 1 5.921826731648664 25.334872572906495 5.8207325293156655 0 0 0
409 1 9.50950146728137 25.62757235758015 3.1601148543765745 0 0 0
380 1 11.226720676856713 24.125917122556874 4.473954234946258 0 0 0
663 1 12.830730918814435 25.648037689639782 6.0295248789048985 0 0 0
665 1 16.163407111492432 25.854127413494428 3.430460585178314 0 0 0
1687 1 18.97371537797959 25.537737064356325 6.28237836774391 0 0 0
154 1 -0.04805736192878685 28.1916692351617 3.1121293875260054 0 0 0
156 1 4.811296424286274 29.62068368747131 4.7910207030487735 0 0 0
411 1 7.611829398390793 27.200672019638603 4.612374547415024 0 0 0
666 1 12.397561972208488 28.78498408396747 3.2305780066821175 0 0 0
667 1 14.251729626993324 27.491076994204906 4.590253840105634 0 0 0
183 1 0.14584889496150638 31.633610761229615 5.90153377357674 0 0 0
185 1 3.3752068868152363 31.788875902483863 3.336508611409518 0 0 0
439 1 6.429479168358621 31.799705461503518 6.0934110538835755 0 0 0
441 1 9.79812187471522 32.05644745832407 3.3275729862085424 0 0 0
412 1 11.31930642160757 30.57165737454496 5.0860618002224935 0 0 0
668 1 17.598732621190933 30.291279896840347 4.931932670589881 0 0 0
186 1 0.10078374148370708 34.98453844852381 3.226715123566589 0 0 0
187 1 1.6882648628969648 33.356134907808695 4.648182164087162 0 0 0
184 1 3.2630578014241034 34.75447447644294 6.175931173657008 0 0 0
443 1 8.138040369618448 33.3419088745013 4.6878015851157375 0 0 0
698 1 12.958771540270488 35.37148567462998 3.1615558005719895 0 0 0
699 1 14.577028858839482 33.56125576711028 4.603233984534895 0 0 0
215 1 0.18347256085404445 38.30416026318008 6.1768413431869345 0 0 0
188 1 4.834918142803511 36.58394977804221 4.78674492709731 0 0 0
444 1 10.928087258108755 36.57225293893336 4.695248534019676 0 0 0
727 1 12.566572302359443 38.19015163735753 6.180548409843265 0 0 0
729 1 15.883555708890741 38.3429158534224 3.109659875790348 0 0 0
700 1 17.518471434195618 36.657075689761356 4.528487640571646 0 0 0
1751 1 18.582926050330393 38.43221622400111 6.136224330087308 0 0 0
219 1 1.6361860895637557 39.844648669005636 4.421343838097184 0 0 0
216 1 3.187348469732481 41.749668527559166 6.079402536771779 0 0 0
474 1 6.839155785399613 40.892384128109384 3.20395884505092 0 0 0
475 1 8.182416420266346 39.463532391394565 4.923308698889115 0 0 0
730 1 12.9388005618235 41.36185446623121 3.430184314065857 0 0 0
731 1 14.373707730870013 39.64917355979934 4.9677258629592185 0 0 0
249 1 3.243598146193945 44.421851728867125 3.100003636382013 0 0 0
220 1 5.139394830555868 42.82516230779858 4.628202012787863 0 0 0
505 1 9.319219909367117 44.524941746235086 3.4421732032786143 0 0 0
476 1 11.075252275513932 42.910408206563076 4.906130120399368 0 0 0
761 1 15.843119332207182 44.71508259229782 3.334184816453388 0 0 0
732 1 17.52403198187555 43.0080779148073 5.047832539213416 0 0 0
251 1 1.8058104019286787 46.47032185145902 4.717043960238005 0 0 0
247 1 -0.014697567023972624 45.06497068056804 6.200382664140769 0 0 0
506 1 6.225093610987268 47.72881684924505 3.158736722436409 0 0 0
507 1 7.94164789751397 46.385120926874734 4.588197617193525 0 0 0
762 1 12.656845823266869 47.585439682396355 3.506403024671805 0 0 0
763 1 14.214107010175967 46.112611153872194 5.132097475883743 0 0 0
1786 1 18.82380808552957 47.5888844966245 3.432956327085307 0 0 0
23 1 -0.04231328984569113 50.946844832701885 6.199793851928156 0 -1 0
250 1 0.177322948179086 48.152138313794026 3.2517179549575013 0 0 0
252 1 4.653521626746484 49.3648589014324 4.568737812149803 0 0 0
504 1 9.214476145313341 48.04957766314584 6.2627366792196675 0 0 0
508 1 11.216518328265616 49.446944911551796 4.7612338685423845 0 0 0
764 1 17.29134367908456 49.43410418361411 4.842500299800364 0 0 0
21 1 4.609171275318741 1.3895510041831407 7.754728472462746 0 0 0
277 1 10.835621908684848 1.6408648820473128 7.931281869819381 0 0 0
533 1 17.414185173769955 1.6355318803202907 7.9195861059863795 0 0 0
22 1 1.6168554930510515 4.728618677142112 8.004970635252302 0 0 0
274 1 6.0263176797021725 3.238209368413541 9.33258638697606 0 0 0
278 1 7.5683427451779925 5.055324364593398 7.861948551228968 0 0 0
280 1 9.074323366651432 3.136182895279097 6.295533250555065 0 0 0
536 1 15.337760887250319 3.105721658660597 6.657930685691562 0 0 0
534 1 13.86612530645713 4.526879062195136 8.218668455484174 0 0 0
49 1 3.086434569262336 6.34695775440879 9.430447025428078 0 0 0
55 1 -0.006448460877968826 6.468765859802666 6.7562826254767465 0 0 0
311 1 6.153975196540074 6.611986921293444 6.344323754138433 0 0 0
53 1 4.710594745455538 8.014452938838792 8.214857535671165 0 0 0
567 1 12.664168571370821 6.201349528454 6.495885017712451 0 0 0
309 1 10.956174490249381 7.926893873644714 7.863890606802741 0 0 0
561 1 15.671878667921172 6.147228221296285 9.461337179756915 0 0 0
565 1 17.4970329820921 7.915077543348998 7.634696246341576 0 0 0
54 1 1.4008298623240023 11.37526964409512 8.129631316108776 0 0 0
56 1 3.220556237266152 9.59812850062153 6.5994312399062025 0 0 0
306 1 6.258718906213294 9.670635552156922 9.355035339708822 0 0 0
310 1 7.8757355233546 11.596535352742427 8.006034262999869 0 0 0
312 1 9.449374968126616 9.884617946735162 6.528663617392675 0 0 0
566 1 14.113061144027713 10.92969497622928 7.826570944827627 0 0 0
85 1 4.787277642319832 14.22530110231145 7.755884186144737 0 0 0
81 1 3.2444899877103146 12.776579290236292 9.457980060820878 0 0 0
341 1 10.915601740354013 14.656182502377007 7.9772814560031975 0 0 0
599 1 12.338052830868476 12.909148144782362 6.500181823146229 0 0 0
593 1 15.627908066626684 12.782717041652932 9.280630996018976 0 0 0
597 1 17.346004542023827 14.474097789662595 8.21364844388861 0 0 0
82 1 0.4315610856529267 16.04829724627619 9.480783492538071 0 0 0
86 1 1.826079246016478 17.539455293942794 7.763736616501372 0 0 0
338 1 6.177851622697418 15.935029388631921 9.334100980139068 0 0 0
342 1 7.848421325548413 17.76592342627219 7.576101916549151 0 0 0
600 1 15.635113781856443 16.14379897622679 6.495350655175626 0 0 0
598 1 14.045061345887875 17.50956021483599 8.171364729462631 0 0 0
119 1 0.08132795802467335 18.834551376516686 6.373394571928451 0 0 0
117 1 4.9463612038498725 20.608221067861002 7.908010204424675 0 0 0
369 1 9.451360856297216 19.302422885276556 9.100292416319812 0 0 0
373 1 11.29129425249876 20.838847812044452 7.699821513575977 0 0 0
629 1 17.376221273451737 20.623634976311944 8.099254149555051 0 0 0
118 1 1.2493837428404055 23.854473753212442 8.176374626477676 0 0 0
120 1 3.2138873022455083 22.350527853755974 6.562984605262028 0 0 0
370 1 6.5643911429114326 22.606926067869463 9.435622294903542 0 0 0
626 1 12.932591219235912 22.513792705786273 9.348238431057126 0 0 0
149 1 5.232961773341126 26.806810257839278 8.471613145652833 0 0 0
374 1 8.040158632304664 24.071870158747977 7.5622460620886764 0 0 0
401 1 9.490069604248585 25.447048655520295 9.234803176372202 0 0 0
630 1 14.494430012730703 24.072192778025304 7.6158539494092246 0 0 0
657 1 16.034061811451092 25.5964743370718 8.899624629765897 0 0 0
152 1 3.0311212250030293 27.708501583284608 6.58396624056589 0 0 0
402 1 6.449031782884332 29.00047620038763 9.427381440366498 0 0 0
408 1 9.660800892457619 28.738428444029555 6.394063814517479 0 0 0
405 1 11.312584092248743 26.982155331664973 7.9626823962884306 0 0 0
664 1 15.944975312885411 28.840873690912936 6.486410540431402 0 0 0
661 1 17.69635835038553 27.126562746457154 7.668107205503442 0 0 0
150 1 1.7863589254554155 29.982533130706464 7.7987544220363905 0 0 0
177 1 3.0358270446217617 31.59477335650359 9.368041271216066 0 0 0
406 1 8.120457078954328 30.346672453611273 7.773711618200223 0 0 0
695 1 12.874611439537174 32.41773117931652 6.473893078771485 0 0 0
662 1 14.235614298067214 30.733243237705622 8.274702366155807 0 0 0
1719 1 18.930334892541897 31.905531794761732 6.820398508344001 0 0 0
178 1 0.036253472397774544 34.97674975763229 9.06030614531776 0 0 0
181 1 4.770644408830446 33.46543047469356 8.063963520357662 0 0 0
440 1 9.732293720334846 35.14268545038341 6.707545042984367 0 0 0
437 1 10.950659712213868 33.55592595797688 8.411013536321336 0 0 0
696 1 15.748383367210318 35.3832526172186 6.356835874608615 0 0 0
693 1 17.152710418362503 33.65218848812236 7.957041711423884 0 0 0
182 1 1.6768371064172127 36.477511645272585 7.596956513911636 0 0 0
209 1 3.1410386883069656 38.38506199392761 9.292645273564355 0 0 0
471 1 6.408946554667979 38.21151975971155 6.411659125357281 0 0 0
438 1 8.097064063623494 36.634906701049545 8.19906588993819 0 0 0
694 1 13.910738087101757 36.665565120105356 7.925386073383374 0 0 0
210 1 0.1961877788567108 41.56319443000514 9.095557091050143 0 0 0
213 1 4.7809942566629005 39.96903577020626 7.6876056588395505 0 0 0
466 1 6.348225720021734 41.458969984360735 9.454202264984408 0 0 0
472 1 9.369030136789418 41.41449826674008 6.439301037693322 0 0 0
469 1 11.135870846908787 39.825097705556615 8.122146782004204 0 0 0
728 1 15.786538995101532 41.44170943328558 6.549300954056975 0 0 0
725 1 17.381327023889135 39.6950907960087 8.170339722420886 0 0 0
1746 1 18.973153395248318 41.51491761685247 9.400744066051145 0 0 0
214 1 1.3887491181025575 43.24439307357733 7.7505238512068315 0 0 0
241 1 3.2466818092523058 44.94000383129725 9.420120262807114 0 0 0
503 1 6.3786555661563415 44.93934272350374 6.45631244044041 0 0 0
470 1 7.915409714365156 43.27843756128085 7.90424293240572 0 0 0
759 1 12.42607110064346 44.7865709236121 6.428174471285758 0 0 0
497 1 9.49884945572198 44.62472201188213 9.484539976562198 0 0 0
726 1 13.993486047734267 42.96344720825782 7.87143028193156 0 0 0
753 1 15.456849143349705 44.67421931873449 9.452640158815834 0 0 0
1783 1 18.95533122245471 44.74811776065552 6.58898979254621 0 0 0
245 1 4.87667301666512 46.550340099465075 8.167408645362464 0 0 0
248 1 3.138432852873177 47.99181912313662 6.5448932666000985 0 0 0
501 1 10.811999148993072 46.25976186365163 7.80570555424096 0 0 0
754 1 12.604846970665342 47.93745042226547 9.2764686202851 0 0 0
760 1 15.66046767323294 47.78473103789521 6.479071442774862 0 0 0
757 1 17.381157170264874 46.464741138898106 8.000146772739987 0 0 0
246 1 1.4707123146625811 49.64381522859982 8.18431790579486 0 0 0
502 1 7.73286482404279 49.37258971660428 8.09165053832033 0 0 0
273 1 9.41437820019577 50.94473350096567 9.361789083646128 0 -1 0
758 1 14.035566454793862 49.66010571163649 7.80940972021274 0 0 0
19 1 1.3109002729102617 1.6336547925704084 11.258621412735366 0 0 0
17 1 3.0180387165465796 0.2611483054593288 9.590057520896885 0 0 0
275 1 7.756788191238594 1.591187793594561 10.858387574918504 0 0 0
272 1 9.450602292702804 2.787014930539679 12.512523117174615 0 0 0
530 1 12.45790558141293 2.793231955914536 9.72741827161562 0 0 0
529 1 15.76229502292332 0.0167613083916483 9.599732614223273 0 0 0
531 1 14.281324880581181 1.596050272780375 11.22042456987695 0 0 0
18 1 -0.015918839614229796 3.2412615499366786 9.507647962903972 0 0 0
20 1 4.58018785590118 4.616237305529758 10.944202050556852 0 0 0
276 1 10.86665201029702 4.675981041699118 11.085683673536654 0 0 0
528 1 15.810896815346956 3.444398275014387 12.403123520764213 0 0 0
532 1 17.711497682046367 4.763843090958449 11.034027758601157 0 0 0
51 1 1.2824782411662885 7.781195614343866 10.990220217315414 0 0 0
307 1 7.787482268964936 7.966306972361533 11.122087360335499 0 0 0
305 1 9.375839488448449 6.661350961145886 9.56617666788945 0 0 0
563 1 14.285108322625062 7.924513374678696 10.987785044625655 0 0 0
52 1 4.5969528637015875 10.966285127000628 11.087454542055855 0 0 0
304 1 9.282136681774809 9.605530954480352 12.41745600058699 0 0 0
562 1 12.644027810414906 9.66365207737174 9.501561234883086 0 0 0
308 1 10.933513205519365 11.007181512354165 10.985615032065231 0 0 0
564 1 17.415413403057723 11.488282684553058 10.954134814999637 0 0 0
560 1 16.073572399761137 9.178056867284873 12.391611882428366 0 0 0
83 1 2.057567785689026 14.270358508395866 11.544479141546352 0 0 0
335 1 5.964670135741252 12.840850771851112 12.284107265738712 0 0 0
337 1 9.473973642167193 13.163869256812264 9.53062513141912 0 0 0
339 1 7.938755859705745 14.596003369992195 11.35531693771959 0 0 0
595 1 14.198272971317481 14.545365854345565 11.066750093046483 0 0 0
591 1 12.72367344705579 12.59181732571676 12.29844174540068 0 0 0
84 1 4.732331376686185 17.67023556487912 11.225402748652701 0 0 0
594 1 12.518468527022575 16.06831997418672 9.782204859992007 0 0 0
340 1 11.064412819844337 17.906606038230542 11.287043937433248 0 0 0
596 1 17.3809756184778 17.461792528318448 10.940626944346693 0 0 0
115 1 1.4276120029200634 20.530336461741058 11.631664586801856 0 0 0
113 1 3.335506017796261 19.379552276668658 9.793857040259674 0 0 0
371 1 8.277575377255642 20.929952612565575 11.010827333395172 0 0 0
625 1 15.723684890429865 19.08100970197262 9.519699496502978 0 0 0
627 1 14.470369054691162 20.898591963016646 10.932117494091688 0 0 0
623 1 12.792472639652555 19.736278167687168 12.56321455564635 0 0 0
1647 1 18.859173477188413 19.108606551982128 12.387234999428498 0 0 0
116 1 4.541336360612906 23.892931134969782 11.20875482041748 0 0 0
372 1 11.028593624747433 23.821139440211777 10.758632203321207 0 0 0
624 1 16.302579745774906 22.334600102485112 12.548261022315092 0 0 0
145 1 3.0558762306385887 25.36105592243145 9.534351324428869 0 0 0
399 1 6.019269168403262 25.695098444350105 12.593374081688646 0 0 0
655 1 12.70688767891314 25.3103918333137 12.434172291889968 0 0 0
659 1 14.286677241882336 26.83985092159778 10.743010611632755 0 0 0
628 1 17.659512470843033 24.080788211276094 10.836831056142968 0 0 0
147 1 1.4411641741252041 27.037196000700423 11.250188400245735 0 0 0
144 1 3.09782945177991 28.58936218511968 12.634961512035588 0 0 0
403 1 7.686389358753571 27.09751454023373 11.033796001606289 0 0 0
658 1 12.635204535259042 28.639313658578473 9.63035332114669 0 0 0
656 1 15.663667627349993 28.81117616200989 12.45767552323549 0 0 0
1682 1 19.04698621128708 28.812841948343785 9.519998783184212 0 0 0
175 1 0.010361273517487654 31.85191441008712 12.563798247038262 0 0 0
148 1 4.557434526461654 30.003955247854243 11.146702850200647 0 0 0
433 1 9.241698096393815 31.961890177406854 9.775927916754215 0 0 0
404 1 10.719961526319137 30.08058144386439 11.32263868473297 0 0 0
689 1 15.866625421613566 32.069633536253036 9.870617255348678 0 0 0
660 1 17.39308485023196 30.441931910412368 11.081283598190895 0 0 0
179 1 1.2821202007303065 33.42802876205877 10.744445948477578 0 0 0
176 1 2.8260328844835505 34.778921336487016 12.59469792690877 0 0 0
434 1 6.169691128583936 35.26785767638569 9.50277443377885 0 0 0
435 1 7.453275385845293 33.53759331092107 11.202608190421191 0 0 0
690 1 12.836452409883593 35.09004350454859 10.11041326045209 0 0 0
691 1 13.775875499085492 33.05641447989855 11.541270731236581 0 0 0
688 1 15.849383433556211 34.685809899446085 12.586960609146999 0 0 0
180 1 4.187160968995265 36.5253506447047 11.035534789724418 0 0 0
463 1 6.275313904624422 38.058111607973885 12.600034904740431 0 0 0
465 1 9.597798951426496 38.19242960938547 9.625938117308248 0 0 0
436 1 10.994957247077418 36.58195740610505 11.478211453029163 0 0 0
719 1 12.93895022093885 38.1988264689013 12.6032866263796 0 0 0
721 1 15.833330481234942 37.9838774598697 9.569254542003822 0 0 0
692 1 17.416009949869704 36.49000960862928 11.297796676085571 0 0 0
1743 1 19.048822544471655 38.622923063677874 12.657046047272809 0 0 0
211 1 1.2029705140072087 39.409907095945925 10.66374338233622 0 0 0
208 1 2.6132545081714955 41.629398780708044 12.210806002372147 0 0 0
467 1 7.911156143965428 40.07178360176178 11.14951395218685 0 0 0
722 1 12.733579436317102 41.42112519013746 9.721231287961805 0 0 0
723 1 14.364811778900421 39.932061298433254 11.223091199938967 0 0 0
720 1 15.935840815218214 41.63531607284838 12.599155312660475 0 0 0
239 1 0.04822273533906876 44.64673447906196 12.418600773562343 0 0 0
212 1 4.580618108541085 42.99186727387662 10.951027286905113 0 0 0
495 1 6.04215219682291 44.60959645850272 12.6291453247234 0 0 0
468 1 11.025959361997423 43.0909809148621 11.389020151873282 0 0 0
724 1 17.159950335183634 43.25999950105653 10.747750282497972 0 0 0
1775 1 18.951391597760445 44.817959427232 12.45026069971446 0 0 0
242 1 0.3289868047287843 47.787226405816824 9.76526928269613 0 0 0
243 1 1.7365727916563214 46.35298019680954 11.30485967315034 0 0 0
499 1 7.8177063938595035 46.06381887724112 11.09521827416332 0 0 0
496 1 9.395065135690079 47.78109389614363 12.385134092529334 0 0 0
755 1 14.214691745170551 46.55726818620626 11.258087037786483 0 0 0
498 1 6.184881463681827 48.0402177439815 9.911866675661193 0 0 0
244 1 4.394104968329577 49.69098751244822 11.540011788911126 0 0 0
500 1 11.382914651918826 49.4997534152118 10.95964879063251 0 0 0
756 1 17.446307775269617 49.590131597006234 11.440511999341787 0 0 0
13 1 4.601496777664234 1.812203935078269 14.839672421716008 0 0 0
271 1 6.093892663472093 0.07888981855054811 13.314658079199411 0 0 0
269 1 11.144617993418125 1.2430483191299757 14.444449536883111 0 0 0
522 1 12.819425068029528 2.875866557707654 15.69864639136341 0 0 0
525 1 17.293062197863637 1.633646502950297 14.184090357527854 0 0 0
14 1 1.7071988302908034 4.64390738000057 14.734557123511474 0 0 0
16 1 3.1988540438131534 3.246759455914338 12.770357649343662 0 0 0
270 1 7.716677127340842 4.572558417783297 14.148835349193531 0 0 0
526 1 14.307889165130108 4.79724162622943 14.44356005371389 0 0 0
45 1 4.635751640137425 8.262831417394292 14.563080683987799 0 0 0
303 1 5.895272049050121 6.454399265782345 12.691388286189012 0 0 0
297 1 9.34994472910688 6.166255333745279 15.648131539864735 0 0 0
559 1 12.501401721064335 6.194243132571998 12.780749024187676 0 0 0
301 1 10.875036004667315 7.793590007104278 14.275502723419793 0 0 0
557 1 17.775844368187173 7.8022977697003775 14.136145403548198 0 0 0
553 1 16.227273426144645 6.275485365147771 15.74608548690784 0 0 0
48 1 2.9862575412927224 9.679106766626209 12.97505802871315 0 0 0
46 1 1.2159659706745651 11.280881031271939 14.378822182390211 0 0 0
298 1 6.514803283562378 9.785821414794489 15.730522725225647 0 0 0
302 1 7.900714177189453 11.321252477272173 13.903221206093896 0 0 0
558 1 14.595367832286621 11.053753556257593 13.757484810539506 0 0 0
554 1 12.786163360452742 9.45804258369213 15.520486405734708 0 0 0
1578 1 18.842209601134513 9.708696611287383 15.71105452615244 0 0 0
77 1 4.722713823636599 14.241576366949545 14.433983780679917 0 0 0
333 1 11.245588739818912 14.080736287874272 14.016717544719342 0 0 0
329 1 9.666999436415667 12.527378064140153 15.618590469646747 0 0 0
585 1 15.763420731503924 12.655035193038804 15.575713561127246 0 0 0
589 1 17.661367451021352 14.166869513522036 14.114424732162156 0 0 0
78 1 1.3994475331867633 17.712481642780837 14.525800344389673 0 0 0
80 1 3.41660601404329 16.15103300816196 13.087875556173232 0 0 0
330 1 6.5296886277524635 15.881136775144483 15.823035104059345 0 0 0
334 1 7.8121673258691535 17.574648745246506 14.33274441331076 0 0 0
336 1 9.482658576196076 16.10002290740749 12.916863731688169 0 0 0
586 1 12.749712138959811 16.06208385428273 15.427866413393032 0 0 0
590 1 14.653495768537368 17.928157080909077 13.906341976901627 0 0 0
592 1 16.184815491706733 15.74964812563148 12.739394884379507 0 0 0
367 1 6.206078010847046 19.278073651076163 12.834499176027936 0 0 0
621 1 17.51535220924082 20.63653312443486 14.046812086983666 0 0 0
112 1 2.793699630966438 22.356403402200087 12.882230621088368 0 0 0
110 1 1.2167911649983305 23.83729026365243 14.392751182600549 0 0 0
109 1 4.575289199578196 21.092935664368294 14.437014095877577 0 0 0
362 1 6.1435184626441615 22.59911541347602 15.857552263604804 0 0 0
368 1 9.616768233106107 22.659553942480255 12.925870708737138 0 0 0
365 1 11.109655462680069 21.04002345978774 14.519619437558596 0 0 0
622 1 14.360159490334272 23.789897204074126 14.117329852724083 0 0 0
366 1 7.921137594472688 24.349542420388726 14.105721099494254 0 0 0
393 1 9.403021355296303 25.741576911052846 15.831158195049005 0 0 0
397 1 11.209296929542242 26.75558802348657 14.218043187784891 0 0 0
649 1 15.966951161676516 25.309219207636094 15.535002175554078 0 0 0
138 1 0.005190192599911825 28.946341860603876 15.54078845601274 0 0 0
141 1 4.400353372401431 27.244491165076358 14.411972105307022 0 0 0
394 1 6.179531299490725 28.963649238761622 15.837971565073673 0 0 0