
# Set production fixes - Nose/Hoover
#
fix                 2 all nph iso ${PRES} ${PRES} ${PCOUPL}
fix                 2 all nph iso -1000 ${PRES} ${PCOUPL}
fix                 2 all nph iso -1000 -1000 ${PCOUPL}
fix                 2 all nph iso -1000 -1000 10000.0
fix                 3 all temp/csvr ${TEMP} ${TEMP} ${TCOUPL} 837492
fix                 3 all temp/csvr 297 ${TEMP} ${TCOUPL} 837492
fix                 3 all temp/csvr 297 297 ${TCOUPL} 837492
fix                 3 all temp/csvr 297 297 5000.0 837492

# Define Order parameter
#
compute             2 all orientorder/atom nnn NULL cutoff 3.5
thermo              200
thermo_style        custom step temp press vol etotal ke pe c_1[4]

# Run 1ns simulation
dump		    1 all custom 400 prod.${NAME}.dump id type x y z vx vy vz c_2[*]
dump		    1 all custom 400 prod.ice_297K_-1000atm_ML.dump id type x y z vx vy vz c_2[*]
run                 200000
Neighbor list info ...
  update every 1 steps, delay 0 steps, check yes
  max neighbors/atom: 2000, page size: 100000
  master list distance cutoff = 6.0032907
  ghost atom cutoff = 6.0032907
  binsize = 3.0016454, bins = 20 18 18
  2 neighbor lists, perpetual/occasional/extra = 1 1 0
  (1) pair sw, perpetual
      attributes: full, newton on
      pair build: full/bin/atomonly
      stencil: full/bin/3d
      bin: standard
  (2) compute orientorder/atom, occasional, copy from (1)
      attributes: full, newton on
      pair build: copy
      stencil: none
      bin: none
Per MPI rank memory allocation (min/avg/max) = 5.822 | 5.822 | 5.822 Mbytes
Step Temp Press Volume TotEng KinEng PotEng c_1[4] 
       0    299.67856   -976.15239    149946.24   -47354.004    4115.3633   -51469.367   0.15849787 
     200    301.49764   -1004.2319     149969.3   -47343.628     4140.344   -51483.972   0.15673262 
     400    295.15519   -1033.0205     149989.4   -47336.909    4053.2457   -51390.155   0.16470755 
     600     293.6643   -1022.4719    149963.37   -47376.213     4032.772   -51408.985   0.15790777 
     800    293.92984   -982.02869    149923.66   -47391.572    4036.4185    -51427.99     0.156624 
    1000    294.23144   -983.64586    149945.71   -47403.823    4040.5602   -51444.383   0.15379538 
    1200    293.97103   -1046.2011    149981.22   -47428.452    4036.9841   -51465.436   0.15637796 
    1400    294.86656   -980.62346    149927.24   -47420.128    4049.2821   -51469.411   0.15832224 
    1600    291.54284   -942.73224     149884.7   -47424.041    4003.6388    -51427.68   0.15498862 
    1800    295.23593   -1025.7018    149980.03   -47429.257    4054.3546   -51483.612   0.15980311 
    2000    292.00963   -1061.3372    150031.43   -47381.259     4010.049   -51391.308   0.16239092 
    2200     298.6199   -989.91115    149932.11   -47350.732    4100.8252   -51451.558   0.15923836 
    2400    293.04205   -966.81755    149915.94   -47368.896    4024.2269   -51393.123   0.16313445 
    2600    295.79376   -1055.4952    150022.77    -47414.05    4062.0149   -51476.065   0.15933651 
    2800    299.36701   -1011.0853    149992.16   -47431.261     4111.085   -51542.346   0.15211435 
    3000    291.51039    -928.2198    149856.52   -47444.833    4003.1933   -51448.026   0.15170432 
    3200     294.5583   -974.50905    149895.89   -47389.277    4045.0489   -51434.326   0.15522989 
    3400    293.59191   -1075.3916    150058.33   -47426.629    4031.7779   -51458.407   0.15886909 
    3600    294.34296   -986.87697    149965.38   -47457.231    4042.0917   -51499.322   0.15559145 
    3800     297.7293   -902.81774    149786.04   -47384.088     4088.595   -51472.683   0.15844385 
    4000    291.57693   -1008.4461     149922.8   -47375.777     4004.107   -51379.884   0.16404453 
    4200    292.21051   -1136.6848    150112.94   -47389.175    4012.8077   -51401.983    0.1589355 
    4400    294.37168   -988.67534    149871.86   -47379.614    4042.4861     -51422.1   0.16137683 
    4600    295.27084   -831.18038    149666.74   -47361.128    4054.8339   -51415.962   0.16005658 
    4800    300.39118   -1026.6342    149979.29   -47346.774    4125.1495   -51471.924   0.15960225 
    5000    297.33656   -1195.3137    150197.83   -47320.738    4083.2016    -51403.94   0.16286561 
    5200    297.85815   -937.94464    149848.87   -47327.504    4090.3644   -51417.869   0.15432732 
    5400    296.91492   -815.38078    149708.29   -47289.087    4077.4114   -51366.498    0.1547177 
    5600    296.96963   -1075.9319    150119.82   -47267.657    4078.1628    -51345.82   0.16188779 
    5800    296.35065   -1183.0485    150257.75   -47253.636    4069.6625   -51323.298   0.16770035 
    6000    297.15493   -864.32178    149834.72   -47245.147    4080.7074   -51325.855   0.16167304 
    6200    300.93381   -797.17787    149710.53   -47242.079    4132.6012    -51374.68   0.15717282 
    6400    303.04075   -1129.9358    150164.45   -47203.992     4161.535   -51365.527   0.16318507 
    6600    294.46743   -1222.4097    150266.74   -47240.962    4043.8011   -51284.763   0.16591339 
    6800     298.2115    -842.6385    149779.24   -47288.955    4095.2169   -51384.172   0.16018779 
    7000    299.10672   -786.77666    149695.82   -47294.616    4107.5105   -51402.126   0.16000424 
    7200    299.89588   -1168.7461    150227.94   -47234.555    4118.3478   -51352.902   0.16216383 
    7400    302.69501   -1208.6885    150308.28   -47217.147    4156.7871   -51373.934   0.15610431 
    7600     303.9997   -833.36771    149774.29   -47260.492    4174.7038   -51435.196   0.15526664 
    7800    295.93046   -829.03768    149770.45   -47290.378    4063.8922   -51354.271   0.15743481 
    8000    300.37791   -1186.0483    150296.33   -47248.476    4124.9673   -51373.444   0.16185843 
    8200    299.88683   -1141.8012    150236.16   -47286.093    4118.2235   -51404.316   0.16005189 
    8400    299.76212   -752.36162    149708.24    -47320.59    4116.5108   -51437.101   0.14862249 
    8600    297.88459   -892.49162    149820.01   -47278.047    4090.7276   -51368.775   0.15981419 
    8800    298.26693   -1250.1799    150359.06   -47198.032     4095.978    -51294.01   0.17023923 
    9000    300.96498   -1091.5559    150180.92   -47179.302    4133.0292   -51312.331   0.16258922 
    9200    304.85146   -720.29472    149659.63   -47171.676    4186.4007   -51358.076   0.15747765 
    9400    300.43204   -904.77327    149875.91   -47220.318    4125.7106   -51346.029   0.16122695 
    9600    303.98623   -1281.4705    150358.77   -47201.738    4174.5188   -51376.257   0.16827366 
    9800    304.97155    -1049.692    150080.33   -47223.009    4188.0498   -51411.058   0.16006127 
   10000    304.18408   -736.08461    149618.05   -47223.907    4177.2358   -51401.143   0.15943725 
   10200    303.42535   -975.17655    149963.91   -47213.624    4166.8165    -51380.44   0.16785883 
   10400    296.19277   -1328.6915    150416.56   -47190.648    4067.4944   -51258.142   0.17122606 
   10600    302.37762   -1015.0585    150002.45   -47179.142    4152.4284    -51331.57    0.1634856 
   10800    305.29218   -673.13017     149591.7   -47218.555    4192.4529   -51411.008   0.15501889 
   11000     300.0861   -1055.5959    150053.08   -47254.447    4120.9599   -51375.406    0.1589154 
   11200    298.18223   -1291.2197    150364.22   -47266.168    4094.8149   -51360.983   0.16500874 
   11400    297.57823   -899.40913     149859.5   -47300.622    4086.5204   -51387.142   0.16179728 
   11600    305.80258   -736.82433    149634.04   -47275.634     4199.462   -51475.096    0.1557601 
   11800    298.48589   -1124.7266    150173.57   -47342.927    4098.9849   -51441.912   0.15205304 
   12000    299.26027   -1299.7884    150337.32   -47340.369    4109.6191   -51449.988   0.16267142 
   12200    295.37571   -818.78976    149740.59   -47326.287    4056.2741   -51382.561   0.16274799 
   12400     298.8996   -768.35614    149680.18   -47295.979    4104.6663   -51400.645   0.16316594 
   12600    302.29825   -1196.0406    150301.24   -47299.222    4151.3384   -51450.561   0.16369974 
   12800    300.95043   -1228.8252     150313.4    -47308.98    4132.8294   -51441.809    0.1615278 
   13000     296.7229   -765.49628    149678.27   -47297.988    4074.7745   -51372.762   0.15832725 
   13200    297.07569   -792.99858    149747.89   -47269.769    4079.6192   -51349.388   0.16173311 
   13400    303.03813   -1226.7961    150364.07   -47281.188    4161.4989   -51442.687   0.16962335 
   13600    301.24003   -1141.8662    150233.24   -47273.626    4136.8063   -51410.433   0.16175906 
   13800    295.95277    -771.4729    149677.63   -47275.444    4064.1987   -51339.643   0.15784531 
   14000    303.86459   -845.62899    149830.79   -47296.008    4172.8484   -51468.856   0.15722623 
   14200    295.48828   -1214.4964     150282.9   -47315.108      4057.82   -51372.928   0.16913916 
   14400    294.03222   -1062.7845       150064   -47342.563    4037.8245   -51380.387   0.16566624 
   14600     297.6863   -800.00313    149646.74   -47344.486    4088.0045   -51432.491   0.16242209 
   14800    298.27388   -928.46148    149855.76   -47324.984    4096.0734   -51421.058    0.1595371 
   15000    292.92818   -1217.8219    150207.65   -47372.685    4022.6632   -51395.348   0.16186308 
   15200    290.95066   -1012.4947     149985.9   -47430.767    3995.5067   -51426.273   0.15622469 
   15400      293.132   -804.84936    149708.15   -47451.209    4025.4622   -51476.671    0.1525689 
   15600    297.59657   -1002.7638    149933.07    -47487.01    4086.7723   -51573.783   0.15301317 
   15800     293.5865   -1177.6105       150139   -47434.354    4031.7035   -51466.057   0.15573763 
   16000    294.98238    -964.3559    149960.57    -47422.39    4050.8726   -51473.262   0.15456095 
   16200    299.25516   -893.25906    149808.55   -47371.825     4109.549   -51481.374   0.15769209 
   16400    296.32086   -1025.3983    149978.72   -47365.963    4069.2534   -51435.217   0.15373754 
   16600    296.18867   -1094.0815    150131.77   -47380.637    4067.4382   -51448.075   0.15833216 
   16800    295.66537   -1010.6761    149958.11   -47336.002    4060.2518   -51396.254   0.16375234 
   17000    293.94399   -928.96821    149812.25   -47362.448    4036.6128   -51399.061   0.16189941 
   17200    299.65806   -982.76793    149976.47    -47342.32    4115.0818   -51457.402   0.15518902 
   17400    294.25557   -1087.6459    150095.35   -47386.078    4040.8916   -51426.969   0.15587773 
   17600    292.03146   -965.37626     149912.2   -47428.359    4010.3489   -51438.708   0.15963107 
   17800    292.48647   -918.11499    149836.56   -47447.429    4016.5973   -51464.026   0.15879595 
   18000    288.55233   -1082.9408    150028.88   -47478.494    3962.5715   -51441.066   0.16376551 
   18200    291.93024   -1067.6433    150065.82    -47504.31    4008.9588   -51513.269      0.15324 
   18400    293.24125   -909.63184    149856.72   -47529.102    4026.9624   -51556.065   0.14489261 
   18600    293.39115   -941.20413    149847.03   -47485.399    4029.0209    -51514.42   0.15793271 
   18800    288.70718   -1087.1415    150072.96   -47414.286    3964.6979   -51378.984   0.16890537 
   19000    289.92717   -1077.7535    150075.43   -47443.422    3981.4515   -51424.873   0.15826374 
   19200    296.28785   -923.61764    149811.17   -47420.778    4068.8002   -51489.578   0.15411503 
   19400    296.06779   -929.71612    149800.78   -47412.034    4065.7782   -51477.812    0.1553012 
   19600    295.28732   -1124.9431    150063.88   -47436.523    4055.0603   -51491.584   0.15285176 
   19800    295.24499     -1096.19    150045.09    -47432.97    4054.4789   -51487.449   0.16052401 
   20000    292.63162   -850.36811    149768.43   -47426.248    4018.5906   -51444.838   0.16107233 
   20200    291.01453   -933.59307    149843.89   -47452.858    3996.3837   -51449.242   0.15861543 
   20400    294.73744   -1127.7347       150120   -47426.737     4047.509   -51474.246   0.15217402 
   20600    292.94267   -1047.1253    150010.42   -47423.975    4022.8621   -51446.837   0.15995618 
   20800    292.97102   -860.74173    149735.54   -47428.711    4023.2515   -51451.962   0.16410974 
   21000    291.59398   -1015.2364    149915.73   -47420.843    4004.3411   -51425.184   0.16476663 
   21200    293.38044   -1192.3577     150249.2   -47404.541    4028.8739   -51433.415   0.15906548 
   21400    294.87725   -1099.9652    150033.98   -47403.158    4049.4289   -51452.587   0.15993373 
   21600    297.80207   -731.83784    149647.28   -47363.953    4089.5943   -51453.547   0.15434955 
   21800    297.43213   -937.52753     149969.9   -47310.498    4084.5141   -51395.012   0.15640901 
   22000    297.19174   -1345.6674    150444.63   -47308.298    4081.2129   -51389.511    0.1668132 
   22200      301.261   -1026.1111    149998.59   -47273.201    4137.0944   -51410.295   0.16420257 
   22400     300.3686   -596.42769    149498.32   -47255.739    4124.8393   -51380.578   0.15437252 
   22600    303.03952    -1019.499    150056.23   -47258.036     4161.518   -51419.554   0.15966581 
   22800      299.606   -1390.4801    150533.03   -47285.128    4114.3669   -51399.494    0.1685714 
   23000    297.68617   -919.23548    149856.16   -47313.255    4088.0027   -51401.257   0.15934884 
   23200     295.8437   -629.07035       149416   -47312.729    4062.7008   -51375.429   0.15624718 
   23400    296.98822   -1146.3171    150125.55   -47314.057    4078.4181   -51392.475   0.16359298 
   23600    296.27232   -1341.9163     150442.3    -47323.56    4068.5869   -51392.147   0.16548202 
   23800    300.03306   -814.10014    149714.17   -47271.882    4120.2315   -51392.114   0.15062638 
   24000    297.84292   -678.68974    149522.05   -47313.414    4090.1553    -51403.57   0.15137048 
   24200    299.45893   -1223.8867    150265.94   -47286.596    4112.3473   -51398.943    0.1628877 
   24400    297.95273   -1329.9301    150377.58   -47289.811    4091.6632   -51381.474   0.16979229 
   24600    303.11409   -766.98299    149658.91    -47299.91     4162.542   -51462.452   0.16162369 
   24800     299.7862    -738.8777    149631.19   -47222.524    4116.8416   -51339.365   0.16042212 
   25000    304.23748   -1235.1976    150316.56   -47212.459    4177.9691   -51390.428   0.16202651 
   25200    300.86501   -1227.1526    150270.39   -47236.408    4131.6564   -51368.064   0.16603656 
   25400    301.20952   -730.94108    149649.89   -47309.432    4136.3874   -51445.819   0.15872462 
   25600    295.88633   -861.46626    149745.17   -47331.758    4063.2862   -51395.044   0.16364703 
   25800    296.02274   -1226.7502    150267.02   -47301.179    4065.1594   -51366.338   0.16111254 
   26000    300.52438   -1100.2763    150128.26   -47280.475    4126.9786   -51407.454     0.155865 
   26200    299.43163   -805.64575    149683.36    -47334.62    4111.9724   -51446.592   0.15495574 
   26400    295.71715    -915.6611    149834.33   -47356.334     4060.963   -51417.297   0.16057539 
   26600    293.14617   -1180.4456    150212.03   -47360.364    4025.6567   -51386.021   0.16729012 
   26800    293.57453   -1067.6928    150029.94   -47367.904    4031.5392   -51399.444   0.16331235 
   27000    291.76576   -831.85961    149700.35    -47372.03    4006.7002   -51378.731   0.15144905 
   27200    294.00116   -1014.6935    149902.92   -47364.926    4037.3979   -51402.324   0.15683403 
   27400     296.4851   -1136.0463    150172.38   -47324.595    4071.5089   -51396.104   0.16300271 
   27600    297.70915   -992.06207    149964.28   -47332.121    4088.3182   -51420.439   0.15716122 
   27800    296.12611   -874.34051    149770.02    -47331.74     4066.579   -51398.319   0.15317868 
   28000    298.06024   -1014.3875    150031.22    -47316.39    4093.1397    -51409.53   0.15815193 
   28200    296.56249   -1156.6389    150217.75   -47332.056    4072.5716   -51404.628   0.16227499 
   28400    297.44528   -963.05607    149951.82   -47332.315    4084.6947    -51417.01   0.15716825 
   28600     292.7029    -864.8222    149827.34   -47354.372    4019.5695   -51373.942    0.1591895 
   28800    295.13086   -1068.4476     150108.3   -47364.317    4052.9117   -51417.229   0.16318289 
   29000     290.1518    -1130.792    150196.54    -47399.49    3984.5362   -51384.026   0.16010959 
   29200    292.53588   -912.30092    149891.14    -47441.35    4017.2758   -51458.626   0.15079808 
   29400    295.15711   -883.14638    149827.39   -47443.921    4053.2721   -51497.194   0.15620196 
   29600    293.92768   -1092.1338    150128.39   -47400.316    4036.3889   -51436.705   0.15570186 
   29800    293.58715   -1114.1395    150188.14   -47319.528    4031.7125   -51351.241   0.15894823 
   30000    300.36444   -914.21683    149884.64   -47315.424    4124.7823   -51440.206   0.15964779 
   30200    295.87487   -913.45609    149840.09    -47325.57    4063.1288   -51388.699   0.16421528 
   30400    297.09971    -1119.457    150124.53   -47374.582     4079.949   -51454.531    0.1618377 
   30600    301.62138    -1069.597    150130.62   -47319.763    4142.0433   -51461.806   0.15248657 
   30800    303.75467   -878.67059    149892.71   -47290.168    4171.3389   -51461.507   0.15562931 
   31000    299.46313    -974.6154    149973.24   -47275.638    4112.4049   -51388.043   0.16328974 
   31200    296.99965   -1155.8779    150225.45    -47275.05    4078.5751   -51353.625   0.16293688 
   31400    301.32091   -1026.8339    150072.83   -47274.994    4137.9171   -51412.911   0.15767135 
   31600    299.54044   -866.22017    149805.83   -47342.589    4113.4667   -51456.056   0.15377221 
   31800    300.44104   -976.77912    149992.48   -47310.847    4125.8342   -51436.682    0.1550011 
   32000    300.51823   -1185.4792    150290.68   -47275.748    4126.8942   -51402.642   0.16595878 
   32200    297.30075   -1015.6219     150050.3    -47313.58    4082.7099    -51396.29   0.16525082 
   32400    302.41115   -740.76891    149635.64   -47314.416    4152.8889   -51467.305   0.15712771 
   32600    301.49813   -980.12156    149954.76   -47296.131    4140.3507   -51436.482   0.15869245 
   32800    298.22627   -1351.2832    150450.72   -47282.492    4095.4197   -51377.912   0.16809203 
   33000    296.86255   -976.61729    149949.25   -47279.588    4076.6922    -51356.28    0.1686508 
   33200    299.75587   -568.60862    149390.07   -47280.917    4116.4251   -51397.342   0.16385954 
   33400    297.72155   -1078.9377    150065.04   -47233.417    4088.4886   -51321.906   0.16971315 
   33600    298.92821   -1464.8986    150641.89   -47152.622    4105.0591   -51257.681   0.17485753 
   33800    301.96929   -923.04676    149872.71   -47201.647    4146.8211   -51348.468    0.1658105 
   34000    302.49622   -541.83972    149359.74   -47230.156    4154.0572   -51384.213   0.16529202 
   34200    300.32809    -1107.813    150181.84   -47252.712    4124.2831   -51376.995   0.16394974 
   34400    300.90499   -1436.7592    150595.75    -47310.99    4132.2054   -51443.195    0.1643768 
   34600    294.42361   -789.33592    149749.17    -47296.92    4043.1993   -51340.119   0.15994378 
   34800    295.33635   -588.12287    149455.69   -47343.684    4055.7336   -51399.418   0.15869273 
   35000    293.28652   -1194.2266    150253.26   -47358.545    4027.5841   -51386.129   0.16346162 
   35200    297.39279   -1319.1144    150417.26   -47341.561    4083.9738   -51425.535   0.16339299 
   35400    298.34253   -778.14878    149677.74   -47313.974    4097.0163    -51410.99   0.16305365 
   35600    302.34666   -727.26037    149608.16   -47310.146    4152.0033   -51462.149   0.15720841 
   35800    301.35476   -1172.9995    150228.58   -47300.935    4138.3819   -51439.317   0.15922012 
   36000     294.2924   -1220.9278    150226.63   -47300.018    4041.3974   -51341.416   0.17377127 
   36200    296.32491   -826.69507    149706.26   -47323.731     4069.309    -51393.04   0.16491378 
   36400    296.84791   -814.87592    149757.93   -47350.635    4076.4913   -51427.127   0.15354219 
   36600    300.08394     -1179.95    150205.06   -47319.348    4120.9303   -51440.278    0.1659097 
   36800    294.13333   -1150.0004    150120.33   -47364.598     4039.213   -51403.811   0.17150782 
   37000    295.95227   -847.97831    149744.53   -47358.408    4064.1917     -51422.6   0.16361238 
   37200    298.81267   -892.14449    149858.38   -47318.237    4103.4724   -51421.709   0.16500099 
   37400     305.0904   -1164.3899    150160.79    -47305.87    4189.6819   -51495.552   0.16923032 
   37600    298.13194   -1062.8182    150027.61   -47335.749    4094.1243   -51429.873   0.16858926 
   37800    301.10125   -845.25407    149787.24   -47303.122    4134.9005   -51438.022   0.15959606 
   38000    298.24956   -974.52366    149936.59   -47357.664    4095.7394   -51453.404   0.16658193 
   38200    294.77398   -1143.2205    150121.84   -47347.671    4048.0108   -51395.682   0.16640396 
   38400    299.55473   -983.93281    149948.54   -47314.479    4113.6629   -51428.142   0.15932282 
   38600    299.84167    -864.7178    149795.36   -47314.263    4117.6033   -51431.867   0.15890904 
   38800    292.68184   -1038.1474    149983.07   -47363.431    4019.2802   -51382.711   0.16403533 
   39000    294.67761   -1110.6465    150090.73     -47389.2    4046.6873   -51435.888   0.16440684 
   39200    291.20218   -970.16768    149880.42   -47411.857    3998.9607   -51410.818   0.16279277 
   39400    292.81969   -928.77804    149821.04   -47403.728    4021.1734   -51424.902   0.16162999 
   39600    290.74062    -1089.884    150031.95   -47471.956    3992.6223   -51464.579   0.16098669 
   39800    294.39624   -1034.1665    149991.51   -47461.584    4042.8235   -51504.407   0.15874909 
   40000    291.76295   -920.99762    149781.17   -47476.968    4006.6616    -51483.63   0.15684937 
   40200    290.21187    -978.9022    149846.17    -47450.67    3985.3611   -51436.032   0.15702787 
   40400    296.16439   -1058.0854    150059.37   -47442.621    4067.1048   -51509.725   0.15798759 
   40600    293.99725   -1051.0256    150006.41    -47472.65    4037.3442   -51509.994   0.16170237 
   40800    292.80438   -886.46223    149791.44   -47494.931    4020.9631   -51515.894   0.15724669 
   41000    292.61212   -940.54538    149853.32   -47448.378    4018.3228   -51466.701   0.16068392 
   41200    292.27989   -1093.8336    150098.35   -47478.298    4013.7604   -51492.059    0.1608212 
   41400    289.42557   -1029.1705    150000.15   -47442.591    3974.5632   -51417.154   0.16200715 
   41600    294.33176   -852.22505    149754.01   -47442.409    4041.9379   -51484.347   0.15714799 
   41800    291.13853   -1005.0194    149913.69   -47439.156    3998.0866   -51437.243   0.16163538 
   42000    295.64985   -1199.8164    150193.05   -47407.326    4060.0387   -51467.365   0.17049369 
   42200    294.88997   -1021.4209    149966.22   -47437.718    4049.6036   -51487.322   0.15575936 
   42400    291.94836   -778.83432     149634.4   -47493.658    4009.2077   -51502.866   0.15109932 
   42600    294.67793   -1020.1936    149902.97   -47518.584    4046.6917   -51565.275   0.16072833 
   42800    290.79785   -1242.9168    150267.79    -47512.36    3993.4082   -51505.768   0.15702159 
   43000    288.60178   -984.34009    149858.77   -47471.224    3963.2504   -51434.474   0.15884968 
   43200    293.04639   -697.49672    149454.65   -47480.228    4024.2865   -51504.515   0.15683778 
   43400    296.11148   -1041.3381    149958.51   -47465.248    4066.3781   -51531.626   0.16031899 
   43600    286.34473   -1356.6401    150402.66   -47451.348    3932.2553   -51383.604   0.16477908 
   43800    297.13168   -924.49432    149829.25   -47433.652    4080.3881    -51514.04   0.15529545 
   44000    291.53759   -622.85531    149407.47   -47457.492    4003.5667   -51461.059   0.16043122 
   44200    288.68681   -1127.5303    150037.65   -47494.075    3964.4181   -51458.493   0.16398355 
   44400    291.79039   -1320.6577     150382.9   -47459.755    4007.0383   -51466.794   0.16433532 
   44600    294.62377   -854.78968    149725.94   -47405.097     4045.948   -51451.045   0.15943346 
   44800    295.74376    -688.4644    149480.77   -47373.522    4061.3283    -51434.85   0.16107719 
   45000    298.67732    -1213.147    150213.12   -47401.678    4101.6137   -51503.291   0.16393245 
   45200    293.83215   -1321.3244    150352.76   -47418.285     4035.077   -51453.362   0.16912541 
   45400    293.38995   -810.26688    149606.69   -47479.033    4029.0045   -51508.037   0.15817835 
   45600     293.6795   -711.55124    149499.96   -47469.504    4032.9807   -51502.485   0.15912205 
   45800    287.76135   -1226.6584    150205.49   -47431.286    3951.7092   -51382.995   0.16573599 
   46000    296.84279   -1250.6073    150248.79   -47428.304     4076.421   -51504.725   0.16788773 
   46200    288.74515   -770.22065    149622.99    -47469.57    3965.2193   -51434.789    0.1606781 
   46400    287.40446   -780.49183    149621.89   -47453.102    3946.8082   -51399.911   0.16517577 
   46600    295.70886   -1171.1729    150204.35   -47442.848     4060.849   -51503.697   0.16628333 
   46800    296.70785   -1147.7376    150164.54   -47406.067    4074.5678   -51480.634   0.16122926 
   47000    291.82076       -820.1    149639.75   -47392.317    4007.4554   -51399.773   0.16040482 
   47200    299.52519   -842.66359    149749.07   -47362.022    4113.2572   -51475.279   0.15601478 
   47400    299.40765   -1212.1734    150222.53   -47282.972    4111.6431   -51394.615   0.16719965 
   47600    301.47905   -1128.3966    150075.72   -47258.841    4140.0887    -51398.93   0.17452901 
   47800    299.81011   -764.86178    149697.76    -47231.23    4117.1699     -51348.4   0.16211623 
   48000    298.66266   -986.11424    149932.39   -47232.765    4101.4125   -51334.177   0.16668621 
   48200    294.52148   -1192.1227    150249.22   -47227.246    4044.5434    -51271.79   0.16790705 
   48400    296.59256   -1023.4495    150008.74   -47212.048    4072.9847   -51285.033   0.17267207 
   48600    303.10531    -801.0171    149713.02   -47283.168    4162.4215    -51445.59   0.16759371 
   48800    295.71198   -1006.0298     149972.4   -47219.576    4060.8919   -51280.468   0.16830025 
   49000    298.60706   -1176.1617    150251.22    -47192.88    4100.6489   -51293.529   0.16969005 
   49200    298.59305   -994.52779    149972.95   -47233.038    4100.4565   -51333.495   0.16283118 
   49400    296.14867   -816.60985    149691.46   -47245.982    4066.8889   -51312.871   0.16814014 
   49600     302.6071   -1015.4352    149997.78   -47261.097    4155.5798   -51416.677   0.16854966 
   49800    298.52214   -1187.2943    150261.03   -47235.818    4099.4827   -51335.301   0.17205488 
   50000    300.87177   -1015.3855    149932.57   -47241.752    4131.7492   -51373.501   0.17300068 
   50200    301.51573   -794.29883     149672.9    -47284.69    4140.5925   -51425.282   0.16136626 
   50400     300.8189   -983.11659    149994.58   -47284.437    4131.0232    -51415.46   0.16394217 
   50600    298.41631   -1249.2823    150232.42   -47301.641    4098.0294    -51399.67   0.17362081 
   50800    303.44175   -957.35008    149900.02    -47318.11    4167.0417   -51485.151   0.15843058 
   51000    295.58312   -836.42555    149746.88   -47254.355    4059.1223   -51313.477   0.16234668 
   51200    297.79618   -1052.1517    150055.53   -47282.769    4089.5134   -51372.283   0.16274152 
   51400     296.3315   -1113.1746    150161.14   -47242.284    4069.3996   -51311.683    0.1690208 
   51600    303.80667   -947.55947    149926.15   -47247.636     4172.053   -51419.689   0.16179651 
   51800      300.702    -931.9841    149892.98   -47244.957    4129.4178   -51374.375   0.16063669 
   52000     301.2227   -1108.4256    150106.53   -47203.564    4136.5684   -51340.133   0.17456414 
   52200    301.87856    -1083.954    150139.16   -47174.537     4145.575   -51320.112   0.17456767 
   52400    300.65984   -918.81649    149958.31   -47157.501    4128.8388    -51286.34   0.16584432 
   52600    301.41196   -958.69702    149940.47   -47197.554    4139.1675   -51336.722   0.16942765 
   52800    296.56373   -1038.6265    150050.81   -47214.605    4072.5886   -51287.193   0.16766406 
   53000     296.9589   -1047.3802    150032.67   -47221.001    4078.0154   -51299.016   0.16974717 
   53200    300.57638   -939.87977    149920.42   -47231.005    4127.6928   -51358.698   0.16533814 
   53400    296.86314   -950.26763    149933.14   -47259.795    4076.7004   -51336.496   0.16796316 
   53600    295.77924   -1073.5432     150031.5   -47284.939    4061.8156   -51346.754   0.16811341 
   53800    298.28937   -1041.2298    149998.54   -47261.956    4096.2863   -51358.242   0.16713302 
   54000    300.02358    -994.6802    149941.18   -47252.945    4120.1014   -51373.047   0.17352135 
   54200    296.41146   -974.29939    149962.37   -47260.681    4070.4976   -51331.179   0.17036066 
   54400    299.48727   -1061.0448    150051.95   -47287.054    4112.7365   -51399.791   0.16765711 
   54600    295.62534   -990.10796    149989.14   -47282.148    4059.7022    -51341.85   0.16335779 
   54800    300.00888   -962.36181    149916.78   -47226.861    4119.8995   -51346.761   0.16291649 
   55000    296.79674   -1040.9212    150026.89   -47228.129    4075.7885   -51303.917   0.16511552 
   55200    304.24078   -1047.0858    150106.47   -47257.872    4178.0145   -51435.887   0.16185737 
   55400    297.54668   -968.34989    149985.68   -47283.862    4086.0872   -51369.949   0.16518408 
   55600    299.27872   -967.09167    149913.57   -47322.599    4109.8726   -51432.472   0.16134981 
   55800    299.62194   -1010.3921    149993.32   -47292.953    4114.5859   -51407.539   0.16252974 
   56000    298.71715   -1032.9651    150053.44   -47275.904    4102.1607   -51378.065   0.17050741 
   56200    295.09099   -996.05394       149981   -47312.404    4052.3641   -51364.768   0.16771711 
   56400    296.05577   -998.52798    149920.96   -47317.049     4065.613   -51382.662   0.16899724 
   56600    300.77493   -1003.8066    149982.96   -47320.055    4130.4193   -51450.474    0.1602808 
   56800    303.70804   -998.21679     149999.5   -47267.859    4170.6986   -51438.558   0.15379142 
   57000    298.27528   -985.07559    149925.86   -47275.714    4096.0927   -51371.807   0.16334657 
   57200    296.25975   -978.26722    149903.75   -47306.388    4068.4142   -51374.802   0.16577855 
   57400    294.52063   -1016.9227    149971.77   -47323.959    4044.5316   -51368.491    0.1626334 
   57600    298.53194   -998.22899    149939.28   -47313.353    4099.6173   -51412.971    0.1612781 
   57800    298.20995   -959.37326    149873.67   -47326.693    4095.1956   -51421.889   0.16610598 
   58000    300.13896    -1006.264    149909.35   -47338.346    4121.6858   -51460.032   0.16863243 
   58200    296.53274   -1067.4204    149993.38   -47377.156     4072.163   -51449.319   0.16024016 
   58400    298.33466   -991.23082    149925.75   -47368.924    4096.9081   -51465.833   0.15746508 
   58600    299.80077   -957.90085    149828.33   -47349.624    4117.0417   -51466.666   0.16068976 
   58800    295.41891   -982.49764    149910.76   -47380.117    4056.8674   -51436.984   0.15515704 
   59000    296.77854   -1072.6706     150017.4   -47403.718    4075.5386   -51479.257    0.1517796 
   59200     302.1341   -982.82168    149941.39   -47405.423    4149.0843   -51554.507   0.15578919 
   59400    293.48956   -911.84132    149849.56   -47346.862    4030.3724   -51377.235   0.16369917 
   59600    294.01119   -1030.2218    149967.43    -47341.96    4037.5357   -51379.495   0.16279868 
   59800    301.20462   -1084.2028    150065.82   -47326.212    4136.3201   -51462.532   0.16236906 
   60000    294.38363   -962.99235    149947.95   -47314.041    4042.6503   -51356.691   0.16682812 
   60200    296.56258   -902.99741    149821.89   -47288.736    4072.5728   -51361.309   0.16633067 
   60400    294.66887   -1034.2396    150005.15   -47254.395    4046.5673   -51300.962   0.15937696 
   60600    298.56758   -1133.1942    150196.23   -47293.943    4100.1068    -51394.05   0.16489564 
   60800    297.71596   -960.44471    149972.34   -47234.921    4088.4117   -51323.333   0.16384205 
   61000    300.89769   -826.93912    149820.18   -47279.281    4132.1052   -51411.386   0.15293924 
   61200    305.11914   -1095.3249     150109.6   -47280.805    4190.0767   -51470.881   0.16029216 
   61400    298.94554   -1139.5349    150196.19   -47276.003    4105.2971     -51381.3   0.16620616 
   61600    297.89383   -905.45205    149837.61   -47272.158    4090.8545   -51363.012   0.16246409 
   61800    298.74013    -862.0915    149760.93   -47274.252    4102.4763   -51376.728   0.16574008 
   62000    296.29228    -1145.433    150135.79   -47293.985     4068.861   -51362.846   0.17120479 
   62200    295.74181   -1177.4371     150152.2   -47305.034    4061.3016   -51366.336    0.1674283 
   62400    300.54007   -824.48217    149724.21   -47270.502    4127.1941   -51397.696   0.16028079 
   62600    298.15567   -826.92201    149775.29   -47291.132    4094.4501   -51385.583   0.15811037 
   62800    300.47069   -1190.0724    150241.97    -47260.28    4126.2413   -51386.522   0.16655223 
   63000    295.98813   -1160.3275    150114.55   -47228.067    4064.6842   -51292.751   0.17081136 
   63200    297.77415   -799.53704     149643.6   -47239.187    4089.2109   -51328.398   0.16191818 
   63400    301.96673   -877.08767    149874.96   -47192.794    4146.7858    -51339.58    0.1582816 
   63600    303.14607   -1315.4016     150421.5   -47163.781    4162.9812   -51326.763   0.17307285 
   63800    297.29399   -1129.9542    150123.01   -47197.029    4082.6171   -51279.646   0.17852901 
   64000     298.0316   -644.45354    149536.56   -47198.081    4092.7464   -51290.827   0.16287884 
   64200    302.95346   -943.22922    149933.35   -47196.104    4160.3362   -51356.441   0.16306079 
   64400    300.62658   -1303.3083    150493.93   -47172.714    4128.3822   -51301.097   0.17098476 
   64600    299.54637   -995.44997    150032.42    -47236.46     4113.548   -51350.008   0.16459548 
   64800      301.934   -638.32754     149505.4   -47255.363    4146.3364     -51401.7     0.158623 
   65000    302.23944   -989.44855    150020.89    -47238.74    4150.5309   -51389.271   0.16439877 
   65200    303.46855    -1366.516    150506.12   -47257.922    4167.4097   -51425.332   0.17445335 
   65400    296.65928   -947.14251    149911.33   -47293.374    4073.9009   -51367.275   0.16290164 
   65600    299.33396    -653.3945    149464.95   -47324.655    4110.6311   -51435.286   0.16310037 
   65800    295.26434   -1059.3316    150036.56   -47291.613    4054.7447   -51346.357   0.17866583 
   66000    302.40686   -1307.5458    150394.22   -47283.363      4152.83   -51436.193   0.17782716 
   66200    301.19167   -935.26046    149852.59   -47318.685    4136.1423   -51454.827   0.16204604 
   66400    299.24559   -706.35384    149569.21    -47318.01    4109.4176   -51427.428   0.16301269 
   66600    293.47311   -1084.0176    150068.85   -47324.498    4030.1464   -51354.644    0.1711046 
   66800    297.73898   -1196.3775    150261.86   -47301.888    4088.7279   -51390.616   0.16592107 
   67000    294.93431   -888.23732    149836.42   -47338.611    4050.2126   -51388.823   0.16395404 
   67200    299.64253   -838.90122    149734.12   -47362.799    4114.8686   -51477.668   0.16374899 
   67400    294.46549   -1086.2363    150073.07     -47392.4    4043.7744   -51436.174   0.16414664 
   67600    296.60909   -1137.8397    150138.46    -47346.22    4073.2115   -51419.432   0.16181719 
   67800    304.95404   -911.16291    149902.59   -47297.013    4187.8094   -51484.822    0.1621976 
   68000    296.86011   -935.70519    149923.07    -47292.33    4076.6587   -51368.989   0.17198929 
   68200    295.42779   -1092.8516    150130.85   -47364.173    4056.9892   -51421.162   0.16673523 
   68400     297.5274    -1014.744    150048.85   -47306.982    4085.8224   -51392.804   0.16341715 
   68600    299.09279   -922.16761    149854.85   -47295.087    4107.3192   -51402.407   0.16404229 
   68800    305.22432   -955.66123    149960.67   -47260.509     4191.521    -51452.03    0.1613805 
   69000    296.44936   -1104.8499    150139.56   -47302.942    4071.0181    -51373.96   0.16525359 
   69200    293.68209      -1052.4    150008.86   -47310.145    4033.0163   -51343.161   0.16967683 
   69400      296.836   -907.45347    149833.29   -47353.168    4076.3276   -51429.495   0.16206616 
   69600    298.82413   -1002.8798    149964.21   -47365.346    4103.6299   -51468.976   0.16177898 
   69800    295.83242   -1110.7957    150122.07    -47328.37    4062.5459   -51390.916   0.16721191 
   70000    296.93205   -1034.7952    150007.51   -47289.783    4077.6467    -51367.43   0.16344159 
   70200    300.13972   -928.03862    149850.78   -47275.474    4121.6962    -51397.17   0.16511422 
   70400    302.79718   -954.50624    149969.78   -47288.943    4158.1901   -51447.133   0.16479612 
   70600    296.19477   -1080.4503    150132.59   -47256.766    4067.5219   -51324.288   0.16854519 
   70800    297.81354   -994.78299    150008.49   -47284.099    4089.7517   -51373.851   0.16022568 
   71000    294.74691   -900.10621     149833.1   -47333.331     4047.639    -51380.97   0.16154576 
   71200     294.2664   -987.72788    149898.11   -47340.369    4041.0404   -51381.409   0.16380784 
   71400    294.45883   -1092.7141     150044.7   -47303.772     4043.683   -51347.455   0.16977028 
   71600    295.67651    -1014.079    149996.92   -47281.181    4060.4049   -51341.586   0.16745898 
   71800    299.30613   -935.29803    149880.73   -47303.721     4110.249    -51413.97   0.16221092 
   72000    301.60936   -953.86754    149958.74   -47328.759    4141.8783   -51470.638   0.15775513 
   72200    291.29097   -1076.3164    150052.85   -47362.009      4000.18   -51362.189   0.16267854 
   72400    297.35861   -982.11947    149924.09   -47345.771    4083.5044   -51429.275   0.16958981 
   72600    299.06632   -942.61991    149868.41   -47312.954    4106.9557    -51419.91   0.17342785 
   72800    289.94987   -1045.6379    150060.72   -47387.825    3981.7632   -51369.589   0.15784961 
   73000    295.35172   -1080.9107    150109.44   -47385.084    4055.9447   -51441.029   0.15519756 
   73200    294.52849   -926.92561     149870.2   -47400.758    4044.6395   -51445.398   0.15780305 
   73400    293.44361   -864.23712    149787.16   -47397.397    4029.7413   -51427.139      0.16191 
   73600    293.97194   -1066.2017    150093.29   -47376.138    4036.9966   -51413.135   0.16612705 
   73800    293.52662   -1177.7069    150164.52   -47369.254    4030.8813   -51400.135   0.16786987 
   74000     290.5169   -867.70144     149794.3    -47422.71      3989.55    -51412.26   0.15554598 
   74200    299.66224   -847.86331    149747.41   -47421.458    4115.1393   -51536.597   0.15392057 
   74400    294.12623   -1153.3896    150174.75   -47375.405    4039.1155   -51414.521   0.16936812 
   74600    291.61458   -1190.0045    150208.49   -47397.341     4004.624   -51401.965   0.17318198 
   74800    299.17809   -811.34174     149736.3     -47415.7    4108.4906   -51524.191   0.15695207 
   75000    302.93012   -794.01068    149725.31   -47379.081    4160.0157   -51539.096   0.15181145 
   75200    298.54951   -1170.2384     150220.5   -47357.682    4099.8585   -51457.541    0.1596538 
   75400    297.90461   -1166.2577    150195.99   -47343.765    4091.0024   -51434.768   0.16224443 
   75600    296.76949   -775.63033    149697.63   -47328.671    4075.4143   -51404.085   0.16226115 
   75800    294.35201   -823.10389    149791.56   -47302.612     4042.216   -51344.828   0.16209637 
   76000    300.92754   -1212.3956    150343.94   -47278.711    4132.5151   -51411.226   0.16613057 
   76200    295.30217   -1129.0927    150155.77   -47306.356    4055.2642    -51361.62   0.17053905 
   76400    294.77582   -703.54718    149592.66   -47281.249     4048.036   -51329.285   0.16029848 
   76600    301.68546   -931.26516    149863.16   -47266.394    4142.9233   -51409.317   0.16265613 
   76800     297.2815   -1265.3222    150391.13   -47256.217    4082.4455   -51338.663   0.16614737 
   77000    299.17827   -1062.8439    150072.94   -47264.251     4108.493   -51372.744   0.16715775 
   77200     302.6611   -725.26674    149579.48   -47318.932    4156.3214   -51475.253   0.15660266 
   77400    299.46996   -967.15045    149949.84   -47305.219    4112.4988   -51417.718   0.15356494 
   77600    297.16901   -1290.7073    150383.12   -47313.665    4080.9008   -51394.566   0.15909525 
   77800    294.05479   -1016.0108    149955.34   -47333.203    4038.1345   -51371.337     0.161623 
   78000    297.46241   -699.46257    149587.69   -47340.207    4084.9298   -51425.137   0.16253775 
   78200    298.05748   -1058.4282    150052.48   -47329.441    4093.1018   -51422.543    0.1650518 
   78400    296.58151   -1300.8335     150351.9   -47343.756    4072.8328   -51416.589   0.17061336 
   78600    294.27056   -941.27913    149853.31   -47370.441    4041.0975   -51411.538   0.15890802 
   78800    295.62503   -774.93621    149610.16   -47359.744    4059.6979   -51419.442   0.15608577 
   79000    296.73779   -1128.6901    150089.51   -47336.944     4074.979   -51411.923   0.16400634 
   79200    298.74377   -1212.2344     150311.8    -47343.94    4102.5263   -51446.466   0.16698091 
   79400    296.50659   -885.92812    149834.82   -47302.833     4071.804   -51374.637   0.16268452 
   79600    297.71168   -758.45697    149709.89   -47294.953     4088.353   -51383.306   0.14789103 
   79800    299.82928     -1142.12    150177.36   -47315.926    4117.4332   -51433.359   0.16035747 
   80000    296.47316   -1142.7982    150227.55   -47284.944    4071.3449   -51356.288   0.16742749 
   80200    297.18039   -887.28512    149807.62   -47256.638     4081.057   -51337.695    0.1686744 
   80400    302.92078   -862.46217    149834.65   -47226.194    4159.8875   -51386.081   0.16360174 
   80600    296.23061   -1163.8983    150227.85   -47240.165     4068.014   -51308.179    0.1648543 
   80800    299.85827   -1117.5547    150165.85   -47183.837    4117.8313   -51301.668   0.16436605 
   81000    297.63257   -834.14577     149830.2   -47243.198    4087.2666   -51330.465   0.15855444 
   81200    299.14458   -907.00373    149924.04   -47221.333    4108.0304   -51329.363   0.16146808 
   81400     302.2962   -1152.3428    150230.61   -47193.672    4151.3103   -51344.982   0.16416773 
   81600     297.2537   -1071.2516    150122.26   -47216.764    4082.0637   -51298.828   0.16516008 
   81800    301.60194    -901.8723    149852.26   -47226.102    4141.7763   -51367.878   0.15792918 
   82000     299.8692   -944.97614    149928.51   -47189.714    4117.9814   -51307.695   0.16512131 
   82200    301.55868   -1107.8447     150143.8   -47232.759    4141.1823   -51373.942   0.16349959 
   82400    300.70759   -1030.5948    150028.67   -47237.111    4129.4946   -51366.605   0.16763018 
   82600    298.41031   -894.48988    149836.19   -47284.282     4097.947   -51382.229   0.16693982 
   82800      294.098   -968.64321    149956.91    -47323.05    4038.7278   -51361.777   0.16352784 
   83000    297.42164   -1120.8449    150115.83   -47303.751      4084.37   -51388.121   0.16829119 
   83200    297.47161   -1024.7514    150001.37   -47326.156    4085.0562   -51411.212   0.15606545 
   83400    293.08017   -961.05429     149892.3    -47347.77    4024.7504   -51372.521   0.15829782 
   83600    296.53267   -997.15791    149943.52   -47364.026    4072.1622   -51436.188   0.16511573 
   83800    296.41941   -1049.3145    150038.05   -47311.462    4070.6068   -51382.069   0.16342443 
   84000    294.69477   -1020.6912    150021.27   -47342.029     4046.923   -51388.952   0.15609591 
   84200    295.67456   -946.19339    149951.49   -47329.844     4060.378   -51390.222    0.1597376 
   84400    302.19404   -988.25054     149977.5   -47334.406    4149.9074   -51484.313   0.16497055 
   84600    297.81593   -1028.5784    150042.96    -47330.68    4089.7846   -51420.465   0.16536521 
   84800    294.68644   -1027.1818    150021.33   -47341.245    4046.8086   -51388.054   0.16585512 
   85000    294.59343   -947.10008    149936.25   -47304.168    4045.5314   -51349.699   0.16633655 
   85200    300.92824    -960.8844    149960.01   -47273.555    4132.5247   -51406.079   0.16235031 
   85400    296.22169   -1054.0478    150045.89   -47257.887    4067.8916   -51325.778   0.16309803 
   85600    297.20564     -1024.57    150005.73   -47256.332    4081.4038   -51337.736   0.16743079 
   85800    300.41051   -947.89013    149913.98   -47272.213     4125.415   -51397.628   0.16271879 
   86000    303.07569   -983.46304    149964.69   -47223.886    4162.0147   -51385.901   0.15954306 
   86200    298.16259   -1019.6252    150054.12   -47232.573    4094.5452   -51327.118   0.16002997 
   86400    301.39938    -988.3459    150011.25   -47227.291    4138.9946   -51366.286   0.16551114 
   86600    301.51992   -958.20531    149921.96    -47228.58      4140.65    -51369.23   0.16561492 
   86800    302.69551   -967.20446    149973.77   -47258.621     4156.794   -51415.415   0.16195587 
   87000    299.22381   -1085.4389    150068.22   -47279.744    4109.1185   -51388.863   0.16116405 
   87200    303.85255   -971.03706    149976.54   -47250.678     4172.683   -51423.361    0.1610313 
   87400    304.11617   -895.68268    149889.07   -47214.117    4176.3032   -51390.421   0.15954123 
   87600    296.45864   -1063.6214    150030.92   -47279.842    4071.1455   -51350.988   0.16950691 
   87800    301.33171   -1044.7605     150071.7   -47285.443    4138.0655   -51423.508   0.16540632 
   88000    299.33888   -979.82287    149916.82   -47237.073    4110.6987   -51347.772   0.16565745 
   88200    296.86564   -965.46006    149921.58   -47249.455    4076.7347    -51326.19   0.16304118 
   88400    297.48419   -1053.9618     150048.7       -47232     4085.229   -51317.229   0.16733837 
   88600    301.42979    -1011.606    149992.92   -47248.172    4139.4123   -51387.584   0.16559606 
   88800    299.65857   -888.11553    149836.41   -47239.949    4115.0888   -51355.038   0.16222166 
   89000    297.38821   -914.38282    149926.41    -47260.61    4083.9109   -51344.521   0.15974455 
   89200    302.42874   -1130.1327    150193.97   -47231.338    4153.1305   -51384.469   0.16166973 
   89400    302.37095    -1090.229     150131.8   -47204.326    4152.3369   -51356.663   0.16347617 
   89600    298.25762   -845.14791    149775.12    -47231.85    4095.8502     -51327.7   0.15938592 
   89800    298.46455   -939.69783    149863.99   -47267.474    4098.6919   -51366.166   0.16086197 
   90000    294.15936   -1216.0736    150288.96   -47277.001    4039.5705   -51316.572   0.16847207 
   90200    291.54483    -1140.164       150143   -47326.284    4003.6661    -51329.95   0.16349298 
   90400     296.5886   -733.53467    149610.86    -47355.49    4072.9301    -51428.42   0.15550213 
   90600    297.81766   -863.23419    149832.65    -47344.15    4089.8083   -51433.958   0.15320691 
   90800     297.8097   -1346.6746    150429.66   -47359.251    4089.6991    -51448.95   0.16685977 
   91000    299.69456   -1071.0539    150084.87   -47365.686    4115.5832    -51481.27    0.1661145 
   91200    294.12913   -626.86212     149464.6   -47387.302    4039.1554   -51426.457   0.15448143 
   91400    292.84073   -984.63402    149907.73   -47372.939    4021.4622   -51394.401   0.16006712 
   91600    293.64632   -1377.0792    150501.44   -47367.411    4032.5251   -51399.936   0.16204139 
   91800    297.64531   -1012.3821    150022.48   -47351.163    4087.4415   -51438.604   0.16251957 
   92000    295.57784   -628.88193    149477.19   -47373.845    4059.0499   -51432.895   0.15655734 
   92200    297.46267   -1016.4973    149994.86   -47392.281    4084.9334   -51477.214   0.16229693 
   92400    296.84088   -1372.2045    150465.98   -47362.187    4076.3946   -51438.582   0.16796513 
   92600    294.89224   -947.48243    149910.68   -47428.501    4049.6348   -51478.136   0.15610064 
   92800    293.33058   -676.08976    149523.35   -47402.638    4028.1891   -51430.827    0.1544218 
   93000    294.20851   -1100.0956    150110.85   -47321.527    4040.2454   -51361.773   0.16949023 
   93200    300.29714   -1362.8273    150430.38   -47314.737    4123.8581   -51438.595   0.17011275 
   93400    297.11437   -870.23143    149792.46   -47325.714    4080.1504   -51405.864   0.15829268 
   93600    297.01129   -682.39109     149560.7   -47311.995    4078.7349   -51390.729    0.1547837 
   93800     297.7707   -1180.0216    150173.31   -47294.786    4089.1635    -51383.95   0.16389941 
   94000    298.81708   -1240.8141    150298.68   -47292.609    4103.5331   -51396.142   0.16174223 
   94200    294.28669   -806.08018    149742.63   -47383.675     4041.319   -51424.994   0.15134367 
   94400    292.92614    -784.6905    149675.19   -47369.329    4022.6352   -51391.965    0.1592841 
   94600    295.71135   -1193.8903    150192.35   -47359.475    4060.8834   -51420.359    0.1670398 
   94800    294.06151   -1145.1021     150203.5   -47411.259    4038.2267   -51449.486   0.16086591 
   95000    296.35218   -830.65615    149739.03   -47424.626    4069.6835    -51494.31   0.15378681 
   95200    293.09155   -871.33225    149767.14   -47428.844    4024.9067   -51453.751   0.16088488 
   95400    293.78998   -1136.3868    150146.27   -47435.602    4034.4979     -51470.1   0.16671568 
   95600    294.89537   -1076.3327    150077.61   -47396.801    4049.6778   -51446.479   0.15748208 
   95800    294.85501   -885.50222    149747.24   -47363.802    4049.1235   -51412.925   0.15681762 
   96000    295.14061    -929.1914    149876.59   -47354.016    4053.0456   -51407.062   0.15609834 
   96200    294.34694   -1158.2374    150204.08    -47391.83    4042.1464   -51433.976   0.15743055 
   96400     296.9116   -1037.3775    150057.74   -47387.212    4077.3658   -51464.578    0.1623224 
   96600    292.25341    -883.7943    149790.66    -47403.61    4013.3968   -51417.007   0.16526353 
   96800    289.24347   -977.44456    149945.37   -47454.012    3972.0625   -51426.075   0.16438741 
   97000    296.04061   -1095.4149    150116.36   -47435.403    4065.4048   -51500.808   0.15864444 
   97200    293.47972   -1031.9379     149960.6   -47422.618    4030.2372   -51452.855    0.1597972 
   97400    295.56263    -918.4339    149817.98   -47379.152     4058.841   -51437.993   0.16412305 
   97600    298.30072   -1036.2332     150024.7   -47348.724    4096.4421   -51445.166   0.16273924 
   97800    301.76949   -1093.3302    150153.17   -47341.163    4144.0772    -51485.24   0.15854698 
   98000    300.77942   -988.65893    149946.84   -47316.153     4130.481   -51446.634   0.15633782 
   98200    296.29018   -909.99932    149824.13   -47328.449    4068.8321   -51397.281   0.15936366 
   98400    297.75486   -1010.8701    150029.71   -47253.596    4088.9459   -51342.542   0.16143769 
   98600    298.57076   -1118.1997    150174.49     -47299.3    4100.1505    -51399.45   0.16214062 
   98800    299.60179    -972.5743    149944.17   -47264.833    4114.3091   -51379.142   0.16365836 
   99000     295.2955   -881.39059    149791.87   -47269.739    4055.1726   -51324.912   0.17034844 
   99200    297.18682   -1044.0163    149999.46    -47333.76    4081.1454   -51414.905   0.16149697 
   99400    293.52542   -1146.5109    150101.62   -47427.126    4030.8647   -51457.991   0.16418456 
   99600    292.79821   -907.43742    149839.05   -47454.452    4020.8783    -51475.33   0.15852099 
   99800    291.34902   -866.88361     149752.4   -47427.195    4000.9772   -51428.173   0.15801413 
  100000    294.86107   -1080.3104    150054.52   -47424.084    4049.2067   -51473.291   0.15927902 
  100200    299.09306   -1124.7053    150129.56   -47378.738    4107.3229   -51486.061   0.15999101 
  100400    296.70673   -830.62025    149754.75   -47382.262    4074.5524   -51456.814   0.16051626 
  100600    295.52923   -838.47167    149698.64   -47331.109    4058.3822   -51389.492   0.15975066 
  100800    291.37903   -1202.5507    150166.98   -47353.047    4001.3893   -51354.437   0.16895936 
  101000     297.7184   -1157.0902     150162.9   -47334.978    4088.4453   -51423.424   0.17170696 
  101200    295.61347   -750.50979    149586.44   -47321.207    4059.5391   -51380.746    0.1646532 
  101400    297.77166   -814.95354    149684.54   -47328.455    4089.1766   -51417.632   0.16257988 
  101600    292.19904    -1350.351    150385.87   -47333.296    4012.6502   -51345.946   0.16962044 
  101800    298.55085   -1189.4712    150172.78   -47302.515     4099.877   -51402.392   0.16892213 
  102000    297.26197   -612.76365    149337.04     -47314.5    4082.1774   -51396.678   0.16256339 
  102200    295.71004   -843.78118    149667.75   -47303.847    4060.8653   -51364.712   0.16738242 
  102400    304.85083   -1445.1282    150570.24   -47229.926     4186.392   -51416.318   0.17636807 
  102600    300.66539   -1188.0425    150141.36   -47249.947     4128.915   -51378.862   0.17100122 
  102800    300.28828   -531.63344    149289.09   -47272.439    4123.7365   -51396.176   0.15620293 
  103000    298.34248     -926.509    149854.05   -47261.164    4097.0156    -51358.18   0.16695558 
  103200    297.71805   -1508.5298    150595.29   -47227.541    4088.4405   -51315.981   0.18572887 
  103400    298.29697   -1002.6476    149959.05   -47266.552    4096.3905   -51362.943   0.16801588 
  103600    301.82096   -525.39176    149344.91   -47277.955    4144.7841   -51422.739   0.15823403 
  103800    303.41963   -1059.3119    150002.34   -47275.648    4166.7379   -51442.386   0.15943618 
  104000    295.92137   -1390.2336    150464.74   -47274.338    4063.7675   -51338.105   0.16990641 
  104200    293.57674   -973.39718    149877.81   -47298.058    4031.5696   -51329.627   0.16548809 
  104400    299.37312   -709.32728    149521.85   -47320.595    4111.1688   -51431.764   0.15918149 
  104600    296.20727   -1044.6567    150031.11   -47309.708    4067.6936   -51377.401   0.16441559 
  104800    297.69516   -1246.4657     150289.8   -47295.468    4088.1262   -51383.595   0.16820381 
  105000    305.43819   -932.25514    149855.98    -47332.99     4194.458   -51527.448   0.15859992 
  105200    298.27737   -803.14287    149703.93   -47336.191    4096.1214   -51432.312   0.16056617 
  105400    299.66547    -1099.789    150100.19   -47322.477    4115.1837   -51437.661   0.16556632 
  105600    297.51891   -1167.4532    150195.32   -47317.775    4085.7058   -51403.481   0.17096833 
  105800    297.29576   -854.49965    149785.58   -47340.974    4082.6414   -51423.615   0.16029281 
  106000    297.27088   -869.05879    149712.25   -47323.405    4082.2996   -51405.705   0.15821677 
  106200    294.24167   -1098.6016    150094.22    -47293.46    4040.7007   -51334.161   0.16242846 
  106400    295.07185   -1098.1159    150133.82   -47303.781    4052.1013   -51355.883   0.16031303 
  106600    299.96809   -860.14448    149757.93    -47312.33    4119.3393    -51431.67    0.1587744 
  106800    295.36483   -883.55324     149777.4   -47305.572    4056.1247   -51361.697   0.16641358 
  107000    299.25988   -1118.8703    150150.11   -47255.795    4109.6139   -51365.409   0.16614848 
  107200    298.66203   -1129.6397    150151.32   -47244.544    4101.4038   -51345.948   0.16415397 
  107400    300.21492   -839.41161    149811.24   -47256.372     4122.729   -51379.101   0.15388436 
  107600    299.57984   -901.45189    149826.11   -47234.258    4114.0077   -51348.266   0.16459612 
  107800      299.732   -1127.0475    150127.21   -47251.161    4116.0973   -51367.259   0.16681225 
  108000    303.28181   -1063.4449    150079.32   -47228.512    4164.8453   -51393.357   0.15904286 
  108200    301.58546   -893.22241    149839.31   -47266.731      4141.55   -51408.281   0.15643641 
  108400     305.5256   -906.24275    149909.27     -47263.7    4195.6584   -51459.358   0.15629047 
  108600    300.73488    -1134.614    150154.57   -47230.111    4129.8694    -51359.98   0.16627157 
  108800    302.34554   -1017.3471    150046.66   -47254.535    4151.9879   -51406.523   0.16143716 
  109000    298.90664   -885.15112    149772.02   -47297.381     4104.763   -51402.144   0.16621989 
  109200    297.60174   -930.95504    149858.57   -47297.648    4086.8432   -51384.491   0.16320507 
  109400     297.8321   -1122.1267    150140.11   -47278.258    4090.0066   -51368.265   0.16239607 
  109600    298.70778    -1057.603    150047.71   -47238.931    4102.0321   -51340.964   0.16175212 
  109800    300.53032   -864.28183     149787.2   -47295.722    4127.0602   -51422.783    0.1622008 
  110000    300.08103   -949.11671    149913.88   -47231.456    4120.8903   -51352.346   0.16325536 
  110200    297.51495     -1153.23     150211.1   -47211.504    4085.6514   -51297.156   0.16577367 
  110400    300.41128   -1089.0985    150043.55   -47267.554    4125.4254    -51392.98   0.16488191 
  110600    295.44886   -809.48407    149687.68   -47345.525    4057.2786   -51402.803    0.1565493 
  110800    296.04859   -965.40565    149892.91   -47338.865    4065.5145    -51404.38   0.16278949 
  111000     293.2398   -1296.5531    150301.91   -47333.573    4026.9425   -51360.516   0.17026617 
  111200    295.55699   -1085.1905    149990.29   -47325.936    4058.7635   -51384.699   0.17032413 
  111400    291.16566   -691.27106    149513.11   -47386.167    3998.4592   -51384.626    0.1607147 
  111600    294.56202   -991.53385    149946.48   -47436.171    4045.0999   -51481.271   0.15577428 
  111800    291.11268   -1329.6879    150455.43   -47457.395    3997.7316   -51455.126   0.15921955 
  112000    294.38919   -911.45236    149880.39   -47459.031    4042.7267   -51501.758   0.14912039 
  112200    298.90831   -542.80041    149362.53   -47424.571    4104.7858   -51529.357   0.15208925 
  112400    299.69881   -1084.3453    150122.62   -47384.206    4115.6415   -51499.848   0.15800176 
  112600    295.71928   -1491.2426    150615.35   -47348.463    4060.9922   -51409.455   0.16471273 
  112800    294.66783   -869.62468    149732.93   -47379.771     4046.553   -51426.324   0.15579648 
  113000    290.11103   -519.62208     149292.1   -47362.565    3983.9764   -51346.541   0.15490155 
  113200    294.94662   -1244.8608    150190.73   -47389.651    4050.3816   -51440.032   0.16867792 
  113400    295.29541   -1423.5747    150513.35   -47362.133    4055.1714   -51417.304   0.17408534 
  113600    299.23759   -771.59102    149626.46   -47381.033    4109.3077    -51490.34   0.16195541 
  113800    295.44318   -634.69245    149429.62   -47366.092    4057.2007   -51423.292   0.15359079 
  114000    295.46416   -1241.8208    150278.28   -47339.183    4057.4887   -51396.671   0.15804586 
  114200    298.98397   -1272.2117    150369.48   -47349.619    4105.8248   -51455.444   0.16517681 
  114400    300.17324      -739.81    149649.03     -47300.8    4122.1566   -51422.957   0.15414679 
  114600    297.30449   -770.95728    149680.96   -47274.111    4082.7612   -51356.873   0.15980492 
  114800    296.86623   -1265.1316    150316.18   -47250.735    4076.7428   -51327.478    0.1646153 
  115000    301.76407   -1146.6098    150219.44   -47281.127    4144.0029    -51425.13   0.16010876 
  115200    295.72105   -780.36928     149689.2   -47304.317    4061.0165   -51365.333   0.16197059 
  115400     296.0508   -912.18988    149812.34   -47316.577    4065.5448   -51382.122   0.16476552 
  115600    299.52806   -1233.3214    150260.47    -47291.09    4113.2966   -51404.386   0.16988732 
  115800    299.94185   -1063.0191    150095.06   -47310.101    4118.9791    -51429.08   0.15698684 
  116000    297.52793   -781.84281    149707.74    -47300.57    4085.8296     -51386.4   0.14969208 
  116200    293.87418    -913.5369    149929.39   -47316.426    4035.6541    -51352.08   0.14746094 
  116400    294.72371   -1228.0866    150284.47   -47353.902    4047.3204   -51401.222   0.16243234 
  116600    301.44743   -981.59111    149993.36    -47371.45    4139.6546   -51511.105   0.15498955 
  116800    296.73562   -808.62094    149710.12   -47330.229    4074.9491   -51405.178   0.15448038 
  117000     296.8418   -1005.8523    150035.28   -47333.412    4076.4073   -51409.819    0.1566801 
  117200    298.67573   -1181.4928    150239.43   -47319.132    4101.5919   -51420.724   0.16459341 
  117400    295.85416   -945.39569    149919.56   -47351.311    4062.8444   -51414.156    0.1645478 
  117600     299.1543   -814.06069    149739.86   -47334.711    4108.1639   -51442.875   0.15700286 
  117800    300.90655   -1078.1227    150097.18   -47289.757    4132.2269   -51421.984    0.1650823 
  118000    302.79094   -1215.8326    150247.99     -47278.7    4158.1045   -51436.804   0.16337808 
  118200    296.94372   -902.10348     149855.1   -47317.785     4077.807   -51395.592    0.1533832 
  118400    295.58988   -822.77583     149731.8   -47372.085    4059.2151     -51431.3   0.15019711 
  118600    292.56546   -1144.8636     150121.5   -47395.404    4017.6821   -51413.086   0.16450033 
  118800    295.21596   -1191.4589     150194.9   -47444.364    4054.0803   -51498.445   0.16030145 
  119000    294.32781   -843.55595    149762.69   -47448.737    4041.8837   -51490.621   0.15241979 
  119200    293.23468   -869.53682    149722.96   -47452.261    4026.8723   -51479.133   0.15840171 
  119400    291.15582   -1130.9123    150139.16   -47471.653     3998.324   -51469.977   0.15586167 
  119600    290.21739   -1165.6466    150119.53   -47408.591     3985.437   -51394.028   0.16278588 
  119800     294.6485   -796.74497     149679.9   -47412.096    4046.2876   -51458.384   0.15255483 
  120000    291.25602   -886.97012    149723.98   -47430.208    3999.7001   -51429.908   0.15602286 
  120200    292.12526   -1154.3055    150155.07   -47396.482     4011.637   -51408.119   0.15487473 
  120400    288.74839   -1137.9704    150127.52   -47443.671    3965.2638   -51408.935   0.15055942 
  120600    292.85795   -857.78961     149729.3    -47443.49    4021.6987   -51465.188   0.15317564 
  120800    296.67093   -852.86894    149801.27   -47434.238    4074.0608   -51508.299   0.14992176 
  121000    290.92738   -1211.9245    150200.09   -47412.245     3995.187   -51407.432   0.16610397 
  121200    290.58476   -1147.1779    150091.58   -47412.547     3990.482   -51403.029   0.15940267 
  121400    298.76097   -776.64444    149658.73   -47417.025    4102.7625   -51519.788   0.15192655 
  121600    293.65561   -871.23728    149802.38   -47405.758    4032.6526    -51438.41   0.15622771 
  121800    295.97905   -1234.6122    150292.61   -47396.661    4064.5595    -51461.22   0.15851813 
  122000    296.76774   -1090.8773    150096.78   -47376.001    4075.3903   -51451.391   0.15878344 
  122200    292.50812   -695.11281    149581.86   -47350.136    4016.8946   -51367.031   0.15411961 
  122400    298.85721   -919.26771    149890.95   -47300.058    4104.0841   -51404.142   0.15621981 
  122600    298.30672     -1327.71    150474.43    -47209.92    4096.5244   -51306.444    0.1651725 
  122800    301.53209    -1060.907    150113.41   -47215.064    4140.8171   -51355.881   0.16099234 
  123000    297.36087    -699.1708    149535.02   -47271.292    4083.5354   -51354.827   0.15891399 
  123200    301.63686   -970.63873    149986.89   -47292.344     4142.256     -51434.6   0.15462322 
  123400    298.07158   -1406.5365     150531.9   -47366.696    4093.2953   -51459.992   0.16237079 
  123600     298.5443   -934.78697    149914.87   -47322.625    4099.7871   -51422.413   0.15630865 
  123800    301.45862    -548.5758    149370.35   -47353.178    4139.8082   -51492.986   0.14879495 
  124000    296.07738    -1105.698    150106.57   -47326.247    4065.9098   -51392.157   0.15789578 
  124200    296.81792   -1433.4674    150594.14   -47299.544    4076.0794   -51375.623   0.16381433 
  124400     297.7169   -837.51026    149814.32   -47325.429    4088.4247   -51413.854   0.14665115 
  124600    295.92283   -617.88967    149427.19   -47348.871    4063.7875   -51412.658   0.15157791 
  124800    293.36156   -1194.7408    150186.73   -47344.498    4028.6146   -51373.113   0.15956876 
  125000    291.70013   -1378.8378    150450.02   -47347.006    4005.7989   -51352.805   0.16866247 
  125200    295.18477   -774.75287    149702.47   -47348.513     4053.652   -51402.165   0.15789673 
  125400    292.61658   -727.55855    149560.86   -47421.168     4018.384   -51439.552   0.15318912 
  125600    293.28018   -1221.4574    150213.42   -47405.992     4027.497   -51433.489   0.16222806 
  125800    295.96891   -1236.6761    150277.16   -47394.918    4064.4202   -51459.339   0.15623621 
  126000    297.05465   -825.48625    149733.76   -47370.625    4079.3302   -51449.955   0.15800583 
  126200     299.9448   -839.01309    149756.32   -47351.894    4119.0195   -51470.914   0.15629607 
  126400    294.08659   -1192.0754    150232.71    -47373.49    4038.5711   -51412.061   0.15736863 
  126600    296.20174   -1142.5085    150162.27   -47400.338    4067.6176   -51467.956   0.15773499 
  126800    292.98624   -848.89068     149729.5   -47376.852    4023.4604   -51400.313    0.1553136 
  127000    294.34639   -867.90637    149818.33    -47393.34    4042.1389   -51435.479   0.15254232 
  127200    294.76032   -1161.3916    150188.73   -47422.605    4047.8232   -51470.428   0.15776272 
  127400    291.58226   -1054.7514    150071.98   -47422.703    4004.1801   -51426.883   0.16119834 
  127600    289.24849   -826.30985    149765.14   -47421.013    3972.1314   -51393.144   0.15428702 
  127800    293.13006   -978.56353     149873.2   -47409.411    4025.4355   -51434.847   0.14945261 
  128000    303.32537   -1118.4197    150110.48   -47402.991    4165.4435   -51568.434   0.15212315 
  128200    293.63178   -1040.0242    150007.74   -47368.265    4032.3255    -51400.59   0.15903531 
  128400    295.45799   -883.69281    149842.07   -47398.398     4057.404   -51455.802   0.14988421 
  128600    293.66972   -961.87277    149966.08    -47429.76    4032.8464   -51462.606   0.14766692 
  128800    293.16394    -1109.628    150095.25   -47465.203    4025.9007   -51491.104   0.15043689 
  129000    293.52964   -1010.8511    149946.47   -47502.227    4030.9228    -51533.15   0.14798736 
  129200    293.85051    -917.0173    149860.84   -47460.007    4035.3291   -51495.337   0.15187832 
  129400    291.94099   -1012.4397    150029.48   -47457.079    4009.1065   -51466.186    0.1572473 
  129600    288.97085   -1147.1756    150126.94   -47455.892    3968.3187   -51424.211   0.16312297 
  129800    293.15718   -937.57316    149957.57   -47470.455    4025.8079   -51496.263   0.15139377 
  130000    297.52102   -869.88267    149844.32   -47483.499    4085.7347   -51569.234    0.1493388 
  130200    289.69879   -1003.6386    149994.61   -47499.797    3978.3152   -51478.112   0.15965561 
  130400    292.40592   -1076.3826    150098.91   -47482.132    4015.4912   -51497.623   0.15168208 
  130600     294.5441   -975.13562    149958.87     -47439.7     4044.854   -51484.554   0.15370667 
  130800    293.66305   -915.48608    149883.63   -47462.109    4032.7548   -51494.864   0.15016244 
  131000    292.02513   -1029.9507    150024.88   -47479.928    4010.2619    -51490.19   0.15344902 
  131200    297.03362   -1068.0604    150079.21    -47451.95    4079.0414   -51530.992    0.1515856 
  131400    294.17605   -980.30496    149899.98   -47456.088    4039.7997   -51495.887   0.15310574 
  131600    297.82377   -902.43417    149842.17   -47450.355    4089.8922   -51540.247   0.15524888 
  131800    292.56195   -1073.9785    150076.89    -47418.41    4017.6339   -51436.044   0.15873562 
  132000    293.66268   -1116.3108    150111.18   -47360.872    4032.7497   -51393.622   0.16488243 
  132200    295.61782   -924.36403    149846.12   -47372.354    4059.5988   -51431.953   0.15422294 
  132400    301.59201   -872.36919    149829.26   -47376.165      4141.64   -51517.805   0.14508571 
  132600    295.82807   -1146.2127    150158.75   -47347.332    4062.4862   -51409.818    0.1561403 
  132800    293.80177   -1154.1379    150217.71   -47314.517    4034.6598   -51349.177   0.16264237 
  133000    298.55434   -856.01887    149861.71   -47314.062    4099.9249   -51413.986   0.15207289 
  133200    295.44782   -859.27313    149795.36   -47262.227    4057.2644   -51319.491   0.15798047 
  133400    295.96946   -1126.7838    150199.86    -47241.49    4064.4278   -51305.917   0.16384443 
  133600    298.74457    -1163.427     150236.1   -47253.347    4102.5373   -51355.884   0.16891324 
  133800    302.22272   -817.81007    149788.14   -47281.217    4150.3013   -51431.519   0.16230778 
  134000    300.39013   -854.37199    149806.82   -47229.115    4125.1351    -51354.25   0.16515191 
  134200    303.06575   -1193.5272     150306.1   -47236.773    4161.8783   -51398.651   0.16686806 
  134400    295.26095   -1139.0155    150203.27   -47234.641    4054.6982   -51289.339   0.15814872 
  134600    298.89406   -768.43821    149655.47   -47260.151    4104.5901   -51364.741   0.15549121 
  134800    296.29829   -893.96309    149769.66   -47302.518    4068.9435   -51371.462   0.16375812 
  135000    295.46543   -1217.1726    150289.58   -47350.224    4057.5062    -51407.73   0.16459151 
  135200    296.54042   -1137.9324    150091.25   -47363.575    4072.2686   -51435.843   0.15959596 
  135400    299.49887    -717.0101    149586.62   -47392.061    4112.8957   -51504.956   0.15417084 
  135600    301.67223   -898.74053    149862.67   -47352.827    4142.7416   -51495.569    0.1622123 
  135800    287.46787   -1330.7952     150357.1   -47416.304    3947.6789   -51363.983   0.16495976 
  136000    294.76905   -1053.0604    150027.97     -47454.8     4047.943   -51502.743   0.15778819 
  136200    295.41576    -727.3072       149541    -47473.39     4056.824   -51530.214   0.15583701 
  136400    289.90338   -968.98419     149888.5    -47421.68    3981.1248   -51402.805   0.15300104 
  136600      292.057   -1290.7512    150362.44   -47355.086    4010.6995   -51365.785   0.15755145 
  136800    291.96976   -1022.0629    149989.91   -47370.504    4009.5015   -51380.005   0.15393702 
  137000     297.3064   -685.95919     149553.6   -47381.377    4082.7874   -51464.164   0.15221099 
  137200    296.05145    -995.5161    149941.98   -47409.659    4065.5538   -51475.213   0.15553529 
  137400    297.50501   -1253.1124    150293.12   -47360.277    4085.5149   -51445.792   0.16216116 
  137600    297.61549   -941.68903    149918.34    -47358.24    4087.0321   -51445.272    0.1602799 
  137800    298.20562    -762.1387    149665.48   -47333.997    4095.1361   -51429.134   0.15712374 
  138000    298.03612   -1075.2548    150069.72   -47327.608    4092.8084   -51420.416    0.1626817 
  138200    296.95115   -1237.9833    150256.05    -47374.69    4077.9089   -51452.599   0.16930333 
  138400    294.29176   -895.55712    149823.04   -47365.501    4041.3887    -51406.89   0.16364869 
  138600     297.2759   -804.92612    149713.16   -47381.352    4082.3687   -51463.721   0.15529691 
  138800    293.04382    -1152.186    150136.67   -47324.423    4024.2512   -51348.674   0.16401814 
  139000    298.35068   -1152.8718    150195.44   -47309.694    4097.1281   -51406.822   0.15557938 
  139200    299.45282   -839.53314    149779.49   -47316.933    4112.2634   -51429.196   0.15750586 
  139400    298.93762   -793.68996    149763.59   -47345.256    4105.1883   -51450.444   0.16192895 
  139600    293.50572   -1149.0309    150179.86   -47320.511    4030.5943   -51351.105   0.16866544 
  139800     294.3275   -1121.6557    150146.65   -47280.896    4041.8795   -51322.775   0.16616385 
  140000    297.46675   -834.12861    149794.54   -47251.814    4084.9894   -51336.803   0.15803918 
  140200    296.36809   -928.03645    149883.59   -47294.396     4069.902   -51364.298   0.16639301 
  140400    295.22036   -1129.9101    150183.93   -47315.896    4054.1407   -51370.037    0.1640324 
  140600    294.40111   -1103.1762    150042.34   -47317.961    4042.8903   -51360.851   0.16625378 
  140800    304.14547   -815.91929    149762.12   -47315.301    4176.7056   -51492.007   0.15381553 
  141000     300.0395   -929.83651    149901.17   -47351.107    4120.3199   -51471.427    0.1466719 
  141200      295.959   -1136.6836    150151.91   -47297.107    4064.2842   -51361.391   0.15838082 
  141400    296.59669   -1043.1832    150020.18   -47303.924    4073.0413   -51376.965   0.16669074 
  141600    295.72427   -895.85946    149790.24   -47289.446    4061.0607   -51350.506   0.17042122 
  141800    297.40422   -996.66632    149928.13   -47342.675    4084.1308   -51426.806   0.16427143 
  142000    296.58927   -1126.8541    150108.92   -47355.704    4072.9394   -51428.644   0.16785653 
  142200    292.59093    -1038.624    149953.85   -47354.132    4018.0319   -51372.164   0.16944915 
  142400    299.55824     -891.695     149798.9   -47360.063    4113.7111   -51473.774   0.15853226 
  142600    297.38461   -992.98643    149959.25   -47348.546    4083.8615   -51432.408   0.15837464 
  142800    298.49697   -1097.5207    150116.83    -47350.74     4099.137   -51449.877   0.16385901 
  143000    288.97353   -972.53159     149948.6   -47415.964    3968.3555   -51384.319   0.16147947 
  143200    298.45003   -889.22438    149808.93   -47386.431    4098.4925   -51484.924   0.15407069 
  143400     296.1864   -1027.7189    150015.14   -47346.734     4067.407   -51414.141   0.15894641 
  143600     294.0542   -1130.1714    150160.68   -47333.291    4038.1263   -51371.417   0.16549354 
  143800    295.48308   -963.77625    149942.84   -47349.737    4057.7485   -51407.486   0.16465275 
  144000    298.10207   -840.68407    149776.52   -47340.416     4093.714    -51434.13   0.16332916 
  144200    301.48009   -1081.7447    150048.24   -47310.678     4140.103   -51450.781   0.16334783 
  144400    295.67589   -1180.1081    150223.41   -47308.756    4060.3963   -51369.153   0.15811016 
  144600     299.1964    -971.4823    149878.76   -47287.784    4108.7421   -51396.526   0.15449915 
  144800    294.86188   -823.70311    149735.63    -47258.88    4049.2179   -51308.098   0.16209099 
  145000    298.09757   -1119.3518    150151.04   -47298.546    4093.6523   -51392.198    0.1664124 
  145200    295.11334   -1209.6419    150262.61    -47327.09    4052.6711   -51379.762    0.1604176 
  145400    298.05471   -838.10831    149768.64   -47339.114    4093.0637   -51432.178   0.15142581 
  145600    297.03928   -768.22894    149680.18   -47359.754    4079.1192   -51438.873   0.15417749 
  145800     297.0564    -1209.064    150251.32   -47367.697    4079.3543   -51447.051   0.16523228 
  146000    296.19632    -1182.282    150259.66   -47353.229    4067.5431   -51420.772   0.17041569 
  146200    292.24506    -708.8221    149582.79   -47394.421    4013.2822   -51407.704   0.15978927 
  146400    296.23867    -782.9213    149634.49   -47346.687    4068.1248   -51414.812   0.15654903 
  146600    292.58148   -1322.6937    150414.86    -47296.84    4017.9021   -51314.742   0.16600899 
  146800    297.25335   -1221.4319    150314.37   -47253.511    4082.0589    -51335.57   0.16684426 
  147000    299.95584   -670.76857    149547.59    -47278.57    4119.1712   -51397.741   0.15500633 
  147200     297.4942   -832.60753    149749.11   -47244.134    4085.3664     -51329.5   0.15855679 
  147400    295.37857   -1389.2345    150498.78   -47299.149    4056.3134   -51355.462   0.16753463 
  147600    297.52553    -1131.173    150185.25   -47316.906    4085.7967   -51402.703   0.15947189 
  147800    300.67153   -597.07927    149459.49   -47370.203    4128.9994   -51499.202    0.1505439 
  148000    294.19016   -892.20117    149835.01   -47329.545    4039.9935   -51369.539   0.16187541 
  148200     292.9335   -1353.2525    150492.97   -47361.571    4022.7362   -51384.307   0.16655647 
  148400    295.70242   -1058.0743    150070.43   -47419.577    4060.7606   -51480.338   0.15438364 
  148600    294.13668   -652.13646    149479.91    -47396.28    4039.2591   -51435.539   0.15211973 
  148800    295.30176   -1003.5992     149916.1    -47394.46    4055.2586   -51449.719   0.16232942 
  149000    290.87934    -1324.211    150386.43   -47392.419    3994.5273   -51386.947    0.1585734 
  149200    292.21509   -988.87391    149911.73   -47406.185    4012.8706   -51419.055   0.15647307 
  149400    292.93261    -693.3015    149515.58   -47433.968     4022.724   -51456.692   0.15401683 
  149600    292.69539   -1048.7336    149967.78   -47428.737    4019.4663   -51448.204   0.16215465 
  149800    297.49612   -1210.8172    150272.94   -47409.111    4085.3929   -51494.504   0.15934031 
  150000    294.01312   -954.34735    149881.89   -47372.847    4037.5621   -51410.409     0.159715 
  150200    294.84299   -799.71736    149696.92   -47319.617    4048.9585   -51368.575   0.16071915 
  150400    296.33701    -1095.053    150075.37   -47284.556    4069.4753   -51354.031   0.16563406 
  150600    297.50643    -1124.494    150183.08   -47334.486    4085.5343   -51420.021   0.16376038 
  150800    298.93554   -914.91405    149871.38   -47301.701    4105.1598   -51406.861   0.16534638 
  151000    295.53051   -890.26992    149829.29   -47343.534    4058.3998   -51401.933   0.15489752 
  151200    296.23806   -1077.2782    150115.73   -47325.815    4068.1164   -51393.931    0.1527365 
  151400    300.81807   -1107.9323    150153.21   -47236.561    4131.0118   -51367.572    0.1624107 
  151600    297.09931   -948.20725    149895.48   -47226.651    4079.9436   -51306.595   0.16689526 
  151800    301.38845   -928.73714    149903.51   -47241.129    4138.8446   -51379.974   0.16316779 
  152000    299.07105   -1074.9134    150140.45   -47238.844    4107.0207   -51345.864   0.16327347 
  152200    296.03527   -1079.8876    150088.98   -47260.536    4065.3315   -51325.867   0.16156118 
  152400    298.49841   -942.35598    149844.88   -47313.418    4099.1568   -51412.574   0.16198276 
  152600      299.877    -943.6036    149888.01   -47280.034    4118.0885   -51398.122   0.16371401 
  152800    302.07081   -1031.9454    150106.72   -47207.316    4148.2151   -51355.531   0.16415666 
  153000    304.89812   -1106.3594    150095.04   -47278.444    4187.0415   -51465.486   0.15527585 
  153200    297.83013   -903.05813    149865.78   -47220.677    4089.9797   -51310.657   0.15349952 
  153400     301.4708   -949.69878    149930.53   -47275.733    4139.9755   -51415.709   0.15712153 
  153600     296.1637   -1090.4086    150137.42   -47300.185    4067.0952    -51367.28   0.15790668 
  153800    297.13823   -1074.3809    150029.54   -47331.106    4080.4781   -51411.584   0.16093123 
  154000    299.23038   -870.17228    149802.29   -47349.657    4109.2087   -51458.865   0.15742267 
  154200     303.4638   -977.77292    149934.35   -47293.138    4167.3445   -51460.482   0.16111471 
  154400    296.07724   -1128.4418    150140.48    -47282.34    4065.9079   -51348.247   0.16817743 
  154600    295.88403   -1046.2093    150025.34   -47306.022    4063.2546   -51369.276   0.16763568 
  154800    298.35573   -880.08726    149807.74   -47325.966    4097.1975   -51423.164   0.16009398 
  155000    301.28021   -1024.3275    149949.23   -47312.799    4137.3582   -51450.157   0.15407354 
[...]
  163200    296.17938   -920.29443    149803.82    -47385.04    4067.3106   -51452.351   0.15352369 
  163400    292.50973   -831.10569    149706.42   -47421.284    4016.9167   -51438.201   0.15476432 
  163600    299.42555   -1094.1708    150091.15   -47363.946    4111.8888   -51475.835   0.15428233 
  163800    294.08629   -1124.9275    150151.65   -47423.263     4038.567    -51461.83     0.159316 
  164000    293.20526   -936.71427    149847.25   -47445.447    4026.4682   -51471.916   0.15695033 
  164200    295.00773   -904.86079    149793.85   -47443.506    4051.2208   -51494.727   0.15470699 
  164400     298.9702   -1047.6662    150025.59   -47380.868    4105.6358   -51486.504   0.16139168 
  164600    299.52971   -1068.2117    150073.28   -47358.382    4113.3192   -51471.701   0.16406575 
  164800    291.40484   -1006.7802    149883.61   -47399.259    4001.7437   -51401.002   0.16712379 
  165000    294.25918   -921.41719    149857.16   -47375.149    4040.9412    -51416.09   0.15553397 
  165200    299.02208    -1044.674    150034.85   -47369.716    4106.3482   -51476.064   0.15553208 
  165400    297.80393   -1070.3401    150049.28   -47399.611    4089.6199   -51489.231   0.15078665 
  165600     297.3643   -953.11074    149908.66   -47338.671    4083.5826   -51422.254   0.15501295 
  165800    297.09741   -967.98319    149891.03   -47364.535    4079.9175   -51444.453   0.16299636 
  166000    296.65606    -1044.984       150012    -47320.07    4073.8566   -51393.927   0.16378955 
  166200    296.89865   -1025.4819    149988.14   -47351.653     4077.188   -51428.841   0.15762391 
  166400    294.48857   -934.85103    149867.83   -47348.494    4044.0913   -51392.585    0.1567881 
  166600    293.86522   -992.92002    149875.88    -47343.35    4035.5311   -51378.881   0.16729595 
  166800     294.6537   -988.11474     149957.1   -47402.571     4046.359    -51448.93   0.15794839 
  167000    296.47685   -986.49265    149926.78   -47403.927    4071.3955   -51475.323   0.15338592 
  167200    294.96396   -950.37178    149880.52   -47351.566    4050.6197   -51402.186   0.15464588 
  167400    294.35946   -1057.3097    149955.79   -47398.419    4042.3183   -51440.737   0.15814863 
  167600    296.41029   -1039.1743    149968.22   -47379.095    4070.4815   -51449.576   0.15776185 
  167800    298.11819   -988.84462    149882.65   -47449.962    4093.9354   -51543.897   0.15441536 
  168000    295.26492   -977.10213    149850.93   -47438.502    4054.7526   -51493.255   0.15649931 
  168200    295.74189   -986.89904    149923.44   -47434.332    4061.3027   -51495.635   0.15783584 
  168400     293.7507   -1030.3178    149926.12   -47389.082    4033.9585   -51423.041   0.16341261 
  168600    291.15999   -1008.1762    149888.77   -47400.529    3998.3813    -51398.91   0.16352118 
  168800    295.44244   -1013.0117    149923.07   -47441.936    4057.1905   -51499.126   0.15841885 
  169000    295.40897   -1007.3569    149964.71   -47427.327    4056.7308   -51484.058   0.15292478 
  169200    299.22057   -1000.0417    149943.64   -47395.875     4109.074   -51504.949   0.15554779 
  169400    296.87937   -966.39008    149892.36   -47423.708    4076.9233   -51500.631   0.15693614 
  169600    294.14744   -1012.4992    149914.68   -47433.307    4039.4068   -51472.714   0.15322847 
  169800    298.76432   -1004.7661    149933.24   -47438.258    4102.8084   -51541.066   0.15537353 
  170000    292.94497   -1009.0147    149915.83   -47478.061    4022.8938   -51500.955   0.15099065 
  170200    293.38968    -1021.169     149889.8   -47487.784    4029.0007   -51516.785   0.15811077 
  170400    291.24945   -958.68521    149878.35   -47456.606    3999.6098   -51456.216   0.16179813 
  170600    295.81499   -968.94524    149878.54   -47437.834    4062.3066   -51500.141   0.16291571 
  170800    290.14493   -996.24729     149917.3   -47461.133    3984.4419   -51445.575   0.15519508 
  171000    295.84305   -1013.9937    149942.81   -47460.879    4062.6919   -51523.571   0.15066788 
  171200    297.10261   -978.66124    149895.19   -47488.882    4079.9889   -51568.871   0.15585995 
  171400    291.62387   -980.66686    149860.27   -47484.102    4004.7516   -51488.853   0.15623632 
  171600    294.26753   -986.88799    149875.87   -47448.291    4041.0559   -51489.347   0.15601998 
  171800    290.36477   -1040.8891    149965.73   -47423.967    3987.4609   -51411.428   0.15307903 
  172000    291.04628    -1066.482    149960.65   -47429.218    3996.8198   -51426.038   0.15539537 
  172200    293.18768   -970.57354    149800.31    -47439.28    4026.2268   -51465.507   0.15832973 
  172400    297.35229   -940.98861    149818.95   -47406.209    4083.4176   -51489.626   0.16208463 
  172600    294.34349   -1117.5046    150061.07   -47386.588    4042.0991   -51428.687   0.16488626 
  172800    296.35068   -1084.0772    150070.29   -47395.142     4069.663   -51464.805   0.15632072 
  173000      294.468   -905.28644    149802.13   -47418.038    4043.8089   -51461.847   0.15561297 
  173200    287.75361   -933.62293    149838.13   -47455.894    3951.6029   -51407.497   0.15955882 
  173400     297.6051   -1099.9241    150124.84   -47438.231    4086.8894    -51525.12   0.15751223 
  173600    299.57391    -1028.423     150059.2   -47389.287    4113.9263   -51503.214   0.14938405 
  173800    291.58748   -912.81924    149807.77   -47393.186    4004.2518   -51397.438   0.15607652 
  174000    298.75383   -931.00851    149922.49   -47355.855    4102.6644   -51458.519   0.15348778 
  174200    300.62949   -1186.2956    150220.37   -47345.743    4128.4221   -51474.165   0.15741961 
  174400    297.69905    -1040.339    150083.07   -47329.503    4088.1795   -51417.683    0.1567399 
  174600    298.68431   -816.72665    149739.47   -47346.966    4101.7098   -51448.675   0.15620274 
  174800    297.25657   -915.83079    149893.48   -47308.332    4082.1031   -51390.435   0.15874625 
  175000    297.35777   -1190.3721    150241.64   -47351.207    4083.4929     -51434.7   0.16058409 
  175200    297.88069   -1036.1436    149998.58   -47351.061     4090.674   -51441.735   0.16443258 
  175400    295.24228   -772.06204    149627.01   -47365.711    4054.4417   -51420.153   0.15228406 
  175600    294.93711    -980.9162    149927.55    -47373.92     4050.251   -51424.171   0.15154416 
  175800    296.92388    -1211.864    150249.24   -47351.071    4077.5345   -51428.605   0.15515218 
  176000    293.60272   -1004.3473    149857.28   -47343.643    4031.9263   -51375.569   0.16415897 
  176200    299.35892   -713.32014    149547.86   -47296.021    4110.9738   -51406.995   0.15868317 
  176400    299.60834   -1071.4908    150025.08    -47330.13    4114.3991    -51444.53   0.15718002 
  176600    298.95861   -1282.9076    150336.46   -47302.601    4105.4766   -51408.078   0.16661279 
  176800    296.55883   -926.39142    149835.13   -47317.895    4072.5213   -51390.417    0.1611456 
  177000    294.67852   -723.35988     149572.8   -47338.154    4046.6998   -51384.853   0.16174292 
  177200    298.71584   -1142.2418    150166.23   -47344.947    4102.1427    -51447.09   0.16178703 
  177400      292.396   -1283.7232    150368.06   -47431.066    4015.3549   -51446.421   0.15731855 
  177600    299.95793   -752.96196    149688.18   -47406.621    4119.1998   -51525.821   0.14529718 
  177800    293.51896   -736.97852    149582.81   -47386.719    4030.7761   -51417.495   0.15396115 
  178000    291.19371    -1216.369    150272.68   -47334.125    3998.8444   -51332.969   0.16587757 
  178200    293.50302   -1263.1037     150310.6   -47369.154    4030.5572   -51399.711   0.16125685 
  178400    294.30213   -765.80004    149604.89   -47354.491     4041.531   -51396.022   0.15747068 
  178600    290.45709    -757.3652    149651.11   -47370.878    3988.7286   -51359.606   0.15238533 
  178800    294.09163   -1275.6329    150353.64   -47328.995    4038.6403   -51367.635   0.16683664 
  179000    303.64378   -1193.2991    150262.26    -47304.79    4169.8161   -51474.606   0.16095149 
  179200    296.22952   -758.30035    149600.32   -47338.046    4067.9991   -51406.045   0.16113459 
  179400    299.82602   -809.74036    149725.61   -47310.825    4117.3883   -51428.213   0.15391387 
  179600    299.27242   -1256.3143    150322.93   -47308.411    4109.7861   -51418.198   0.15763103 
  179800    295.53066   -1117.3168     150167.7   -47339.196    4058.4019   -51397.598   0.16051003 
  180000    299.74918   -774.30456    149667.18   -47313.329    4116.3332   -51429.662   0.15398875 
  180200    296.38537   -913.08209    149843.15    -47271.39    4070.1394   -51341.529    0.1583195 
  180400    297.69889   -1217.8581    150222.82   -47220.332    4088.1774   -51308.509   0.16652643 
  180600    299.39551   -1064.2818     150058.1   -47312.843    4111.4764   -51424.319   0.16259752 
  180800    296.95635   -849.82714    149758.42   -47280.287    4077.9804   -51358.267   0.15892899 
  181000    300.37279   -957.38668    149925.16   -47321.718     4124.897   -51446.615   0.15896213 
  181200    295.89394   -1174.1216    150165.17   -47300.723    4063.3907   -51364.114   0.16799322 
  181400    300.13842   -1017.3855    149993.99   -47343.392    4121.6784   -51465.071   0.15667661 
  181600      295.255   -890.49532    149785.69   -47367.052    4054.6164   -51421.669   0.15780821 
  181800    296.59737   -975.03414    149949.29   -47335.712    4073.0507   -51408.763   0.15791397 
  182000    295.08317   -1110.0354    150134.12   -47340.839    4052.2567   -51393.095   0.16292548 
  182200    297.56736   -996.08894     149970.5   -47359.838    4086.3711   -51446.209   0.15136208 
  182400    295.31377    -896.5932    149821.21   -47363.611    4055.4234   -51419.034   0.15488124 
  182600     296.5375   -1000.9211    150007.67   -47324.145    4072.2285   -51396.374   0.16278332 
  182800    303.20591   -1153.7049    150143.08   -47286.276     4163.803   -51450.079   0.16682519 
  183000    305.91215    -924.9264    149927.65   -47290.461    4200.9668   -51491.428   0.15866015 
  183200    298.37505   -899.84611    149852.82   -47272.633    4097.4628   -51370.096   0.15722363 
  183400    303.94338    -1043.304    150068.95    -47278.86    4173.9304   -51452.791   0.16427699 
  183600    300.92957   -1077.5421    150122.73   -47307.652    4132.5429   -51440.195    0.1570687 
  183800     297.5655   -970.70106     149893.1   -47344.337    4086.3456   -51430.683   0.15659372 
  184000     297.2982   -892.40053    149839.54   -47357.496    4082.6749   -51440.171   0.15176598 
  184200    296.34282   -1106.1991    150073.77   -47397.575     4069.555    -51467.13     0.152809 
  184400    289.42352   -1091.9906     150086.2   -47406.273     3974.535   -51380.808   0.15613127 
  184600     293.9586    -904.4904    149841.48   -47419.891    4036.8135   -51456.705    0.1554614 
  184800    290.93754   -960.12281    149849.69   -47407.338    3995.3265   -51402.665   0.15948818 
  185000    296.40228   -1111.3275    150099.13   -47395.029    4070.3716   -51465.401   0.15544915 
  185200    290.07349   -1035.0081    150061.06   -47452.987    3983.4608   -51436.448   0.15376525 
  185400    295.09576   -869.73044    149782.04   -47434.646    4052.4297   -51487.075   0.15448618 
  185600    294.19234   -929.86409    149843.96   -47438.032    4040.0234   -51478.055    0.1593533 
  185800    296.75568   -1114.3361    150165.34   -47376.912    4075.2247   -51452.137   0.15611077 
  186000    298.27629   -1055.5252    150080.69   -47364.907    4096.1065   -51461.013   0.15345016 
  186200    296.08752   -874.11124    149788.76   -47359.827     4066.049   -51425.877   0.15215795 
  186400    295.91817   -907.92525    149930.79   -47307.479    4063.7235   -51371.202   0.15552853 
  186600    296.08806    -1227.862    150289.98   -47336.238    4066.0565   -51402.294   0.16104096 
  186800    295.38649   -1072.5738    150072.27   -47365.743    4056.4222   -51422.166   0.15556286 
  187000    299.18704   -772.66724    149697.83   -47342.569    4108.6136   -51451.183    0.1548474 
  187200    298.62808   -968.86797    149974.47   -47359.377    4100.9376   -51460.314    0.1598398 
  187400    291.77266   -1226.9796    150337.03   -47338.091    4006.7949   -51344.886   0.16506361 
  187600    294.22578   -1037.9196    149956.62   -47384.284    4040.4826   -51424.767   0.15289044 
  187800    298.46366   -671.42411    149517.04   -47378.465    4098.6796   -51477.145   0.15285012 
  188000    299.62508   -1017.7005     149977.6   -47346.266    4114.6289   -51460.895     0.156067 
  188200    301.69083   -1310.5652    150465.63    -47328.22     4142.997   -51471.217    0.1561352 
  188400    294.90312   -954.73699    149963.59   -47322.744    4049.7842   -51372.528   0.15278423 
  188600    299.39001   -638.13173    149497.07   -47335.546    4111.4008   -51446.947   0.15305101 
  188800    298.96762   -1065.0891    150062.27   -47342.731    4105.6003   -51448.331   0.15511524 
  189000    297.13996   -1360.6974    150511.87   -47326.435    4080.5019   -51406.937   0.15991807 
  189200    295.30697   -873.95309    149888.35   -47340.001      4055.33   -51395.331   0.15910728 
  189400     294.5041   -592.89817    149468.44   -47307.151    4044.3047   -51351.456   0.15364098 
  189600    294.41611   -1128.0738    150190.47   -47313.682    4043.0963   -51356.778   0.15665552 
  189800    299.38995   -1401.5318    150541.98   -47345.797       4111.4   -51457.197   0.16206703 
  190000    295.41051   -830.35651    149708.63   -47390.608     4056.752    -51447.36   0.15443618 
  190200    296.32882    -586.8997    149406.01   -47368.832    4069.3628   -51438.195   0.14911866 
  190400    296.18366   -1240.5092    150303.21   -47355.987    4067.3693   -51423.356   0.15637039 
  190600     290.8225   -1399.2054    150489.32   -47292.177    3993.7467   -51285.923   0.17015208 
  190800    298.37771    -747.5101    149641.22   -47338.699    4097.4994   -51436.199   0.15424674 
  191000    296.06559   -719.15929    149575.93    -47354.63     4065.748   -51420.378    0.1577752 
  191200    293.63329   -1234.2634    150265.44   -47337.612    4032.3462   -51369.958    0.1658588 
  191400    296.51963   -1232.9777    150239.53    -47362.39    4071.9831   -51434.374   0.16306324 
  191600    289.69159   -809.88023    149672.05   -47323.461    3978.2164   -51301.677   0.16204266 
  191800    292.89826   -852.76272    149744.65   -47358.107    4022.2522   -51380.359   0.15828996 
  192000     295.2312   -1167.5304    150217.12   -47350.392    4054.2896   -51404.682   0.15867553 
  192200    297.40331    -1085.655    150109.11   -47319.626    4084.1183   -51403.745   0.15551544 
  192400    296.55066    -813.3626    149734.12   -47331.167    4072.4092   -51403.576   0.15545902 
  192600    300.47681   -888.80824    149812.74   -47361.378    4126.3254   -51487.704   0.15625916 
  192800     297.0458   -1153.8465    150129.71   -47332.109    4079.2087   -51411.318   0.16025833 
  193000    301.95415   -1028.7164    150020.04   -47322.883    4146.6131   -51469.496   0.15657673 
  193200     305.3311   -826.94947    149749.78    -47280.13    4192.9874   -51473.118   0.16284698 
  193400    291.38492   -971.92181    149917.61   -47279.617    4001.4701   -51281.088   0.16279394 
  193600    296.46469   -1123.0806    150164.84    -47288.51    4071.2286   -51359.739   0.16113866 
  193800    295.62768   -1016.6852    149966.84   -47341.782    4059.7342   -51401.516   0.16219585 
  194000    295.65496   -856.46961    149768.75   -47370.806    4060.1089   -51430.915   0.15231372 
  194200     296.5553   -964.48765    149938.64   -47354.696    4072.4729   -51427.169   0.15151624 
  194400    296.54285   -1097.2559    150082.14   -47332.551    4072.3019   -51404.853   0.15888858 
  194600    296.91857   -999.96771    149896.57   -47361.183    4077.4616   -51438.645   0.16407818 
  194800    296.65578   -919.96035    149793.17   -47347.239    4073.8528   -51421.092   0.15661492 
  195000    302.93796   -1056.2551    150003.43   -47327.811    4160.1234   -51487.935   0.15452299 
  195200    295.25063   -1063.9673     150089.3   -47310.217    4054.5564   -51364.773   0.16446005 
  195400    301.61819   -951.58273    149926.42   -47315.572    4141.9995   -51457.571   0.15857245 
  195600    298.28429   -937.15105     149842.1   -47322.264    4096.2165   -51418.481    0.1623254 
  195800    301.15891   -1035.7542    150014.87   -47366.494    4135.6924   -51502.187   0.16227691 
  196000    299.62934   -1059.5159    150074.72   -47334.388    4114.6875   -51449.076   0.15379217 
  196200    301.45396   -959.06621    149909.59    -47323.97    4139.7442   -51463.715   0.14764766 
  196400     300.0378   -900.17687    149880.52   -47324.012    4120.2967   -51444.309     0.151878 
  196600    294.91747   -1065.3126     150042.6   -47389.898    4049.9812   -51439.879   0.15973676 
  196800    299.50435   -1062.3256     150033.4   -47381.043     4112.971   -51494.014   0.15271168 
  197000    290.42284   -941.16466    149881.14   -47392.733    3988.2583   -51380.991   0.15397869 
  197200    289.91095   -977.98049    149912.51   -47450.161    3981.2288   -51431.389    0.1526951 
  197400      293.448   -1013.2047    150065.29   -47404.537    4029.8016   -51434.339   0.15432421 
  197600    295.84212    -1061.425    150084.37   -47316.804    4062.6791   -51379.484    0.1613415 
  197800     293.0578   -974.30419    149957.18   -47305.636    4024.4432   -51330.079   0.16046516 
  198000    295.61681   -964.73918     149940.2   -47336.938     4059.585   -51396.523   0.15719087 
  198200    298.97845   -1020.4493    150044.22   -47361.968    4105.7491   -51467.717   0.15045859 
  198400    295.51209   -1030.5117    150055.98   -47286.469    4058.1469   -51344.616   0.15861534 
  198600    301.84335    -946.6376    149912.81   -47279.012    4145.0916   -51424.103   0.15415927 
  198800    301.78487   -933.97186    149906.12   -47313.406    4144.2885   -51457.694   0.15435821 
  199000    294.80603   -1098.9784    150101.27   -47316.632    4048.4509   -51365.083   0.16533671 
  199200    296.96019   -1059.7023    150065.94   -47310.251    4078.0331   -51388.284   0.16171016 
  199400    289.69083   -943.19494    149796.13   -47325.797    3978.2059   -51304.003    0.1589273 
  199600    296.71785   -928.44841    149851.43   -47349.134    4074.7052   -51423.839   0.15764567 
  199800    298.56926    -1102.735       150144   -47323.424    4100.1298   -51423.554   0.16173246 
  200000    295.27386   -1114.2966    150070.48   -47343.136    4054.8754   -51398.011   0.16290212 
Loop time of 106.876 on 6 procs for 200000 steps with 4608 atoms

Performance: 808.415 ns/day, 0.030 hours/ns, 1871.332 timesteps/s
97.8% CPU use with 6 MPI tasks x no OpenMP threads

MPI task timing breakdown:
Section |  min time  |  avg time  |  max time  |%varavg| %total
---------------------------------------------------------------
Pair    | 75.252     | 75.577     | 75.999     |   3.5 | 70.71
Neigh   | 10.73      | 11.007     | 11.473     |   9.0 | 10.30
Comm    | 9.1952     | 10.136     | 10.711     |  15.4 |  9.48
Output  | 3.0792     | 3.0806     | 3.0866     |   0.2 |  2.88
Modify  | 5.7134     | 5.8292     | 5.9291     |   3.0 |  5.45
Other   |            | 1.246      |            |       |  1.17

Nlocal:        768.000 ave         793 max         751 min
Histogram: 1 1 0 1 2 0 0 0 0 1
Nghost:        1394.00 ave        1414 max        1369 min
Histogram: 1 0 0 0 0 2 2 0 0 1
Neighs:        0.00000 ave           0 max           0 min
Histogram: 6 0 0 0 0 0 0 0 0 0
FullNghs:      21852.3 ave       22589 max       21364 min
Histogram: 1 1 0 1 2 0 0 0 0 1

Total # of neighbors = 131114
Ave neighs/atom = 28.453559
Neighbor list builds = 12863
Dangerous builds = 0
write_data		data.${NAME}
write_data		data.ice_297K_-1000atm_ML
System init for write_data ...
Total wall time: 0:02:38
