

read_data data.ice_${TEMP}K_${PRES}atm_ML group ice
read_data data.ice_297K_${PRES}atm_ML group ice
read_data data.ice_297K_-1000atm_ML group ice
Reading data file ...
  orthogonal box = (-0.10584878 -0.094087802 -0.094087802) to (57.376359 51.001208 51.001208)
  3 by 1 by 2 MPI processor grid
  reading atoms ...
  4608 atoms
  reading velocities ...
  4608 velocities
  read_data CPU = 0.017 seconds
read_data data.liq_${TEMP}K_${PRES}atm_ML add append shift ${X_HI} ${YZ_LO} ${YZ_LO} group water
read_data data.liq_297K_${PRES}atm_ML add append shift ${X_HI} ${YZ_LO} ${YZ_LO} group water
read_data data.liq_297K_-1000atm_ML add append shift ${X_HI} ${YZ_LO} ${YZ_LO} group water
read_data data.liq_297K_-1000atm_ML add append shift 51.0012078021818 ${YZ_LO} ${YZ_LO} group water
read_data data.liq_297K_-1000atm_ML add append shift 51.0012078021818 0.0940878021843154 ${YZ_LO} group water
read_data data.liq_297K_-1000atm_ML add append shift 51.0012078021818 0.0940878021843154 0.0940878021843154 group water
Reading data file ...
  orthogonal box = (-0.10584878 -0.19691019 -0.19691019) to (104.50118 51.292206 51.292206)
  3 by 1 by 2 MPI processor grid
  reading atoms ...
  4608 atoms
  reading velocities ...
  4608 velocities
  read_data CPU = 0.011 seconds

write_data data.icewater_test
System init for write_data ...
WARNING: Communication cutoff is 0.0. No ghost atoms will be generated. Atoms may get lost. (../comm_brick.cpp:167)

# Define potential
#
pair_style sw
pair_coeff * * /data/emrosky-sim/Freezing_Simulations/Melting/MLmW_fancy/ML_mW.sw mW
Reading sw potential file /data/emrosky-sim/Freezing_Simulations/Melting/MLmW_fancy/ML_mW.sw with DATE: 2019-02-27

# Delete water and ice atoms that are overlapping
#
delete_atoms overlap 2.5 water ice
System init for delete_atoms ...
Neighbor list info ...
  update every 1 steps, delay 10 steps, check yes
  max neighbors/atom: 2000, page size: 100000
  master list distance cutoff = 6.0032907
  ghost atom cutoff = 6.0032907
  binsize = 3.0016454, bins = 35 18 18
  2 neighbor lists, perpetual/occasional/extra = 1 1 0
  (1) command delete_atoms, occasional, copy from (2)
      attributes: full, newton on
      pair build: copy
      stencil: none
      bin: none
  (2) pair sw, perpetual
      attributes: full, newton on
      pair build: full/bin/atomonly
      stencil: full/bin/3d
      bin: standard
Deleted 670 atoms, new total = 8546

# set timestep
#
timestep 10.0

# Define output
#
compute 1 all msd
thermo 50
thermo_style custom step temp press vol etotal ke pe c_1[4]

# Neighbor lists
#
neigh_modify delay 0 every 1 check yes

# Set fixes
#
fix 1 all momentum 10 linear 1 1 1 rescale
fix 2 all nph iso ${PRES} ${PRES} ${PCOUPL}
fix 2 all nph iso -1000 ${PRES} ${PCOUPL}
fix 2 all nph iso -1000 -1000 ${PCOUPL}
fix 2 all nph iso -1000 -1000 10000.0
fix 3 all temp/csvr ${TEMP} ${TEMP} ${TCOUPL} 837492
fix 3 all temp/csvr 297 ${TEMP} ${TCOUPL} 837492
fix 3 all temp/csvr 297 297 ${TCOUPL} 837492
fix 3 all temp/csvr 297 297 5000.0 837492


# Fix ice atoms in place
#
velocity ice set 0.0 0.0 0.0
fix 4 ice setforce 0.0 0.0 0.0

# Run 1.0 ns equilibration of water
#
dump 1 all atom 1000 eq.all.${NAME}.dump
dump 1 all atom 1000 eq.all.coexist_297K_-1000atm_ML.dump
run 100000
Neighbor list info ...
  update every 1 steps, delay 0 steps, check yes
  max neighbors/atom: 2000, page size: 100000
  master list distance cutoff = 6.0032907
  ghost atom cutoff = 6.0032907
  binsize = 3.0016454, bins = 35 18 18
  1 neighbor lists, perpetual/occasional/extra = 1 0 0
  (1) pair sw, perpetual
      attributes: full, newton on
      pair build: full/bin/atomonly
      stencil: full/bin/3d
      bin: standard
Per MPI rank memory allocation (min/avg/max) = 4.590 | 4.598 | 4.604 Mbytes
Step Temp Press Volume TotEng KinEng PotEng c_1[4] 
       0    137.44988   -1690.3581    277326.74       -83412    3500.9889   -86912.989            0 
      50    163.60269   -1653.3864    275783.25   -83071.667    4167.1276   -87238.794   0.89417365 
     100    171.33343   -778.03623    272803.67   -82810.647    4364.0376   -87174.684    1.9702145 
     150    176.46706   -442.70275    271604.16   -82491.427    4494.7964   -86986.223    3.0456478 
     200    179.53277   -726.75391    272309.24   -82177.497    4572.8832    -86750.38    4.1536472 
     250    186.77901   -1065.9544    273634.12   -81877.259    4757.4523   -86634.711    5.3802848 
     300    188.87038   -1336.5565    274579.85   -81567.311    4810.7217   -86378.032    6.7428371 
     350    200.90706   -1176.4711    274538.78   -81256.095    5117.3081   -86373.403    8.3166984 
     400    202.29067   -1000.9553    274020.13   -81071.389      5152.55   -86223.939    9.8525564 
     450    203.99802   -667.54225    273557.99   -80853.315    5196.0379   -86049.353    11.422492 
     500    210.12735   -872.90418    273938.07   -80637.256    5352.1584   -85989.415     13.16146 
     550    212.12079   -1030.9275    274623.64    -80440.18    5402.9333   -85843.113    14.807594 
     600    216.47734   -1175.2178    274909.62   -80222.714     5513.899   -85736.613    16.775663 
     650    219.51245   -894.07318     274957.9   -80052.296    5591.2063   -85643.502    18.792885 
     700    226.07062   -1100.7421    274935.73   -79819.518    5758.2498   -85577.768    20.949218 
     750    227.76849   -1029.0164    275036.36   -79667.497    5801.4963   -85468.994    23.123582 
     800    230.15544    -863.3958    275535.91   -79495.508    5862.2942   -85357.803    25.376005 
     850    232.80037   -1265.7164    276130.53   -79348.859    5929.6634   -85278.522    27.743271 
     900    232.27762   -1276.6495    276018.55   -79203.431    5916.3483   -85119.779    29.916059 
     950    235.99496   -911.52785    275629.26   -79064.462    6011.0329   -85075.495    32.316077 
    1000    242.71064   -869.55692    275774.37   -78880.469    6182.0881   -85062.557    34.669226 
    1050    245.36811   -1094.7811    276292.56   -78757.022    6249.7766   -85006.799    36.991147 
    1100     240.9657   -1105.0868    276610.51   -78589.511    6137.6425   -84727.153    39.337318 
    1150    250.94255   -1262.9462    276825.51   -78427.521    6391.7631   -84819.284    41.884783 
    1200    248.23329    -997.9811    276709.65   -78341.526    6322.7554   -84664.282     44.94137 
    1250    251.43744   -987.85401    276809.32   -78231.204    6404.3686   -84635.573    48.081497 
    1300    254.09087    -1032.055    276996.35   -78160.741    6471.9541   -84632.695    50.671556 
    1350    258.32698   -486.59293    277156.65   -77996.154    6579.8523   -84576.006    53.320754 
    1400    256.98963   -827.57239    277215.28   -77883.008    6545.7884   -84428.796    55.693136 
    1450    261.22904   -1014.6289    277214.96   -77763.495    6653.7707   -84417.266    58.496355 
    1500    261.01232   -975.17864    277294.75   -77726.258    6648.2505   -84374.508    61.205214 
    1550     263.9039   -955.63188    277345.14   -77608.879    6721.9021   -84330.781     64.49043 
    1600    265.13357   -859.91576    277614.77   -77526.728    6753.2231   -84279.951    67.324401 
    1650    269.62637   -923.57022       277974   -77462.964    6867.6591   -84330.623    70.664606 
    1700    266.15177   -1143.5791     278298.1   -77389.503    6779.1576    -84168.66    73.768908 
    1750    269.36003   -971.29683    278163.47   -77279.905    6860.8753    -84140.78     76.78555 
    1800    270.68796    -956.4008    277827.26   -77248.852    6894.6989   -84143.551    79.933462 
    1850    273.60419   -996.91609     277955.4   -77138.813    6968.9783   -84107.791    82.816626 
    1900    269.59788   -1172.1886    278185.12   -77073.246    6866.9334   -83940.179    85.558397 
    1950    275.85934   -925.44789    278228.73   -77007.856    7026.4194   -84034.276    88.109518 
    2000    271.33891   -913.87929    278146.04   -76900.722    6911.2793   -83812.001    90.490765 
    2050    277.97731   -781.96425     278168.9   -76865.338    7080.3662   -83945.704    93.310592 
    2100    276.94083   -1115.5952    278774.57   -76816.739     7053.966   -83870.705    96.124193 
    2150    278.83132   -1388.5687    279209.54   -76699.607    7102.1187   -83801.726    99.033064 
    2200    280.16767   -988.85038    278787.83   -76645.266    7136.1569   -83781.423    102.11107 
    2250    281.62554   -1014.2111    278373.28   -76622.264    7173.2903   -83795.555    105.33629 
    2300    277.10604   -497.43926    278373.74   -76598.996     7058.174    -83657.17    108.43508 
    2350    281.13633   -989.39222    278944.64   -76523.058    7160.8297   -83683.887    111.16707 
    2400     282.3522   -1231.4169    279279.63   -76527.653    7191.7989   -83719.452    114.40467 
    2450    284.34817   -1172.9556    279002.51   -76544.285    7242.6385   -83786.924    117.56871 
    2500    284.83869   -970.17059    278602.02   -76549.073    7255.1325   -83804.206    121.18474 
    2550    281.77914   -1066.2403    278667.81   -76456.134    7177.2027   -83633.337    124.47176 
    2600    281.62859   -953.25529    278780.88   -76458.835     7173.368   -83632.202    128.42525 
    2650    282.81026    -1310.643    278967.79   -76458.784    7203.4663   -83662.251    131.64594 
    2700    287.45469   -1049.8875    278796.77   -76418.368    7321.7646   -83740.133    135.60751 
    2750    287.40363   -801.66401    278861.54    -76374.15    7320.4641   -83694.614    139.28588 
    2800    287.78223    -957.9087    278948.31   -76404.212    7330.1075    -83734.32    142.92064 
    2850    287.35188   -982.56361    279091.68   -76357.269    7319.1461   -83676.415    146.35515 
    2900    286.17174    -973.2088    279293.43    -76312.35    7289.0867   -83601.437     150.2862 
    2950    285.38722   -999.11006    279259.33   -76293.524    7269.1041   -83562.628    154.19829 
    3000    286.54015   -966.67789    278949.14   -76298.976    7298.4703   -83597.446    157.38175 
    3050    288.55335   -963.21975    278701.59   -76277.182    7349.7486   -83626.931    161.66816 
    3100    292.07514   -757.64184    278890.66   -76205.477    7439.4523    -83644.93    165.03551 
    3150    290.74794   -935.63728    279242.81   -76154.219    7405.6472   -83559.866    169.05614 
    3200    290.04821   -1033.5146    279284.52   -76121.358    7387.8243   -83509.182    173.42918 
    3250    292.84923   -770.59641     278941.1    -76092.53    7459.1693   -83551.699     177.4411 
    3300     290.8116   -950.11295    278800.74   -76111.326    7407.2685   -83518.595    182.24767 
    3350    290.19588    -937.1624    279086.36   -76125.566    7391.5856   -83517.151    186.32392 
    3400    290.13013   -1198.4709    279544.37   -76133.888    7389.9109   -83523.799    190.37847 
    3450    290.53429    -1072.679    279722.83    -76185.31    7400.2053   -83585.515    194.05281 
    3500    288.40214   -1070.4678    279471.82   -76181.691    7345.8972   -83527.588    196.94725 
    3550    292.69021   -946.88444    279057.85   -76171.477    7455.1188   -83626.596    200.88632 
    3600    290.44178   -983.27372    278796.08   -76151.782     7397.849   -83549.631     205.5282 
    3650    291.65123   -804.53624    278552.04    -76128.86    7428.6548   -83557.515    209.36567 
    3700    292.55982   -949.07467     278720.1   -76083.387    7451.7975   -83535.185    213.60048 
    3750    293.13333   -823.30627    279165.88   -75969.543    7466.4054   -83435.949     217.1188 
    3800    297.81087   -962.50058    279502.44   -75966.581    7585.5473   -83552.128    220.33743 
    3850    298.94655   -979.78068    279551.37   -75918.064    7614.4742   -83532.538     224.8916 
    3900    297.75908   -1083.9853     279644.8   -75885.572     7584.228     -83469.8    228.77319 
    3950    296.33049   -1008.9515    279443.15   -75883.298    7547.8403   -83431.139    232.49376 
    4000    297.30772   -1057.8574    279123.64   -75947.553    7572.7314   -83520.285    235.74821 
    4050    297.80287   -890.19888    278896.28   -75957.152    7585.3434   -83542.495    240.31294 
    4100    290.21311   -659.76643    278788.31   -75948.155    7392.0245   -83340.179    243.86994 
    4150    287.15714   -983.74199    279423.49   -75968.797    7314.1859   -83282.983    247.91746 
    4200    296.27451   -1149.6474    280117.87    -75927.61    7546.4145   -83474.024    252.27351 
    4250    299.67829   -1131.6477    280086.52   -75904.701    7633.1123   -83537.813     255.6938 
    4300     295.9472    -947.4538    279441.76   -75895.899    7538.0775   -83433.976    258.51338 
    4350    294.03448   -638.20587    278730.43   -75905.488    7489.3587   -83394.847    260.62964 
    4400    293.11853   -1003.9858    278851.66   -75930.267    7466.0285   -83396.295    264.08442 
    4450     296.0061   -1123.1247    279567.93   -75902.039    7539.5778   -83441.617    268.14476 
    4500    295.33465   -1082.8122     280029.5   -75867.809    7522.4754   -83390.285      272.047 
    4550    295.66607    -1225.701    280251.29   -75851.953    7530.9168    -83382.87    275.04034 
    4600    297.70124   -945.92105    279924.29    -75829.73    7582.7548   -83412.485    277.57974 
    4650    297.03596   -849.21256    279632.58   -75842.585    7565.8094   -83408.395    280.01577 
    4700    296.17886   -1119.9698    279240.55   -75842.149    7543.9783   -83386.128    282.60366 
    4750      295.769    -1064.739    278960.66    -75876.21    7533.5387   -83409.749    285.19904 
    4800    293.86715   -1038.1271    279203.71   -75845.321    7485.0966   -83330.417    289.16016 
    4850    296.30397   -1143.4987    279836.55   -75792.772     7547.165   -83339.937    293.68872 
    4900    293.14465   -1300.7958    280160.24    -75792.85    7466.6937   -83259.544    297.16795 
    4950    297.43143   -933.57337    279717.33   -75810.996    7575.8824   -83386.878    299.36833 
    5000    299.41961   -1169.7262    279464.62   -75809.151    7626.5235   -83435.674    302.88728 
    5050    303.09094   -1160.9241    279455.78   -75822.363     7720.036   -83542.399    305.96465 
    5100    302.50136   -863.81946    279363.44   -75809.463    7705.0188   -83514.482    309.55747 
    5150    294.27612   -796.14474    279404.49   -75828.143    7495.5134   -83323.657    313.27084 
    5200     296.6834   -883.26925    279546.31   -75775.232    7556.8293   -83332.061    317.76279 
    5250    295.61011   -1117.8127     279531.5   -75752.857    7529.4916   -83282.349    321.08249 
    5300    298.44311    -919.5138    279622.08    -75703.15     7601.651   -83304.801    325.14253 
    5350    297.48684   -1038.7849    279812.62   -75693.414    7577.2939   -83270.708    329.20912 
    5400    300.59411   -1163.0839    279791.29   -75703.515    7656.4392   -83359.954    332.57747 
    5450    296.65251    -1150.214    279614.71   -75687.133    7556.0426   -83243.175    335.91448 
    5500    302.10376   -767.56805    279242.04   -75702.548    7694.8914    -83397.44    339.83258 
    5550     299.5438     -1025.73    279509.58   -75740.202    7629.6866   -83369.889    343.39786 
    5600    294.31127   -1280.2373    279922.83   -75698.738    7496.4088   -83195.147    347.81467 
    5650    300.41875   -1274.6843    279907.67   -75697.879    7651.9726   -83349.852    352.52678 
    5700    299.40741   -960.33394    279504.22   -75646.298    7626.2128   -83272.511    355.60818 
    5750    299.70552   -903.21159    279221.02   -75676.293     7633.806   -83310.099      358.751 
    5800     299.1646   -973.73081    279221.54   -75701.874    7620.0281   -83321.902    361.99159 
    5850    296.09685   -729.18313    279530.66   -75681.321    7541.8892    -83223.21    364.37676 
    5900    302.55507    -995.4743    279986.68   -75629.912    7706.3868   -83336.299    367.82715 
    5950    302.13542   -1370.0755     280144.3   -75605.785     7695.698   -83301.483    371.71901 
    6000     302.5647   -1149.2083    280096.52   -75655.123    7706.6322   -83361.755    374.85435 
    6050    293.47373   -1116.4979     279874.4   -75699.447    7475.0758   -83174.523    378.20128 
    6100     299.9973   -839.47135    279509.92   -75712.168    7641.2377   -83353.406    380.85657 
    6150    296.63635   -743.82296     279437.4   -75674.439    7555.6309    -83230.07    383.22281 
    6200    299.51256   -1184.2672     279670.1   -75670.557    7628.8909   -83299.448    386.33361 
    6250    299.06048   -1024.6958    279965.55    -75612.31    7617.3761   -83229.686    389.60757 
    6300    297.43213   -1000.9384    280224.98   -75610.156    7575.9002   -83186.056    392.76697 
    6350    297.48088   -1147.8723    279942.89    -75652.46     7577.142   -83229.602    395.76423 
    6400    302.89252   -947.88605    279502.17   -75587.415     7714.982   -83302.397    398.49481 
    6450    302.96946   -989.88175    279472.88   -75571.938    7716.9419    -83288.88    400.79392 
    6500    303.13238   -951.45698    279805.61    -75573.97    7721.0915   -83295.062     404.9036 
    6550     299.4938   -979.68522    280179.78   -75572.505    7628.4132   -83200.918    408.41927 
    6600    301.97787   -1089.3888    280164.91   -75670.212    7691.6849   -83361.897    410.70421 
    6650    299.79127   -1112.0315    279725.67   -75715.356      7635.99   -83351.346    413.36789 
    6700    298.13344    -810.9384    279356.47   -75737.349    7593.7635   -83331.112    415.78028 
    6750     298.3496    -915.5691     279416.8    -75770.92    7599.2692    -83370.19    419.53532 
    6800    296.01114   -1086.9621    279842.68   -75772.875    7539.7062   -83312.581    423.56238 
    6850    298.60174    -1204.169    280212.63   -75782.598    7605.6915    -83388.29    426.69352 
    6900    298.19104   -1166.9921    280090.99   -75804.895    7595.2304   -83400.126    429.93328 
    6950    298.64446   -915.83327    279773.46   -75793.759    7606.7797   -83400.539    433.06429 
    7000    303.02781   -954.09682    279256.25   -75787.107     7718.428   -83505.535    435.61986 
    7050    294.82939   -641.95351     279034.2   -75773.032    7509.6059   -83282.638    438.20702 
    7100    294.44712   -1286.9253    279697.31   -75719.306     7499.869   -83219.175    442.40227 
    7150    298.11545   -1034.9098    280072.19    -75726.78    7593.3051   -83320.085    445.96719 
    7200    299.84076   -1283.4515    280111.28   -75695.755    7637.2506   -83333.006    450.33157 
    7250     300.2944   -1112.3146     279931.8   -75653.106    7648.8054   -83301.911    453.82376 
    7300    297.97345   -1063.0919    279655.81   -75646.396    7589.6882   -83236.084    456.60797 
    7350    298.66998     -1211.77     279597.6    -75672.43    7607.4297   -83279.859    459.80628 
    7400    300.27327   -895.09872    279455.79   -75685.446    7648.2669   -83333.713    463.16702 
    7450    301.18857   -1091.4232    279512.05   -75658.239    7671.5807    -83329.82    466.80294 
    7500    301.91278   -1017.7008    279514.52   -75686.224    7690.0269   -83376.251    470.05914 
    7550    298.33645   -968.20877    279604.54    -75738.56    7598.9341   -83337.495     473.2224 
    7600     300.6799   -863.97125    279590.21   -75741.626    7658.6244    -83400.25    476.00436 
    7650    298.27097   -1014.9287    279620.22   -75721.453    7597.2663    -83318.72    478.24869 
    7700    299.45887   -853.06742     279504.5   -75717.407    7627.5234    -83344.93    481.04927 
    7750    300.81935   -1179.5684     279778.7   -75735.544    7662.1762    -83397.72    484.26661 
    7800     300.1344   -1048.9283     279855.6   -75776.291    7644.7298   -83421.021    488.69047 
    7850    300.61812   -1264.8475    279572.98   -75761.078    7657.0507   -83418.129    492.66314 
    7900    302.62242   -1026.5042    279218.84   -75733.406    7708.1024   -83441.509    496.33514 
    7950    300.04091   -889.61891    279172.91   -75749.878    7642.3487   -83392.226    498.39638 
    8000    300.32522   -947.32279    279494.76   -75741.851    7649.5903   -83391.441    503.27738 
    8050    294.84375   -1009.9443    279837.08   -75753.989    7509.9717   -83263.961    506.36879 
    8100    297.58451   -1508.7545    279946.84   -75792.302    7579.7816   -83372.084     509.7642 
    8150    297.03147   -1103.3472    279482.36   -75843.952    7565.6951   -83409.647    511.49297 
    8200    297.29504   -749.58198    279032.49   -75812.804    7572.4084   -83385.212    514.00818 
    8250    296.95755   -733.72179    279163.41   -75804.389    7563.8122   -83368.201    517.80171 
    8300    294.84669   -936.70519    279572.42   -75781.095    7510.0464   -83291.142    522.63217 
    8350    295.71398   -1138.2375    279993.03   -75848.191    7532.1373   -83380.329    526.69527 
    8400    296.22182    -1025.003    280061.96   -75858.265    7545.0724   -83403.338    530.33078 
    8450    297.63379   -1237.6442    279995.43    -75852.93    7581.0369   -83433.967    531.89135 
    8500    302.70654   -847.24912    279232.19   -75814.412    7710.2448   -83524.657    532.62475 
    8550    301.24733   -1048.4135    278755.47   -75770.834    7673.0772   -83443.911    534.68715 
    8600    294.39685    -1091.993    279122.21   -75761.528    7498.5885   -83260.117    538.47138 
    8650    295.95799     -1326.06    279791.69   -75705.615    7538.3525   -83243.967    543.38365 
    8700    297.39247   -1060.2718    280103.07   -75671.353    7574.8901   -83246.243    548.00824 
    8750    296.60995   -1138.0851    280115.58   -75650.787    7554.9586   -83205.745     552.2405 
    8800    300.59997    -968.3441    279738.93   -75636.762    7656.5883    -83293.35    555.46266 
    8850     301.4103   -922.45077    279569.41    -75616.15    7677.2282   -83293.379    558.19263 
    8900    296.74308   -1151.5089    279846.02   -75605.962    7558.3495   -83164.311    559.89986 
    8950     301.8103   -1030.6011    280047.06   -75584.674    7687.4167   -83272.091    561.32067 
    9000    302.13499   -1031.4872    279999.57   -75606.576    7695.6871   -83302.264    563.04675 
    9050    306.14083   -1097.7032    279775.69   -75589.522    7797.7198   -83387.242    566.27141 
    9100    299.21503   -937.55161    279530.93   -75604.727    7621.3126   -83226.039    570.15832 
    9150    298.08189   -1160.6658    279327.94   -75636.994    7592.4504   -83229.444    572.62114 
    9200    298.94184   -785.88897    279359.52   -75588.019    7614.3541   -83202.373    576.49915 
    9250    306.07049   -1163.9059    280078.47   -75565.351    7795.9281   -83361.279    580.29241 
    9300     300.2077   -1211.0683    280565.29   -75611.805    7646.5969   -83258.402    585.61027 
    9350    299.73505   -1066.4488    280304.35   -75622.196    7634.5581   -83256.754    588.77253 
    9400    302.09757   -842.57915     279838.1   -75670.191    7694.7337   -83364.924    591.15436 
    9450    299.71134   -845.72774    279609.99   -75675.042     7633.954   -83308.996    593.86249 
    9500    300.19347    -1099.774    279671.35   -75671.488    7646.2344   -83317.722    596.72283 
    9550    302.96529   -1009.2598    279911.75   -75680.329    7716.8356   -83397.164    600.03587 
    9600    295.44081   -1056.0934    280077.51    -75670.04    7525.1793   -83195.219    603.38514 
    9650    303.63112   -890.05747    279666.79    -75648.09     7733.795   -83381.885    605.34389 
    9700    299.35114   -945.57731    279437.37   -75652.313    7624.7794   -83277.092    608.89011 
    9750     296.6762   -873.41782    279418.84   -75732.437    7556.6459   -83289.083    611.59484 
    9800    299.05166   -868.39529    279657.18   -75705.402    7617.1513   -83322.553    613.23495 
    9850    297.66469   -999.65563     279931.3   -75699.225    7581.8237   -83281.048    616.62305 
    9900    300.61408   -796.25721    280016.12   -75656.681    7656.9478   -83313.629     619.9273 
    9950    302.17732   -718.92202    279847.99    -75668.65    7696.7651   -83365.415    624.09964 
   10000    304.03213   -1288.8283    279771.44   -75685.259     7744.009   -83429.268    626.46259 
   10050     294.6364   -1082.7111    279670.18   -75673.937    7504.6902   -83178.627    628.86346 
   10100    299.88154   -1022.6189    279566.26   -75674.183    7638.2891   -83312.472    631.84261 
   10150    298.75296   -1106.5439    279739.76   -75670.749    7609.5431   -83280.292    634.29151 
   10200    300.10509   -1007.6293    279954.48   -75699.606    7643.9833   -83343.589    637.70041 
   10250     300.3067   -1059.9613    280136.65   -75644.426    7649.1186   -83293.544    639.41067 
   10300    299.49646   -1084.9781    280288.66   -75604.358    7628.4808   -83232.839    641.59262 
   10350    301.12678   -1040.2944    280221.59   -75630.158    7670.0069   -83300.165    644.40382 
   10400    297.29971   -998.24645    279859.63   -75660.541    7572.5275   -83233.069    645.54334 
   10450    299.69471    -904.9417    279359.23   -75643.529    7633.5305    -83277.06     646.7777 
   10500    304.82253   -685.93366    279176.13   -75625.036    7764.1412   -83389.177    649.33491 
   10550    300.23338   -892.55634    279684.71   -75596.085    7647.2511   -83243.336    653.27859 
   10600    301.30145   -885.88703    280397.43   -75583.908    7674.4558   -83258.364    657.56615 
   10650    296.32638   -1266.8694    280981.98   -75594.673    7547.7357   -83142.409    661.17384 
   10700    302.28381   -1344.0236    280610.48   -75656.397    7699.4774   -83355.875    662.18396 
   10750    300.51386   -953.22273    279649.67   -75661.136    7654.3951   -83315.531     662.8387 
   10800    302.41379   -786.75968    278781.87   -75676.291    7702.7882    -83379.08    664.19657 
   10850    303.96375    -648.1988    278740.69    -75690.23    7742.2674   -83432.497    667.19472 
   10900    302.09727   -1071.3488    279486.18   -75688.659    7694.7261   -83383.385    671.08162 
   10950    295.78049   -1274.6937    279987.18   -75706.348    7533.8314   -83240.179    675.44363 
   11000    300.72951   -1213.3195    280013.93    -75734.48     7659.888   -83394.368    677.80419 
   11050    297.91509   -1000.4893    279731.51    -75730.53    7588.2019   -83318.732    678.99439 
   11100    298.19472     -1068.84    279396.46   -75777.577    7595.3241   -83372.901    680.81333 
   11150    297.83355   -964.34028    279352.21   -75773.557    7586.1249   -83359.681      684.521 
   11200    299.96639   -821.51798    279495.39   -75789.617    7640.4505   -83430.068    688.57263 
   11250    295.61622   -1129.2758    279776.82   -75771.137    7529.6473   -83300.784    691.79708 
   11300    296.00568   -1138.1463    279892.86    -75793.65    7539.5671   -83333.217    695.16431 
   11350    290.72846   -943.97616    279869.86   -75798.932    7405.1509   -83204.083    698.12555 
   11400    294.44504   -1182.3105    279797.12   -75815.721    7499.8161   -83315.537    701.36564 
   11450    299.51147   -1050.4617    279489.17   -75775.027    7628.8631    -83403.89    704.95619 
   11500    298.69547   -948.85481    279333.36   -75701.136    7608.0788   -83309.215    706.57238 
   11550    298.46752   -924.41045    279675.66   -75683.487    7602.2728   -83285.759    709.86938 
   11600    294.77403   -1020.4809    280225.67    -75709.67    7508.1959   -83217.866    713.94181 
   11650    292.44477   -1147.4095    280284.35   -75791.186    7448.8672   -83240.053    716.72119 
   11700    294.13699   -1164.0487    279764.09    -75762.57    7491.9698    -83254.54    718.25146 
   11750    298.46541   -954.73918    279194.08   -75817.603    7602.2191   -83419.822    719.74169 
   11800    296.83088   -832.45486    279139.37   -75860.605    7560.5857   -83421.191    721.34239 
   11850    289.21815    -1047.447    279497.56   -75861.339    7366.6818   -83228.021     724.8821 
   11900    293.93675   -927.30248    279798.54   -75837.114    7486.8695   -83323.983    729.40985 
   11950    295.60655   -1124.1108    279926.19   -75825.062     7529.401   -83354.463     732.3528 
   12000    295.97912   -749.03948     279658.7   -75852.665    7538.8907   -83391.555    732.44473 
   12050    296.96104   -1058.4797       279340   -75892.713    7563.9013   -83456.614    734.47858 
   12100    295.33005   -1118.6123    279336.96   -75864.917    7522.3581   -83387.275    737.55784 
   12150    298.29595   -920.69946    279398.93    -75820.71    7597.9026   -83418.612    740.32518 
   12200    298.68528   -998.91971    279766.06    -75775.79    7607.8192   -83383.609    743.04822 
   12250    297.53448   -1137.3638    279989.15   -75807.496    7578.5073   -83386.003     746.0027 
   12300    299.73501     -1251.43    279974.27   -75716.458    7634.5569   -83351.015    749.67957 
   12350    294.60062   -1343.7221     279802.9   -75761.195    7503.7788   -83264.974    750.79288 
   12400    300.03636   -961.60304    279478.35   -75738.466    7642.2326   -83380.698    752.35067 
   12450    296.96491   -858.66488    279536.62   -75712.413    7563.9997   -83276.413    755.23047 
   12500    298.79768   -1151.5871    279660.99   -75728.725    7610.6823   -83339.407     757.2467 
   12550    300.76348   -951.09088    279735.35   -75724.187    7660.7531    -83384.94    758.89629 
   12600    297.12825   -946.41469       279877   -75748.477    7568.1601   -83316.637    761.33386 
   12650    299.72296   -1265.0983    279768.91   -75758.555      7634.25   -83392.805    764.65386 
   12700    296.92288   -1043.6494     279535.4   -75778.586    7562.9293   -83341.516    765.94031 
   12750    292.40724   -821.42716    279562.35   -75767.056    7447.9112   -83214.967    766.97598 
   12800    297.45936   -1173.0566    279673.29   -75798.001    7576.5938   -83374.595    768.16584 
   12850    298.72122    -876.1772    279521.63   -75830.931    7608.7347   -83439.665    770.22841 
   12900     293.9934   -998.12916    279472.68   -75809.495    7488.3123   -83297.807    771.75571 
   12950    295.26918   -900.12519    279636.28    -75808.69    7520.8079   -83329.498    774.74536 
   13000    298.25888   -1323.9651    279833.11   -75765.583    7596.9585   -83362.542    776.97916 
   13050    296.40726   -1023.9491    279842.36   -75739.179    7549.7957   -83288.975    780.10016 
   13100    297.63019    -794.4894       279361   -75700.481    7580.9451   -83281.426    782.29918 
   13150    297.67927   -844.32764     279066.9   -75727.433    7582.1951   -83309.628    783.43038 
   13200    299.56443   -825.63803    279416.39    -75744.95    7630.2122   -83375.163    785.86721 
   13250     296.0931   -996.58615    280087.45   -75712.787    7541.7938   -83254.581    790.05605 
   13300    294.63464   -1233.8911    280324.34   -75706.202    7504.6454   -83210.847    791.53163 
   13350    295.91354   -1148.0801    279995.33   -75705.976    7537.2202   -83243.196    792.82457 
   13400    296.92938    -1189.934    279485.42   -75765.138    7563.0948   -83328.233     795.9758 
   13450    295.33352    -618.9419    279099.32   -75728.389    7522.4467   -83250.836    797.72742 
   13500    301.62346   -817.08823    279501.17   -75714.968    7682.6579   -83397.626    800.24134 
   13550    298.45008   -1118.2869    279984.84   -75687.866    7601.8285   -83289.695     804.2653 
   13600    296.91532   -1492.6666    280296.87   -75701.709    7562.7367   -83264.446    806.37528 
   13650    298.28086   -1138.8335    280013.79   -75730.206    7597.5183   -83327.725    807.85906 
   13700    299.40846   -1023.5139    279507.77   -75750.594    7626.2395   -83376.834    809.72799 
   13750    299.57854   -1018.2432       279006   -75754.887    7630.5716   -83385.458    811.61404 
   13800    297.59709   -1105.9382     278925.3   -75733.817    7580.1019   -83313.919     813.7169 
   13850    301.70321   -763.74693    279252.36   -75734.356    7684.6892   -83419.045    816.29695 
   13900    298.12399   -1131.9814    280091.95    -75746.54    7593.5227   -83340.063    821.25743 
   13950     300.7889   -1523.5559    280570.63    -75755.03    7661.4006   -83416.431    824.53697 
   14000    296.98475   -1146.9738    280069.44   -75768.844     7564.505   -83333.349    826.59739 
   14050    297.97489   -1003.9311    279415.89   -75781.854    7589.7249   -83371.579    828.70558 
   14100    299.41622   -853.03749     279337.4   -75753.271    7626.4371   -83379.708    830.57958 
   14150    293.10951   -1036.9116     279730.6   -75756.737    7465.7989   -83222.535    833.36057 
   14200    300.03693   -1041.6824    279828.65   -75792.892    7642.2472    -83435.14    837.34881 
   14250    293.45197    -1078.716     279574.7    -75835.72    7474.5217   -83310.242    837.69069 
   14300    297.07984   -856.64111    279245.88   -75836.463     7566.927    -83403.39     838.6508 
   14350    294.49936    -878.9007       279129   -75858.571    7501.1995    -83359.77    840.81691 
   14400    300.86847    -951.9209    279164.23   -75852.367    7663.4273   -83515.795    842.47473 
   14450    295.66522     -1200.81    279455.75   -75833.618    7530.8953   -83364.513    846.23284 
   14500      293.039   -866.74148    279562.34   -75784.112    7464.0029   -83248.115    849.30495 
   14550     297.2843   -987.34428     279690.9   -75803.208    7572.1348   -83375.343    852.96156 
   14600    298.04379   -815.08776    279704.25   -75824.606    7591.4798   -83416.086    855.82305 
   14650    299.16758   -1180.6518    279828.73   -75801.729    7620.1041   -83421.833    857.96739 
   14700    300.37537   -1005.0591    279874.54   -75751.758    7650.8676   -83402.626    861.22658 
   14750     293.8528   -1090.9991    279830.73   -75770.594    7484.7311   -83255.325    864.42543 
   14800    298.03466    -753.8745    279433.86   -75776.957    7591.2472   -83368.204    866.80854 
   14850    298.60784   -1105.1789       279419   -75788.391    7605.8467   -83394.238    870.11667 
   14900    297.70783   -855.53349    279447.85   -75782.561    7582.9225   -83365.483    874.01081 
   14950    293.59707   -1088.6166    279719.31   -75845.681    7478.2175   -83323.898    876.68544 
   15000    296.31759   -1265.4597    279963.16   -75842.138    7547.5119    -83389.65    878.03657 
   15050    298.43458   -1123.4464    279655.53    -75887.64    7601.4336   -83489.074    878.87334 
   15100      299.534   -1108.0448    279165.99   -75899.237     7629.437   -83528.674    881.42677 
   15150    296.73725   -1015.9494    278839.17    -75934.55     7558.201   -83492.751    882.58673 
   15200    300.01788   -887.27799    278945.05   -75982.073    7641.7621   -83623.835    883.85425 
   15250    295.31124   -952.59809    279196.81   -75951.521     7521.879     -83473.4    887.41763 
   15300     292.2306   -891.65428     279494.6   -75953.441    7443.4119   -83396.853    889.83244 
   15350    296.33159    -1233.026    279798.74   -75952.693    7547.8684   -83500.562    890.26921 
   15400    295.49547   -1186.7376    279496.09   -75977.757    7526.5715   -83504.328    891.72964 
   15450    296.48849   -935.64552    278998.38   -76090.227    7551.8647   -83642.092    892.50702 
   15500    293.78233   -876.99709    278643.93   -76112.152     7482.936   -83595.088    894.02551 
   15550    290.45798   -694.41761    278766.71   -76128.128    7398.2615   -83526.389     896.3038 
   15600    291.11433   -994.44334    279240.22   -76066.916    7414.9794   -83481.895    899.63348 
   15650    293.31628   -1108.7159    279413.57   -76014.167    7471.0653   -83485.232    903.76966 
   15700     290.8819   -1012.4907    279396.07   -75959.777    7409.0593   -83368.837    905.60142 
   15750    293.43628   -944.32123    279135.87   -75923.762    7474.1218   -83397.884    907.55065 
   15800    292.96493   -774.88429    278930.46   -75938.181    7462.1161   -83400.297    909.19514 
   15850    291.88017   -701.39194    279221.18   -75939.671    7434.4862   -83374.157    912.14664 
   15900    298.43389   -1259.1124     279767.4   -75937.338    7601.4162   -83538.754    913.79931 
   15950    286.70954   -964.37105    279603.25   -75957.132    7302.7849   -83259.916    915.80448 
   16000    294.36709   -1033.0324       279139   -75932.626    7497.8307   -83430.456    918.74495 
   16050    298.64602   -936.37587    278782.35   -75957.572    7606.8192   -83564.391    919.76294 
   16100    296.62455    -958.9899    278709.64   -75965.192    7555.3305   -83520.522    920.27406 
   16150    294.34231   -1060.1377    278993.98    -75940.07    7497.1994   -83437.269    922.33749 
   16200    299.31894   -979.01145    279476.44   -75848.638    7623.9593   -83472.597     927.3198 
   16250    291.05266   -1040.4057    279848.35   -75833.448    7413.4086   -83246.856    929.77998 
   16300     296.4286   -1086.8871    279582.79   -75814.175    7550.3392   -83364.514    931.70716 
   16350    298.08391   -1012.9165    279004.81   -75783.939    7592.5018   -83376.441    931.69664 
   16400    295.60249   -643.92511    279092.21   -75822.605    7529.2974   -83351.902    934.60713 
   16450    293.93662   -921.92468    279769.93   -75798.483    7486.8661   -83285.349    939.08084 
   16500     296.4729   -997.37489    280116.33   -75796.564    7551.4677   -83348.032    942.88273 
   16550    296.28395   -948.50443    279871.55   -75875.272    7546.6549   -83421.927    943.59901 
   16600    295.85385     -853.229    279371.44    -75864.98       7535.7    -83400.68    944.17612 
   16650    292.79227   -1116.0011    279126.01   -75909.819    7457.7183   -83367.538    947.04538 
   16700    293.10496   -870.88107    279123.04   -75878.331    7465.6829   -83344.014    949.16989 
   16750    293.24617   -850.07222    279520.99   -75835.111    7469.2796   -83304.391    953.09696 
   16800    295.70959   -1017.8152    280068.14   -75794.136    7532.0254   -83326.161    957.78144 
   16850    296.18067   -1368.8316    280338.28   -75768.847    7544.0244   -83312.871    960.38863 
   16900    295.12009   -1059.3146    279831.41   -75793.377    7517.0102   -83310.387    959.92051 
   16950    291.95435   -986.05367    279205.97   -75789.774    7436.3757    -83226.15    959.68955 
   17000    301.44678   -959.09476    279078.18    -75813.42    7678.1575   -83491.577     960.7111 
   17050    297.33046   -1051.4405    279444.97   -75781.863    7573.3108   -83355.173    963.58837 
   17100    299.96651   -1031.4954     279812.1   -75763.575    7640.4534   -83404.028    967.58601 
   17150     296.2861   -1088.8129    279946.74    -75782.44    7546.7096    -83329.15    970.63426 
   17200    297.85342    -1050.021    279731.17   -75805.962    7586.6309   -83392.593    971.56214 
   17250    293.49315   -1343.5229     279749.6   -75809.139    7475.5704    -83284.71    971.30049 
   17300    293.79261   -972.61068    279684.47   -75834.912    7483.1981    -83318.11     973.6245 
   17350    294.33088    -1113.573       279591   -75862.676    7496.9082   -83359.584    975.14885 
   17400    294.60722   -968.48116    279487.33   -75874.852    7503.9471   -83378.799    978.16087 
   17450     293.7284   -953.73524    279451.15   -75864.011    7481.5624   -83345.574     979.8092 
   17500    295.97842   -922.04414    279629.95   -75926.323    7538.8728   -83465.195    981.43475 
   17550    295.07411   -1183.4729    279828.53   -75924.046    7515.8391   -83439.885    982.97212 
   17600    292.92022    -654.2115    279673.39   -75927.005    7460.9772   -83387.983    984.44016 
   17650    292.53826   -756.93413    279394.33    -75905.08    7451.2484   -83356.329    985.07034 
   17700    297.45495   -1103.2662    279112.71   -75947.099    7576.4816   -83523.581    985.65546 
   17750     299.2058   -895.21297    279001.64    -75969.63    7621.0775   -83590.707    988.07345 
   17800    295.92192   -897.95262    279144.99   -75980.705    7537.4337   -83518.139    990.34082 
   17850    290.68042    -1003.461    279461.69   -76006.667    7403.9274   -83410.594      993.693 
   17900    294.79985   -1380.6973    279756.96   -75954.672    7508.8534   -83463.525    997.02247 
   17950    294.27813   -986.80326     279548.4   -75993.834    7495.5647   -83489.399    999.13667 
   18000    292.40998   -920.30974    279247.71   -75989.626     7447.981   -83437.607    1001.1016 
   18050    291.34862   -897.22723    279239.15   -76033.464    7420.9471   -83454.411    1004.7137 
   18100    291.80007    -1133.269    279356.41   -76032.547     7432.446   -83464.993    1007.5342 
   18150     293.9639    -970.6168     279425.5   -76042.129    7487.5609   -83529.689    1010.3128 
   18200    289.25387   -1110.8673    279347.74   -76033.582    7367.5917   -83401.174    1012.3277 
   18250    287.42158   -802.01644     278904.5   -76075.597    7320.9215   -83396.518    1014.6339 
   18300    294.66509   -1018.3151    278953.12   -76049.081    7505.4209   -83554.502    1017.5531 
   18350    294.77583   -965.32054    279278.17   -76017.723    7508.2416   -83525.965    1020.6511 
   18400    290.76363   -1172.6706    279844.79   -76038.137    7406.0467   -83444.184    1025.9673 
   18450    291.29148   -1328.5924     279755.5   -76019.284    7419.4917   -83438.776    1029.6019 
   18500    288.27428   -988.57138    279131.39   -75988.615    7342.6405   -83331.255     1031.443 
   18550    291.85013    -802.1497    278756.19   -75958.819    7433.7211   -83392.541    1032.4839 
   18600    298.58951    -750.8954    279112.01   -75968.328    7605.3799   -83573.708    1035.5201 
   18650    294.35118    -1067.745    279653.26   -75935.438    7497.4253   -83432.863    1039.9161 
   18700    298.69214   -1189.7715    279980.57   -75867.278    7607.9939   -83475.272    1043.9221 
   18750    298.88994   -903.03471    279789.62    -75864.59    7613.0322   -83477.623     1046.195 
   18800    298.36599   -733.71774    279438.37   -75801.184    7599.6867    -83400.87     1049.309 
   18850    293.08478   -1192.7108    279490.48   -75805.549    7465.1689   -83270.718    1053.1131 
   18900    298.77829   -985.42223    279520.95   -75862.029    7610.1885   -83472.217    1054.7855 
   18950     297.7424   -1122.1239    279282.18   -75920.568    7583.8033   -83504.371    1058.3118 
   19000    296.90638   -875.30885    279195.57   -75895.739    7562.5088   -83458.247     1061.331 
   19050    299.64603   -1378.0549    279651.92   -75922.851    7632.2905   -83555.141    1064.1235 
   19100    295.90462   -814.54247     279761.9   -75898.269    7536.9931   -83435.262    1065.6899 
   19150    294.92007   -756.61996    279431.21   -75884.777    7511.9157   -83396.692    1066.2178 
   19200    295.74405   -897.54334    279108.68   -75875.929    7532.9032   -83408.833    1067.3648 
   19250    295.60707    -926.1672       279194    -75852.17    7529.4142   -83381.584     1070.995 
   19300    299.06786   -872.22741    279548.46   -75846.297    7617.5641   -83463.861    1075.7717 
   19350    296.00061   -1011.2815     279940.8   -75831.749    7539.4379   -83371.187    1080.6282 
   19400    293.54605   -1060.7527    280146.94   -75808.249    7476.9178   -83285.167    1084.2801 
   19450    300.05563   -917.20595    279726.09   -75785.112    7642.7235   -83427.836    1086.0454 
   19500     299.8508   -733.01487    279196.77   -75788.971    7637.5063   -83426.477    1088.7561 
   19550    296.46799     -1076.22     279059.7   -75835.882    7551.3427   -83387.225    1091.6603 
   19600    297.88777   -913.93508    279250.97   -75849.193     7587.506   -83436.699    1094.4971 
   19650    292.88693   -959.65252    279606.72   -75827.814    7460.1294   -83287.943    1098.9601 
   19700    293.81895   -1052.4496    279974.03    -75826.04     7483.869   -83309.909    1101.7013 
   19750    299.53694   -989.90905    279799.32   -75808.271     7629.512   -83437.783     1104.728 
   19800    299.42264   -896.41183    279358.68   -75809.098    7626.6006   -83435.698    1104.9428 
   19850    298.26828   -601.55533    278826.14   -75826.912     7597.198    -83424.11    1105.3901 
   19900    296.82009   -481.92714     279005.7   -75810.248    7560.3109   -83370.559    1108.6868 
   19950     292.9528   -767.28025    279972.76   -75803.401    7461.8073   -83265.208    1114.7274 
   20000    294.52355   -1253.5149     280948.6   -75797.006    7501.8159   -83298.822    1120.8567 
   20050    292.01748   -1250.0263    280829.39    -75811.03    7437.9837   -83249.013     1123.594 
   20100    301.28634   -899.38603    279554.88   -75853.734    7674.0711   -83527.805     1122.336 
   20150    299.17586   -764.51629    278576.76   -75920.539    7620.3148   -83540.853    1122.0298 
   20200     298.5591   -694.86298    278501.65   -75907.707    7604.6053   -83512.312    1123.6345 
   20250    297.95779   -1113.6536    279118.67   -75899.191    7589.2894    -83488.48    1127.0191 
   20300    294.40132   -1132.5968    279790.19       -75890    7498.7026   -83388.703    1132.2178 
   20350    294.11925   -1411.2551    280187.28   -75845.699     7491.518   -83337.217    1136.5804 
   20400    293.17761   -1282.7319    279817.23   -75843.263    7467.5334   -83310.796    1138.7423 
   20450    297.31503    -982.4079    279022.92   -75875.043    7572.9175   -83447.961    1140.1031 
   20500    297.63939   -857.93745    278517.67   -75909.841    7581.1793   -83491.021    1141.5452 
   20550    293.80987   -927.55101    278826.98   -75875.838    7483.6376   -83359.476    1145.7727 
   20600    297.34917   -792.11495     279536.9    -75859.14    7573.7871   -83432.928    1151.2274 
   20650    297.67889   -1404.6138    280167.71   -75875.887    7582.1855   -83458.072     1155.253 
   20700    292.99671   -1162.7033     280014.5   -75895.261    7462.9257   -83358.187    1156.9311 
   20750    300.93944   -983.70633     279310.8   -75862.868     7665.235   -83528.103    1157.7182 
   20800    293.82915   -927.90095    279140.78   -75892.386    7484.1288   -83376.515    1160.2831 
   20850    296.85519   -871.68777    279496.57   -75850.808     7561.205   -83412.013    1164.3832 
   20900     295.7203    -1046.398    279762.55   -75853.585    7532.2982   -83385.884    1167.8174 
   20950    292.52829    -951.3657    279566.03   -75879.992    7450.9946   -83330.987    1169.4405 
   21000    296.94078   -963.30124    279330.63    -75857.25    7563.3852   -83420.636    1169.7561 
   21050    294.80016   -951.17181    279048.15   -75884.994    7508.8613   -83393.856     1170.278 
   21100     296.3071   -996.37716    279072.97   -75883.971    7547.2447   -83431.216    1172.6499 
   21150    293.66465    -1042.274    279467.33   -75872.164    7479.9387   -83352.103    1177.0275 
   21200    293.82619   -903.63643    279843.09    -75836.43    7484.0533   -83320.484    1179.9882 
   21250    290.85379   -1331.7774    280129.25   -75833.187    7408.3431    -83241.53    1184.7908 
   21300    294.79471   -825.41354    279699.52   -75828.203    7508.7224   -83336.925    1186.5977 
   21350    297.12597   -1144.5824     279454.5   -75835.325    7568.1021   -83403.428    1187.2274 
   21400    295.57002   -749.55255    279428.76   -75829.819    7528.4704   -83358.289    1188.6101 
   21450    297.28117   -950.37969    279568.56   -75781.982    7572.0551   -83354.037    1191.2266 
   21500    303.48709    -1239.454    279637.07   -75790.448    7730.1263   -83520.575    1195.7761 
   21550    292.69362   -1041.7325     279747.9   -75760.785    7455.2056   -83215.991    1199.8818 
   21600    297.97959   -1192.8713    279825.59   -75748.227    7589.8447   -83338.072    1202.4153 
   21650    302.69242   -1063.2942     279636.8   -75718.227    7709.8852   -83428.112    1203.8924 
   21700    300.60156   -998.25109    279517.43   -75688.692    7656.6289   -83345.321    1206.0241 
   21750    302.74407   -1139.3725    279441.76   -75729.955    7711.2008   -83441.156    1209.7981 
   21800    301.98744   -619.08696    279443.85   -75699.842    7691.9286   -83391.771     1212.491 
   21850    298.75626   -1159.2008    280111.27   -75670.569    7609.6273   -83280.197    1217.3432 
   21900    297.49613   -1429.0506    280383.92    -75681.27    7577.5304     -83258.8    1219.4447 
   21950    300.54831   -1198.1524    280074.35   -75694.709    7655.2726   -83349.982    1219.9293 
   22000     299.5076   -884.63775    279710.24   -75691.623    7628.7646   -83320.387     1221.329 
   22050     300.1993   -1164.8957    279644.66   -75662.699     7646.383   -83309.082    1223.1088 
   22100    304.82023   -1110.0811    279650.06   -75652.173    7764.0828   -83416.255    1225.5349 
   22150    301.52763   -972.28664    279811.28   -75676.077     7680.217   -83356.294    1227.6857 
   22200    301.64207   -1162.2279    280152.85   -75618.655    7683.1318   -83301.787    1232.2627 
   22250    299.53454   -988.13385    280051.77   -75612.847    7629.4509   -83242.298    1234.4919 
   22300    304.16224   -1210.0333    279907.49   -75549.039     7747.323   -83296.362    1234.9867 
   22350    296.06798   -947.80087    279782.53   -75566.186     7541.154    -83107.34    1238.6738 
   22400    299.40642   -808.12621    279754.05   -75602.461    7626.1876   -83228.649    1240.2049 
   22450    300.96268   -908.12736    279664.54   -75605.051     7665.827   -83270.878    1241.4355 
   22500    302.57908   -786.63154    279554.83   -75581.084    7706.9983   -83288.082    1244.5797 
   22550    301.71926    -976.0163    279739.56   -75585.449    7685.0978   -83270.547    1247.1737 
   22600    297.80299   -1206.1582    280032.01   -75636.198    7585.3464   -83221.544    1251.5414 
   22650    302.61995   -1066.0957    280193.66   -75608.574    7708.0394   -83316.614    1255.8103 
   22700     299.2414    -1091.179    280044.74   -75631.508    7621.9842   -83253.492    1258.7463 
   22750    303.93228   -1060.8048    279683.11   -75630.068    7741.4657   -83371.533    1260.7442 
   22800    301.95408   -982.01768    279547.17    -75650.55    7691.0789   -83341.629    1263.0465 
   22850    297.81607   -696.35127    279501.35   -75660.278    7585.6796   -83245.957    1266.0128 
   22900    299.75033   -1021.5024    279721.61   -75689.217    7634.9472   -83324.164    1270.4505 
   22950    298.98158   -1214.5375       279847   -75703.048    7615.3662   -83318.414     1272.732 
   23000    294.31485   -623.06189     279908.9   -75731.108    7496.5001   -83227.609    1276.4883 
   23050    299.87991   -1185.8319    280085.61    -75682.11    7638.2478   -83320.358    1279.3225 
   23100    301.47409   -1002.5019     279827.1   -75673.863    7678.8531   -83352.716    1281.2489 
   23150    301.32653   -1147.9111    279438.83   -75683.936    7675.0946    -83359.03    1282.7843 
   23200    294.82799   -943.12988    279278.24   -75687.518    7509.5702   -83197.088    1283.9123 
   23250    299.71033   -857.13864    279557.46   -75708.956    7633.9284   -83342.885    1288.3529 
   23300    301.38166   -931.32698    280026.34   -75715.594    7676.4988   -83392.093    1294.6992 
   23350    301.31702   -1309.9008    280388.04   -75715.693    7674.8524   -83390.545    1297.9336 
   23400     301.3266   -803.37488     279990.5   -75742.575    7675.0965   -83417.671    1300.5446 
   23450    300.84613   -1127.2903    279464.85   -75755.727    7662.8584   -83418.585    1301.6705 
   23500    297.25347   -1085.8444    279281.64    -75799.58    7571.3497    -83370.93    1304.5145 
   23550    296.12936   -1137.4106    279386.56   -75797.449    7542.7173   -83340.167    1305.8115 
   23600    301.38874   -936.88462    279243.59   -75769.135    7676.6791   -83445.814    1305.7866 
   23650    300.00655   -962.87924    279213.72   -75740.094    7641.4734   -83381.567    1306.9023 
   23700    300.79658   -820.83137    279537.71   -75680.024    7661.5963    -83341.62     1310.956 
   23750    297.22438   -1081.5453    280099.02   -75674.727    7570.6087   -83245.336    1316.0978 
   23800    298.20441    -1177.662    280406.03   -75634.147    7595.5711   -83229.718     1318.843 
   23850     299.1617    -1069.323    280000.99   -75661.634    7619.9543   -83281.588     1319.309 
   23900    303.73508   -859.45714    279250.63   -75687.508    7736.4428   -83423.951    1320.0492 
   23950    294.72295   -760.72259    278975.96    -75742.86    7506.8947   -83249.755    1322.4341 
   24000    298.24592   -1045.0428    279234.91   -75753.797    7596.6284   -83350.425    1325.9598 
   24050    304.12515   -1027.8828    279715.49   -75713.304    7746.3785   -83459.683    1329.1967 
   24100    294.04601   -1159.3594    280234.01   -75661.703    7489.6525   -83151.355    1333.5429 
   24150    301.59523   -1131.1896    280287.12   -75680.412    7681.9386    -83362.35    1337.4347 
   24200    299.46671   -1144.8837    280011.41   -75708.751    7627.7231   -83336.474    1338.9061 
   24250    298.05218   -849.50777    279506.39    -75741.45    7591.6936   -83333.143     1338.453 
   24300    302.55986   -854.60859    279235.34   -75724.922    7706.5088   -83431.431    1337.2071 
   24350    295.75819   -1038.2348    279465.02   -75734.128    7533.2632   -83267.391    1340.7083 
   24400    296.70511   -806.59768    279804.25    -75693.88    7557.3824   -83251.263    1344.2399 
   24450     301.3004   -983.41152    280188.63   -75756.078     7674.429   -83430.507    1348.9477 
   24500    294.65557   -1054.8657    280331.92   -75758.317    7505.1785   -83263.495    1353.6762 
   24550    300.76562   -1057.4583    280015.66   -75735.652    7660.8077   -83396.459    1354.8156 
   24600    297.88417   -1138.0988       279512    -75725.27    7587.4143   -83312.684    1355.7961 
   24650    304.39457   -827.10034    279212.31   -75727.628    7753.2407   -83480.869    1358.9527 
   24700    300.15897   -879.05446    279209.47   -75679.601    7645.3557   -83324.957    1362.5414 
   24750     300.1633   -774.41696    279403.93   -75668.313    7645.4659   -83313.779    1365.9961 
   24800    306.20071   -1108.6163    279909.49   -75594.272    7799.2451   -83393.517    1368.8211 
   24850    302.40752   -1079.2646    280184.88   -75566.401    7702.6285   -83269.029    1374.4291 
   24900    298.60904   -873.42773    280020.32   -75542.321    7605.8774   -83148.199    1376.4771 
   24950    298.94814   -819.57709    279694.87   -75591.773    7614.5145   -83206.287    1379.1976 
   25000    301.69229   -870.18301     279423.2   -75633.602    7684.4109   -83318.013     1380.853 
   25050    297.75115   -1131.1904    279575.23   -75663.042    7584.0261   -83247.068    1382.9847 
   25100    302.32091   -1008.5698    279946.98   -75613.961    7700.4225   -83314.384    1385.0522 
   25150    297.50718   -1261.1673    280047.14   -75644.427    7577.8119   -83222.239    1386.5553 
   25200    299.09235   -889.10202    279644.34   -75682.223    7618.1879   -83300.411    1387.8199 
   25250    302.92054   -1083.0264     279334.2   -75737.956    7715.6958   -83453.651    1388.0953 
   25300    294.11686   -984.56165    279154.73    -75786.18    7491.4569   -83277.636    1389.5998 
   25350    300.17282   -1167.4208    279213.21   -75840.077    7645.7085   -83485.786    1394.4764 
   25400    294.36412   -1047.8741    279256.25   -75858.414     7497.755   -83356.169    1397.7992 
   25450    298.10553   -1073.2798    279446.75   -75796.848    7593.0526   -83389.901    1402.9014 
   25500    295.31583   -969.80191    279449.67    -75795.66    7521.9959   -83317.655    1405.2781 
   25550    300.58885   -992.71818    279393.09   -75834.308    7656.3053   -83490.614      1407.09 
   25600    291.83459   -942.83253    279340.75   -75849.792    7433.3251   -83283.117       1408.1 
   25650    293.96239   -1085.6159    279209.95   -75861.485    7487.5225   -83349.007    1410.0145 
   25700     295.4463   -853.84183    279103.17    -75836.78    7525.3193     -83362.1    1408.8809 
   25750    299.06694   -910.21786    279234.14   -75827.549    7617.5407   -83445.089    1412.2649 
   25800    299.46774   -1187.7675    279552.24   -75824.649    7627.7495   -83452.398    1415.7821 
   25850    295.01838   -1055.6639    279850.83   -75809.878    7514.4196   -83324.298    1419.3566 
   25900    298.76884   -1053.0295    279746.34   -75763.913    7609.9478   -83373.861    1419.5096 
   25950    297.61992   -1048.2315    279479.19   -75795.103    7580.6836   -83375.787    1419.8734 
   26000    300.47028   -906.27648    279267.69   -75782.989    7653.2851   -83436.274     1421.023 
   26050    295.77961   -1198.8335    279476.17   -75859.302    7533.8089   -83393.111    1424.9093 
   26100    295.88835   -952.61133    279870.66   -75884.659    7536.5786   -83421.238    1430.5055 
   26150    290.92962   -1007.3414    279937.99   -75880.232    7410.2747   -83290.507    1432.4733 
   26200    295.18981   -952.04441    279578.75   -75878.802    7518.7861   -83397.588    1433.1541 
   26250    297.58166   -1123.6381    279075.59   -75876.622    7579.7091   -83456.331     1433.455 
   26300    293.46868   -904.45388    278852.85   -75905.346    7474.9472   -83380.293    1435.2662 
   26350    296.20044   -1281.3244    279108.08   -75921.236     7544.528   -83465.764    1438.5924 
   26400    294.97525   -1018.5941    279471.91   -75906.311    7513.3209   -83419.632    1440.7335 
   26450    297.16384   -948.95691    279977.25   -75852.334    7569.0667   -83421.401    1444.5349 
   26500    295.94782   -1181.2839    280275.51   -75849.086    7538.0935    -83387.18    1447.6251 
   26550    292.93349   -1329.1123    279917.19   -75840.042    7461.3152   -83301.357    1447.9117 
   26600    301.36021   -833.25529    279027.96   -75875.238    7675.9526   -83551.191    1447.1843 
   26650    298.10895   -827.70453    278746.83   -75866.946    7593.1395   -83460.085    1451.6259 
   26700    298.32133   -1103.1131    279143.05   -75824.832    7598.5491   -83423.381    1456.9087 
   26750    299.33961   -1006.9539    279569.83   -75826.988    7624.4856   -83451.473    1461.4488 
   26800    292.47626   -1010.1177    279751.46   -75868.908    7449.6693   -83318.577    1464.7677 
   26850     296.8581   -1114.9644    279680.43   -75868.647    7561.2793   -83429.927    1467.1418 
   26900    298.33563     -1145.55     279230.1   -75826.027    7598.9135   -83424.941    1468.1085 
   26950    294.14752   -895.10805    278989.25   -75860.281     7492.238   -83352.519    1469.5655 
   27000    300.61446   -1108.9878    279169.14   -75870.048    7656.9575   -83527.005    1472.0356 
   27050     294.9152   -1160.8755    279474.72   -75881.942    7511.7914   -83393.733    1476.4816 
   27100    296.18639   -753.69254    279396.63    -75840.54    7544.1701    -83384.71    1479.5799 
   27150    299.44384   -962.91925    279263.07   -75876.396    7627.1407   -83503.537    1482.6241 
   27200    294.78245   -952.27726    279335.16   -75858.494    7508.4102   -83366.904    1484.9818 
   27250    296.19019   -1205.3029    279689.84    -75838.23    7544.2667   -83382.497    1489.7157 
   27300    299.95717   -1276.1073    279938.66   -75835.279    7640.2157   -83475.495    1493.4646 
   27350    299.08368   -847.64217    279785.99   -75810.553    7617.9671    -83428.52    1495.0461 
   27400    298.71426   -885.42591    279493.26    -75767.93    7608.5576   -83376.487     1495.527 
   27450     299.2401   -861.04942    279415.96   -75800.998    7621.9512   -83422.949    1498.0212 
   27500    303.95116    -1005.804     279314.1   -75797.934    7741.9467   -83539.881    1499.2177 
   27550    301.02946   -824.49847    279221.46   -75799.688    7667.5278   -83467.216    1500.3408 
   27600    296.56019    -946.3748    279597.59   -75799.354    7553.6912   -83353.045    1506.1136 
   27650    295.00084   -1170.5309    279915.64   -75813.256    7513.9729   -83327.228    1511.1495 
   27700    297.95791   -1109.0694    279932.43     -75827.1    7589.2924   -83416.393    1514.6407 
   27750    299.87294   -1064.4914    279577.29   -75801.784    7638.0703   -83439.855    1515.2358 
   27800    297.50803   -900.86911    279420.77   -75815.563    7577.8334   -83393.396    1516.8722 
   27850    295.69741   -898.82197     279395.6   -75774.471    7531.7151   -83306.187    1518.9228 
   27900    301.58895   -932.08579    279534.39   -75800.971    7681.7788    -83482.75    1522.7356 
   27950    293.62836   -855.98616    279601.35   -75807.768    7479.0143   -83286.782    1525.7982 
   28000    295.88396   -683.41445    279549.23    -75817.28    7536.4669   -83353.747    1529.2749 
   28050    292.86276    -811.2615    279501.73   -75796.022    7459.5136   -83255.536    1530.8844 
   28100    292.67766   -575.40795    279404.91   -75817.572    7454.7992   -83272.371    1532.6231 
   28150    297.18997   -1375.3566    279667.61   -75795.634    7569.7321   -83365.366    1535.7272 
   28200    294.37131   -1137.9235    279773.96   -75802.739     7497.938   -83300.677    1538.7235 
   28250    298.71405   -1210.2426    279692.73    -75866.51    7608.5521   -83475.062    1540.3581 
   28300    298.42571   -1154.3177    279372.67    -75854.58    7601.2077   -83455.787     1540.995 
   28350       299.09   -1055.7598    279016.16   -75859.226    7618.1281   -83477.354    1541.3261 
   28400    294.96122    -849.0564    279247.53   -75812.183    7512.9637   -83325.147    1544.5248 
   28450    294.35953   -1122.7963    279784.72   -75800.695    7497.6381   -83298.333    1550.0231 
   28500    295.28836   -1159.6714    280125.72   -75798.648    7521.2963   -83319.944     1555.372 
   28550    293.76955   -1120.4207    279864.96   -75825.275    7482.6107   -83307.885     1556.958 
   28600    294.21412   -856.26572    279296.01   -75817.131    7493.9344   -83311.065    1555.8153 
   28650    298.63082   -880.73493    279199.42   -75842.798    7606.4322   -83449.231    1556.5486 
   28700    295.36213   -810.87259    279601.91   -75847.251    7523.1753   -83370.427    1562.8949 
   28750    290.74378   -1090.6286    279933.79   -75840.915    7405.5412   -83246.457    1567.3592 
   28800    296.50982   -817.16886    279527.85   -75857.606    7552.4082   -83410.014    1568.0402 
   28850    296.24465   -917.81747    279243.72   -75838.738     7545.654   -83384.392    1569.3589 
   28900    291.81234   -1062.5541    279458.24    -75881.47    7432.7585   -83314.229     1573.489 
   28950    294.18263   -1379.6897    279968.94   -75890.128    7493.1322    -83383.26    1579.7618 
   29000    292.49904   -1516.9727    279888.43   -75908.017    7450.2496   -83358.267     1580.073 
   29050    292.16217   -1160.4877    279346.28   -75901.064    7441.6691   -83342.733    1579.9876 
   29100     297.6081   -778.86371    279080.22   -75938.779    7580.3824   -83519.161    1582.1273 
   29150    294.44804   -857.86469    279361.52   -75924.429    7499.8925   -83424.322    1585.9457 
   29200    295.96849   -976.40596    280075.28    -75921.62    7538.6198    -83460.24    1590.3392 
   29250    291.38566    -1255.501    280226.16   -75922.308    7421.8905   -83344.199    1593.8525 
   29300    293.66286   -1159.6077    279657.28    -75950.16    7479.8931   -83430.053    1595.3196 
   29350    295.27285   -874.48705    278815.58   -75949.931    7520.9012   -83470.832     1592.248 
   29400    297.47361   -720.40423    278589.81   -75933.328    7576.9569   -83510.285    1593.7313 
   29450    295.70243   -819.19068    279345.26   -75895.385     7531.843   -83427.228    1599.2812 
   29500     296.2837   -950.49593    280063.19   -75866.538    7546.6486   -83413.187    1605.2842 
   29550     299.1662   -1115.3699    280178.42    -75813.48    7620.0689   -83433.549    1607.8394 
   29600    292.49772   -1070.6739    279746.36   -75817.353    7450.2158   -83267.569    1608.4582 
   29650    298.57642   -529.55516     279279.9   -75796.554    7605.0466     -83401.6    1609.3586 
   29700    295.13333   -659.30794    279260.12   -75803.547    7517.3475   -83320.894    1611.3013 
   29750    297.72719   -1200.4739    279377.24   -75760.719    7583.4157   -83344.134    1613.0123 
   29800    299.14011   -993.66953       279504    -75730.27    7619.4043   -83349.674     1614.306 
   29850     300.1706    -1184.556    279609.81   -75691.333     7645.652   -83336.985     1617.295 
   29900     295.5102   -702.52168    279511.47   -75696.901    7526.9467   -83223.848    1620.5165 
   29950    294.58539   -987.35994       279391   -75704.535    7503.3908   -83207.926    1622.3531 
   30000    298.91158   -1117.1805    279437.55   -75677.783    7613.5833   -83291.367    1626.5188 
   30050    297.43288    -794.5513    279508.03   -75667.685    7575.9195   -83243.605    1629.1586 
   30100    301.30933   -741.01362    279747.12   -75681.846    7674.6564   -83356.503    1630.7036 
   30150    301.27795   -1199.4312    280191.67   -75667.208    7673.8572   -83341.066    1635.5682 
   30200    295.19753   -1120.0234    280290.75   -75695.287    7518.9829    -83214.27    1639.5701 
   30250    298.74153   -1152.1238    279883.61   -75722.998     7609.252    -83332.25    1641.0843 
   30300    297.17642   -917.77091    279273.77   -75778.363    7569.3872   -83347.751    1643.3828 
   30350    302.48694    -665.4166    279148.82   -75813.094    7704.6515   -83517.746    1646.7244 
   30400    297.25758   -1218.0715    279745.87   -75835.826    7571.4544   -83407.281    1652.8287 
   30450    295.10743   -1136.7641    280338.21   -75856.732    7516.6878    -83373.42    1660.5509 
   30500    292.29576   -1374.5524    280477.92   -75840.953    7445.0716   -83286.024     1664.404 
   30550    297.16245   -767.58587    279748.17   -75786.641    7569.0313   -83355.672    1665.4055 
   30600     300.4336   -566.31309    278697.67   -75778.809    7652.3508   -83431.159    1664.6732 
   30650    295.29458   -820.73688    278724.25   -75730.536    7521.4546   -83251.991    1665.6209 
   30700    299.50941    -821.5686    279576.21   -75728.754    7628.8107   -83357.565    1671.7513 
   30750    302.53718   -1195.4792    280557.08    -75703.68    7705.9312   -83409.611    1679.4059 
   30800    298.13089   -1017.3018    280718.62   -75700.087    7593.6984   -83293.785    1682.3875 
   30850    299.81693    -711.9828    279924.11    -75674.68    7636.6436   -83311.324    1682.3456 
   30900    296.25217   -584.40235    279072.69   -75659.772    7545.8456   -83205.617    1682.3145 
   30950    301.17283   -737.81075    278921.49   -75701.209    7671.1797   -83372.388    1683.3048 
   31000    298.13239   -1114.7474    279252.56   -75701.531    7593.7366   -83295.268    1686.5259 
   31050    298.76539   -1057.1816    279701.34   -75723.313    7609.8598   -83333.173    1690.8304 
   31100     295.4466   -1137.1162     280023.4   -75685.459    7525.3268   -83210.786    1695.6721 
   31150    300.42631   -1086.2224    279974.08   -75661.108     7652.165   -83313.273    1697.9171 
   31200    302.10601   -1132.8514    279833.05   -75701.182    7694.9488   -83396.131    1700.3873 
   31250    297.94332   -938.90109    279513.22   -75720.041    7588.9208   -83308.961    1701.3614 
   31300    300.26643   -945.86061       279248    -75709.14    7648.0927   -83357.232    1703.6491 
   31350    298.08466   -1058.7728    279482.67    -75718.55     7592.521   -83311.071    1706.5975 
   31400    299.52194   -1209.2058    279908.71   -75719.539    7629.1298   -83348.669    1709.4826 
   31450    293.77117   -1115.7673    280079.97   -75717.739     7482.652   -83200.391     1713.713 
   31500    293.64818   -1015.6225    279620.52   -75773.602    7479.5193   -83253.122      1714.24 
   31550    294.27891   -692.24538    279229.83   -75845.972    7495.5846   -83341.557    1715.0955 
   31600    298.95288   -985.53482     279301.9    -75790.54    7614.6353   -83405.175    1717.2064 
   31650    299.36102   -1065.3304    279520.48   -75764.178    7625.0311   -83389.209    1719.7602 
   31700    298.59263     -1035.21       279896   -75720.217    7605.4595   -83325.676    1724.5684 
   31750    304.21644   -1015.7185    279979.63   -75688.685    7748.7036   -83437.389    1727.5146 
   31800     297.8257   -917.72369    279852.43   -75747.567    7585.9249   -83333.492    1728.4938 
   31850    296.35073   -947.45606    279871.47   -75726.477    7548.3559   -83274.833    1727.8668 
   31900    301.07336   -1185.7417    279881.91   -75709.482    7668.6461   -83378.128    1728.4992 
   31950    300.21341   -1214.4436    279445.43   -75701.061    7646.7422   -83347.804    1728.2562 
   32000    303.42524   -833.71194    279030.98   -75694.988    7728.5509   -83423.539    1728.2629 
   32050    302.90227   -989.77751    279175.92    -75724.48    7715.2304    -83439.71    1729.4439 
   32100    299.98099   -691.10408    279413.72   -75743.956    7640.8224   -83384.778    1731.8545 
   32150    292.98117    -1064.175     279756.2   -75772.842    7462.5299   -83235.372     1737.698 
   32200    298.11834   -793.55091    279997.57   -75781.089    7593.3788   -83374.468    1740.4922 
   32250    297.90447   -1078.6692    279901.94   -75710.482    7587.9313   -83298.414    1743.9605 
   32300    299.96301   -981.85042    279563.47   -75718.108    7640.3644   -83358.472    1741.8119 
   32350    293.85919    -1265.632    279556.96   -75763.462    7484.8939   -83248.356    1741.0381 
   32400    301.26295   -1021.4672    279648.79   -75809.076    7673.4751   -83482.551     1744.196 
   32450    295.05351   -919.89592    279583.41    -75755.11    7515.3143   -83270.424    1745.0194 
   32500    298.40981    -868.8933    279382.27   -75734.932    7600.8027   -83335.735    1747.1791 
   32550    300.90801   -929.80349    279294.16   -75728.436    7664.4345   -83392.871    1748.7162 
   32600    297.09361   -850.52793    279555.84   -75748.718    7567.2779   -83315.996    1753.8078 
   32650    300.06915   -1039.9225    279966.87    -75729.32     7643.068   -83372.388     1759.329 
   32700    294.43009   -967.97379    280199.12   -75729.794    7499.4354   -83229.229    1764.2938 
   32750    302.61485   -1021.5985    279995.36   -75754.427    7707.9093   -83462.336    1765.7167 
   32800    297.90449   -1070.1996    279733.23   -75723.471    7587.9318   -83311.403     1766.743 
   32850    299.09322   -1158.6752    279299.09   -75724.505    7618.2099   -83342.715     1768.212 
   32900    300.22995    -990.8039    279313.85   -75703.835    7647.1635   -83350.998    1771.6755 
   32950    297.11329   -978.05197    279704.61   -75719.954    7567.7791   -83287.733    1775.5431 
   33000    302.26531   -1146.8289     279955.4   -75727.373    7699.0063    -83426.38     1780.206 
   33050    298.64053   -989.74815    279788.02   -75714.772    7606.6794   -83321.452    1783.6425 
   33100    292.64958   -1049.3966    279987.81   -75714.366    7454.0838    -83168.45    1785.7225 
   33150    299.98028   -1175.2707    279897.96   -75698.377    7640.8042   -83339.181    1784.7687 
   33200     302.1663   -1109.0362    279712.58   -75732.733    7696.4844   -83429.217    1786.7434 
   33250    299.60494    -866.7232    279539.06   -75684.451    7631.2439   -83315.695    1787.2788 
   33300    297.05137   -958.49513    279636.14   -75658.644    7566.2021   -83224.846    1788.3502 
   33350    296.15629   -1090.9982    279681.33   -75654.256    7543.4035    -83197.66    1790.9128 
   33400    303.99868   -1171.4425    279328.78   -75666.057     7743.157   -83409.214    1792.3816 
   33450    298.08582   -920.91427    279175.47   -75633.416    7592.5504   -83225.966    1796.1606 
   33500    303.06957   -793.41953    279477.28   -75601.394    7719.4917   -83320.885    1800.8785 
   33550    305.17216   -1024.6583    280103.96   -75535.235    7773.0467   -83308.281    1806.5748 
   33600    303.29646    -1314.599    280597.66   -75534.785    7725.2709   -83260.056    1811.4775 
   33650     298.2738    -942.1677    280588.83    -75525.26    7597.3384   -83122.598    1814.8913 
   33700    303.43025   -1203.6192    280259.15   -75548.051    7728.6785   -83276.729    1816.9687 
   33750    302.33295   -777.47808    279630.22   -75604.267    7700.7292   -83304.996    1818.2819 
   33800    301.82258   -1011.4431    279367.16   -75641.086    7687.7295   -83328.815    1818.6144 
   33850    296.65574   -1062.5111    279456.67   -75685.322     7556.125   -83241.447     1821.274 
   33900    296.86272   -663.91925    279733.58   -75684.072    7561.3967   -83245.469    1826.7941 
   33950    299.85264   -1175.3869    280088.87   -75674.056    7637.5531   -83311.609    1831.3257 
   34000    302.25774   -888.25016    279901.56   -75675.281    7698.8134   -83374.094    1833.6938 
   34050    301.98731   -904.55509    279453.74   -75731.341    7691.9254   -83423.267    1832.9388 
   34100    296.89024   -592.92955     279241.6   -75742.636    7562.0979   -83304.734    1831.6558 
   34150    299.70138   -831.50272    279570.38   -75765.068    7633.7004   -83398.768    1835.5632 
   34200    293.67971   -817.82171    280149.03   -75741.451    7480.3222   -83221.773    1839.8501 
   34250    296.89329   -1305.4334    280505.76   -75811.366    7562.1754   -83373.542    1843.3787 
   34300    296.61985   -1113.2178    279887.71   -75848.492    7555.2107   -83403.702       1840.7 
   34350    300.40206   -894.27486     279231.7   -75837.392    7651.5473   -83488.939    1841.6239 
   34400    298.70347   -853.75671    278813.94   -75887.859    7608.2826   -83496.141    1840.8337 
   34450    295.47786   -693.55332    278869.41   -75858.233     7526.123   -83384.356    1845.6818 
   34500    295.87024   -1163.1238    279473.65   -75891.261    7536.1174   -83427.379     1851.478 
   34550    299.88214   -1161.0321    279866.98   -75835.565    7638.3045    -83473.87    1854.9988 
   34600    297.28554   -960.47307    279925.78   -75812.108    7572.1665   -83384.275     1858.209 
   34650    297.19787    -1178.547    279937.72   -75809.453    7569.9334   -83379.386    1860.5519 
   34700     293.3826   -870.90321    279669.98    -75782.88    7472.7546   -83255.635    1861.0676 
   34750    293.83157   -1123.1725    279349.36   -75883.681    7484.1903   -83367.872     1860.346 
   34800    297.45049   -782.45433    279202.29   -75873.891    7576.3678   -83450.258    1860.0568 
   34850     290.9523   -973.27694    279590.45   -75896.087    7410.8523   -83306.939    1863.9679 
   34900    294.51187   -821.55921    279795.98   -75870.179    7501.5182   -83371.697    1867.1816 
   34950    294.00577   -1118.3036    279832.45   -75896.106    7488.6273   -83384.734    1867.3372 
   35000    295.80601   -1101.9875    279512.69   -75883.681    7534.4815   -83418.163    1865.4293 
   35050     291.8982   -974.94911    278947.84   -75922.012    7434.9453   -83356.957    1867.1039 
   35100    294.54399   -1027.0103    278774.78   -75920.819    7502.3365   -83423.155    1868.8295 
   35150    295.42653   -1000.9447    278945.97   -75907.819    7524.8157   -83432.635     1872.098 
   35200    295.48595   -1147.3375    279356.06   -75878.411     7526.329    -83404.74    1876.3964 
   35250    291.18419   -743.01494    279860.92   -75876.128    7416.7589   -83292.887    1881.9632 
   35300    297.08244   -1466.8066    280032.59   -75810.409    7566.9934   -83377.402    1886.4344 
   35350    298.56236   -1143.6241    279614.01   -75815.122    7604.6883    -83419.81    1887.4164 
   35400    297.35827   -703.01227    279243.31   -75789.691     7574.019    -83363.71    1887.5215 
   35450    296.23531   -963.43749    279353.49   -75819.752     7545.416   -83365.168    1891.3229 
   35500     295.6791   -711.17911    279512.01   -75822.738    7531.2489   -83353.986    1897.2466 
   35550    293.16062   -1089.2349    279830.38   -75820.381    7467.1005   -83287.482    1903.6981 
   35600    296.00657   -1058.2799    280055.38   -75763.313    7539.5897   -83302.903    1907.0895 
   35650      297.316    -1097.654    280021.86   -75765.313    7572.9422   -83338.255    1908.4612 
   35700    297.12727   -926.99295     279549.8    -75787.28    7568.1352   -83355.415    1908.5698 
   35750    299.70244   -872.10292    279345.71   -75763.738    7633.7274   -83397.465    1910.2906 
   35800    299.09208   -904.84833    279630.22   -75756.365    7618.1809   -83374.545    1912.4418 
   35850    295.78341   -1106.3772     279887.9   -75755.107    7533.9056   -83289.012     1915.379 
   35900    302.45563    -1281.651    279979.07   -75710.834     7703.854   -83414.688    1921.0823 
   35950    300.74533   -1272.3255    280046.19   -75740.254    7660.2908   -83400.545    1924.5805 
   36000    295.93763   -1012.3731    279935.41   -75733.007    7537.8339   -83270.841    1929.1643 
   36050    298.89243   -871.44277    280012.78   -75792.742    7613.0956   -83405.837    1933.9254 
   36100     298.2211   -1106.5491    279786.32   -75747.656    7595.9961   -83343.652    1936.5776 
   36150    300.68977   -710.27209     279317.8   -75771.843    7658.8757   -83430.718    1937.8941 
   36200    296.24562   -786.37297    279281.67   -75797.058    7545.6786   -83342.736     1943.029 
   36250    298.72666   -1070.8913    279387.54   -75819.735    7608.8734   -83428.608    1945.3685 
   36300    297.08682   -1281.9431    279512.56   -75828.386    7567.1049   -83395.491     1947.905 
   36350    300.04268   -1203.1229    279385.74   -75854.361    7642.3937   -83496.755    1947.8092 
   36400    297.09453   -744.52498    279115.71   -75848.686    7567.3013   -83415.987    1951.5375 
   36450    296.90466   -819.73941    279375.81   -75789.914    7562.4651   -83352.379    1954.3392 
   36500    295.75699   -1007.2907    279998.02   -75722.818    7533.2328   -83256.051     1960.863 
   36550    296.71892   -1309.3969    280539.85       -75723    7557.7342   -83280.734    1965.8085 
   36600    295.34695   -1205.8237    280254.83   -75788.315    7522.7886   -83311.103    1967.0791 
   36650    296.15696   -1134.7186    279487.65   -75808.141    7543.4204   -83351.562    1964.1723 
   36700    298.62565   -710.02874    278577.87    -75859.96    7606.3005    -83466.26    1963.5121 
   36750    297.09085   -687.66556    278505.97   -75856.232    7567.2076    -83423.44    1966.5775 
   36800    297.15042   -994.40126     279269.1   -75842.991    7568.7248   -83411.716    1974.6266 
   36850    297.32357   -1334.2289    280099.63   -75817.781    7573.1352   -83390.916    1983.4872 
   36900    292.56313   -1122.2589    280244.98   -75800.869    7451.8819   -83252.751    1984.9553 
   36950    295.26064   -1133.0068    279990.18   -75808.947    7520.5901   -83329.538    1989.0296 
   37000    292.98366   -1374.2544    279531.45   -75824.638    7462.5933   -83287.232    1988.8923 
   37050    301.42181   -814.20573     279210.1   -75827.733    7677.5216   -83505.255    1990.6812 
   37100     295.2124   -1173.8562    279399.63   -75759.763    7519.3614   -83279.124    1995.6758 
   37150    298.05081   -1110.1058     279585.3   -75741.761    7591.6588    -83333.42    1997.3841 
   37200    299.04944   -820.66611    279496.94   -75753.638    7617.0949   -83370.733    1999.0095 
   37250    294.47315   -883.61437    279720.53   -75778.575     7500.532   -83279.107    2001.0646 
   37300    292.70034   -1188.0278    280126.05    -75798.67    7455.3768   -83254.047     2005.864 
   37350    301.85108   -1028.4019    280000.35   -75777.257    7688.4554   -83465.713    2006.6196 
   37400    293.61697   -1044.4168    279478.96   -75751.636    7478.7242    -83230.36    2005.6387 
   37450    297.00471   -865.11923    279140.18   -75742.298    7565.0134   -83307.311    2005.7776 
   37500    297.58604   -1027.8167    279363.35   -75701.756    7579.8206   -83281.576    2008.3762 
   37550    294.18295   -894.27239    279899.67   -75760.282    7493.1403   -83253.422    2013.4468 
   37600    298.19546   -1264.3686    280251.81   -75773.146    7595.3431    -83368.49     2016.529 
   37650    295.06232   -1039.5445    279768.13   -75776.237    7515.5387   -83291.775    2015.9517 
[...]
   90850    294.69225   -1003.8064    279747.88   -75887.861    7506.1127   -83393.974    4762.9834 
   90900    293.40105     -716.427    279263.23   -75890.552    7473.2246   -83363.776    4760.8978 
   90950    296.89338   -808.55646    279095.45    -75902.16    7562.1779   -83464.338     4760.899 
   91000    291.97759   -1045.2818    279514.44   -75913.667    7436.9676   -83350.635    4766.7693 
   91050    294.55625    -896.1664    279708.54   -75951.484    7502.6488   -83454.133    4774.1049 
   91100    299.23617   -1108.6509    279808.23   -75898.083    7621.8511   -83519.934    4772.7863 
   91150     296.7918   -778.62985    279650.82   -75866.376    7559.5905   -83425.967    4769.3815 
   91200    299.51258   -996.69341    279489.53    -75888.98    7628.8914   -83517.871    4768.6146 
   91250    293.61816   -857.29078    279496.58   -75851.398    7478.7545   -83330.153    4773.4148 
   91300    292.69517    -809.0979    279423.71   -75860.694    7455.2452   -83315.939    4773.1153 
   91350    295.88655   -876.56329       279385    -75875.29    7536.5329   -83411.822    4777.7321 
   91400    296.76349   -1166.2065    279579.05    -75901.21    7558.8693   -83460.079    4780.4142 
   91450    294.04902   -1058.9774    279776.96   -75841.419    7489.7291   -83331.148     4786.782 
   91500    296.08948   -709.77221    279469.46   -75899.398    7541.7016     -83441.1    4788.1002 
   91550    297.59598   -928.31097    279206.26   -75868.672    7580.0737   -83448.746    4787.6856 
   91600    291.36751   -959.19257    278952.93   -75878.296    7421.4281   -83299.724    4785.1014 
   91650    299.61882   -1158.6836    279157.03   -75855.881    7631.5975   -83487.478    4788.6638 
   91700    298.99223   -990.86977     279499.3   -75862.989    7615.6376   -83478.627    4793.6826 
   91750    295.82118   -1053.2086    279746.22   -75841.136    7534.8677   -83376.004    4797.7808 
   91800    292.04865    -1269.609    279984.05   -75848.053    7438.7777   -83286.831    4804.1719 
   91850    299.27827   -876.76135    279665.68   -75857.346    7622.9233    -83480.27    4799.5066 
   91900    297.89089    -898.3628    279288.36   -75840.549    7587.5853   -83428.134    4796.9198 
   91950    297.17132   -1015.2631    279235.78   -75829.742    7569.2571   -83398.999    4796.7557 
   92000    296.17549   -985.99931    279615.85   -75880.766    7543.8925   -83424.658    4805.5141 
   92050    294.73066   -1169.9077    279922.69   -75891.768     7507.091   -83398.859    4812.9584 
   92100    294.09313   -1166.3275    279677.54   -75854.655    7490.8526   -83345.507    4814.0534 
   92150    294.57109   -812.75699    279206.72   -75899.105    7503.0267   -83402.131    4810.9801 
   92200    295.70955   -683.62689    279138.14   -75875.036    7532.0243   -83407.061    4813.6514 
   92250    295.90861   -1109.4756    279713.99   -75838.002    7537.0946   -83375.096    4822.3651 
   92300     297.7814   -1322.0804    280173.45   -75813.857    7584.7966   -83398.653     4830.164 
   92350    293.48246   -1205.8321    279984.19   -75774.151    7475.2981   -83249.449    4829.8608 
   92400    297.46911    -1073.718    279497.07   -75810.874    7576.8422   -83387.716    4823.4278 
   92450    302.14747   -726.91714    278929.78   -75830.477    7696.0049   -83526.482    4818.5969 
   92500     299.1775   -604.39356    279024.07   -75884.339    7620.3566   -83504.696     4816.559 
   92550     292.6569   -1297.2575    279736.01   -75898.084    7454.2702   -83352.354    4830.3833 
   92600    292.60526   -1251.1612    280061.76   -75863.915     7452.955    -83316.87     4837.433 
   92650    297.37929   -1339.2914    280072.87   -75830.295    7574.5544   -83404.849    4840.7495 
   92700    301.35149    -784.7956       279619   -75842.665    7675.7305   -83518.396    4840.0864 
   92750    298.85597    -870.2927    279206.62   -75824.124    7612.1668   -83436.291    4836.0829 
   92800    300.06725   -746.27546    279020.88   -75818.171    7643.0195    -83461.19     4834.821 
   92850    294.85328   -863.50128    279374.39   -75774.907    7510.2143   -83285.121    4842.0534 
   92900    297.37662   -1258.9661    279789.81     -75761.8    7574.4864   -83336.286    4848.6761 
   92950    295.17758   -849.62154    279974.17   -75731.959    7518.4746   -83250.434    4850.3629 
   93000     298.0876   -976.97116    280061.43   -75660.983    7592.5959   -83253.579    4853.3629 
   93050    298.02421   -693.61682    279591.51   -75641.796    7590.9813   -83232.777    4849.2612 
   93100    299.07323   -879.87925    279277.33   -75682.726    7617.7008   -83300.427    4849.8775 
   93150    298.56856   -898.18797    279365.33   -75712.212    7604.8464   -83317.059    4855.4645 
   93200     296.1252   -1100.4251    279753.02   -75754.249    7542.6114    -83296.86    4858.5527 
   93250    301.00613   -1092.4402    279793.74    -75754.56    7666.9337   -83421.494    4863.5739 
   93300     301.2302   -1245.0418    279790.71   -75746.624    7672.6411   -83419.265    4866.0173 
   93350    293.82313   -989.97959    279742.36   -75757.075    7483.9752    -83241.05     4870.213 
   93400    302.29093   -910.38265    279745.18   -75717.365     7699.659   -83417.024     4874.654 
   93450    300.38988   -919.66146     279571.6    -75741.16    7651.2371   -83392.397    4876.7546 
   93500    300.85707   -961.13904    279454.81   -75777.479     7663.137   -83440.616    4879.7446 
   93550    297.44952   -836.67902    279472.73   -75734.034    7576.3431   -83310.377    4882.2097 
   93600      299.322   -937.69147    279726.12   -75716.115    7624.0373   -83340.153     4887.934 
   93650    291.20189    -1023.314    279846.36   -75690.111    7417.2097   -83107.321    4893.1949 
   93700    302.55177   -1277.7571    279982.61   -75655.548    7706.3029   -83361.851    4898.0733 
   93750    293.29842   -889.67114    279763.57   -75698.807    7470.6106   -83169.417     4899.925 
   93800    300.20027    -887.6513    279630.47   -75725.531    7646.4077   -83371.939    4901.7554 
   93850    292.69336   -953.26557    279633.67   -75727.649     7455.199   -83182.848      4905.81 
   93900    294.67471   -923.33457    279637.63   -75712.574     7505.666    -83218.24     4909.754 
   93950    293.61221   -1070.1266    279808.55   -75711.575    7478.6031   -83190.179    4909.6431 
   94000    293.36242   -1058.3245    279840.28   -75761.028    7472.2405   -83233.269    4913.9631 
   94050    294.98624   -884.27349    279601.62   -75828.583     7513.601   -83342.184     4913.429 
   94100    299.84993   -1255.4785    279559.66   -75847.268    7637.4841   -83484.752    4914.0456 
   94150    299.61076   -1209.1458    279383.12   -75889.636    7631.3921   -83521.029    4914.3965 
   94200    299.80088   -879.21879    279349.12    -75858.61    7636.2348   -83494.845    4918.2185 
   94250    294.74052   -1084.7182    279621.24   -75802.802    7507.3423   -83310.144    4924.8957 
   94300    298.45175   -959.65486    279827.99   -75798.683    7601.8711   -83400.555    4930.3023 
   94350     291.9669   -1021.6829    280096.42   -75808.465    7436.6953    -83245.16    4933.0538 
   94400    294.98013   -1418.2041    279930.32   -75809.883    7513.4454   -83323.328    4932.0764 
   94450    292.89564   -1011.7441    279245.65   -75818.951    7460.3514   -83279.302    4923.0752 
   94500     300.8526   -1017.3346    278899.35   -75851.397    7663.0232    -83514.42    4921.2892 
   94550    294.93936   -782.70521     279071.9   -75827.265    7512.4069   -83339.672    4924.1662 
   94600    298.61608   -1044.3385    279540.97   -75811.736    7606.0566   -83417.793     4932.553 
   94650    298.11257   -1224.2357    280084.49   -75821.203    7593.2317   -83414.435    4943.2129 
   94700    296.33564    -1400.632    280264.01   -75791.426    7547.9717   -83339.397    4949.7853 
   94750    296.78754   -985.08793    279968.37   -75846.542     7559.482   -83406.025    4947.6829 
   94800    293.25309    -960.8501    279592.06   -75895.139    7469.4559   -83364.595    4943.8385 
   94850    296.31379   -1142.2231    279292.56   -75939.399    7547.4149   -83486.814    4944.1837 
   94900    290.51771   -818.94073    279105.54     -75946.2    7399.7829   -83345.983    4945.3679 
   94950    292.81229   -919.72804    279200.38   -75904.989    7458.2282   -83363.217    4950.0891 
   95000    296.06454   -1029.4038    279497.07   -75970.686    7541.0664   -83511.753    4955.8879 
   95050    295.98817   -1050.7646    279718.47   -75985.824    7539.1212   -83524.945    4960.6526 
   95100    295.19065   -1067.4069    279741.01   -75948.925    7518.8075   -83467.733    4964.6197 
   95150    296.62582    -1000.369    279534.98   -75916.429    7555.3628   -83471.792    4966.1215 
   95200    290.49151    -868.3731    279195.73   -75938.729    7399.1156   -83337.845     4964.703 
   95250    299.93307   -1010.4665    279140.43   -75965.793    7639.6018   -83605.395    4969.1305 
   95300    292.00132   -1068.6411    279395.65   -75986.998    7437.5719    -83424.57    4976.9719 
   95350    296.54215   -1301.7518    279549.18   -75977.801    7553.2317   -83531.033    4984.1338 
   95400    297.27921   -1056.2262    279282.51    -75928.58    7572.0053   -83500.585    4983.3273 
   95450    299.10781   -1219.9377    279212.96   -75924.407    7618.5815   -83542.988    4984.8822 
   95500    295.79586    -1034.597    279370.58   -75893.203    7534.2228   -83427.425    4991.7426 
   95550    299.09534   -1063.5643    279462.75   -75840.234    7618.2638   -83458.497    4996.7655 
   95600    295.90034   -867.21417    279598.73   -75847.245    7536.8839   -83384.129    5002.3903 
   95650     297.8471   -904.05772     279546.5   -75814.757      7586.47   -83401.227    5006.9311 
   95700    293.68495   -812.99469    279681.22   -75804.759    7480.4558   -83285.215    5009.4921 
   95750    297.71748   -871.74435    279829.69   -75801.418    7583.1683   -83384.586    5017.6596 
   95800    299.16033   -1154.2738    280036.74   -75788.104    7619.9194   -83408.024    5024.3405 
   95850    299.57634   -1283.6659    279908.53   -75785.203    7630.5155   -83415.719    5026.6265 
   95900     297.8509   -972.32743    279322.51   -75801.959    7586.5668   -83388.526    5019.7897 
   95950    302.71549   -780.39491     278638.8   -75793.126    7710.4729   -83503.599    5015.5731 
   96000    298.83185    -879.6339    278585.46   -75798.359    7611.5526   -83409.911    5019.9566 
   96050    293.85862   -875.50504    279275.26   -75779.989    7484.8794   -83264.868    5034.3069 
   96100    295.30469   -1155.4342    280053.77   -75827.028    7521.7122    -83348.74    5051.1827 
   96150    297.21924   -962.56603    279968.34   -75847.378    7570.4779   -83417.856    5048.9949 
   96200    297.69983   -899.99872    279532.41   -75836.285    7582.7188   -83419.004    5043.6668 
   96250    292.88404   -664.81076    279148.82   -75861.194    7460.0559    -83321.25    5041.3031 
   96300    295.15377   -821.42706    279177.14   -75826.963    7517.8683   -83344.832    5047.9585 
   96350    296.63257    -852.2455     279364.3   -75850.423    7555.5348   -83405.958     5050.886 
   96400    297.06552    -1379.095    279588.51   -75875.518    7566.5624    -83442.08     5060.495 
   96450    294.36473   -1135.4918     279689.4    -75835.59    7497.7705   -83333.361    5066.0923 
   96500    299.32383   -755.33942     279509.6    -75820.34    7624.0839   -83444.423    5066.6095 
   96550    299.79249   -1082.6942    279400.23   -75852.945    7636.0211   -83488.966    5071.0708 
   96600    290.34403   -1062.8032    279284.97   -75910.292    7395.3593   -83305.652    5072.7108 
   96650    294.85373   -1039.1901    279160.38   -75945.282    7510.2258   -83455.508    5071.8507 
   96700    292.51157   -959.77211    279130.35   -75946.973    7450.5686   -83397.542    5072.8648 
   96750    295.79674    -959.4869    279268.84   -75985.208    7534.2452   -83519.454    5076.3374 
   96800    293.20314   -736.50073    279495.53   -76000.596    7468.1835   -83468.779    5084.2004 
   96850    294.78067   -1300.0054    279593.55   -75990.056    7508.3648   -83498.421    5083.9894 
   96900    293.84938   -1043.7007    279333.14   -75963.713     7484.644   -83448.357     5084.539 
   96950    295.82647   -908.48071    278983.33    -75968.86    7535.0025   -83503.863    5084.1688 
   97000     296.9655   -657.59729    278689.04   -75897.294    7564.0149   -83461.309    5080.1359 
   97050    292.85562   -929.59823    279236.67   -75883.666    7459.3318   -83342.998    5089.1716 
   97100    293.19896   -876.48106    280119.03   -75871.199    7468.0772   -83339.276    5101.8806 
   97150    292.67915   -1305.3967    280488.16   -75896.954    7454.8371   -83351.792    5110.0265 
   97200    293.16505   -1051.9942    279753.67   -75877.587    7467.2134     -83344.8    5103.0712 
   97250     299.7924   -795.29803    278780.89   -75895.317    7636.0189   -83531.335    5094.6147 
   97300    299.49448   -673.22133    278393.37   -75852.117    7628.4304   -83480.548    5093.1172 
   97350    298.25572   -818.81978    279103.42   -75807.277    7596.8779   -83404.155    5104.4525 
   97400    296.48814   -1229.8215       280064   -75768.567     7551.856   -83320.423    5116.3564 
   97450    292.94201   -1120.1021    280392.01   -75750.913    7461.5323   -83212.445    5124.9764 
   97500    301.02936   -1062.1139    279937.92   -75776.464    7667.5253    -83443.99      5123.49 
   97550    295.59927   -889.52483    279222.29   -75780.858    7529.2154   -83310.073    5118.3436 
   97600     300.0112    -860.6559    278878.78   -75768.076    7641.5919   -83409.668    5116.2077 
   97650    300.75609   -1236.4205    279071.94   -75757.612    7660.5649   -83418.177    5118.8286 
   97700     299.0401   -826.34109    279299.17   -75755.863     7616.857    -83372.72    5124.3103 
   97750    303.29747   -1123.4257    279798.79   -75752.225    7725.2966   -83477.521    5134.1753 
   97800    294.13998   -964.99665    280002.91   -75758.286    7492.0459   -83250.332    5141.3199 
   97850    303.11129   -1324.4038    279903.17   -75788.823    7720.5543   -83509.377    5142.2256 
   97900    295.23471   -1114.4291    279563.14   -75780.997    7519.9297   -83300.926    5141.3487 
   97950    299.85647   -683.76737    279359.74   -75779.149    7637.6507     -83416.8    5140.6604 
   98000    299.59706   -1097.7134    279463.41   -75751.426    7631.0433   -83382.469    5144.0805 
   98050    298.98868   -925.57396    279527.27   -75769.578    7615.5473   -83385.126    5147.2273 
   98100    295.17096   -1140.5052    279695.48   -75761.373    7518.3059   -83279.679    5149.4597 
   98150    296.15454   -1194.9792     279613.2   -75782.146    7543.3588   -83325.505    5150.8632 
   98200    300.56428   -846.13863    279224.01   -75763.161    7655.6794   -83418.841    5147.6122 
   98250    303.36719   -755.97137    279114.47   -75704.079    7727.0724   -83431.151    5145.7583 
   98300    302.77939   -727.11446    279404.19   -75697.053    7712.1004   -83409.154    5153.7362 
   98350    303.42499   -1099.9242    279750.61   -75642.488    7728.5446   -83371.032    5161.0265 
   98400    298.14318    -1095.734    279827.62    -75673.12    7594.0116   -83267.132    5160.2363 
   98450    295.22284   -1161.5697    279661.61   -75704.187    7519.6275   -83223.815    5158.9802 
   98500    297.20227   -760.54441    279528.28   -75753.043    7570.0456   -83323.089    5157.8411 
   98550    301.31837   -1243.0332    279657.86   -75754.246    7674.8867   -83429.132    5161.7843 
   98600    301.85002    -818.6624    279550.32    -75749.33    7688.4285   -83437.759    5164.5082 
   98650    302.87109   -986.15311    279804.07   -75696.506    7714.4362   -83410.942     5170.226 
   98700    295.54345   -1165.5495    280215.32   -75699.161    7527.7936   -83226.954    5176.2554 
   98750    297.00173   -1141.1921    280315.67   -75655.951    7564.9375   -83220.888    5182.1789 
   98800    300.12816   -1000.6659    280041.87   -75673.294     7644.571   -83317.865    5185.5613 
   98850    301.90276   -1030.5361    279692.45   -75694.758    7689.7719    -83384.53    5184.5021 
   98900    301.16639   -975.39043    279417.26   -75700.804    7671.0157    -83371.82    5186.4291 
   98950    296.98643   -894.72345    279264.17   -75685.273    7564.5479   -83249.821    5185.6393 
   99000    303.66329   -957.64633    279249.58   -75696.153    7734.6142   -83430.767    5189.3863 
   99050    298.03558   -944.53106    279427.15   -75744.477    7591.2708   -83335.747     5189.081 
   99100    296.64582   -982.88425    279599.79    -75693.15    7555.8721   -83249.022    5193.5439 
   99150    302.21692   -987.47204    279606.12    -75762.36    7697.7738   -83460.134    5192.0366 
   99200    301.55188   -1059.8009    279348.41   -75827.707    7680.8345   -83508.542     5188.687 
   99250    297.29459   -805.39609    279307.88   -75861.031     7572.397   -83433.428    5187.3108 
   99300    295.42233   -1182.6491    279828.04    -75875.61    7524.7085   -83400.319    5193.9577 
   99350    295.05635   -1320.7162    280119.59   -75915.342    7515.3868   -83430.729    5193.6814 
   99400    293.97072   -1355.2809    279962.52   -75950.441    7487.7347   -83438.176     5194.276 
   99450     294.1336   -975.08556     279400.7   -75945.338    7491.8833   -83437.221     5189.411 
   99500    295.59211   -877.92827    279128.52   -75948.807     7529.033    -83477.84    5186.8937 
   99550    294.93607   -916.75774    279148.37   -75983.575    7512.3232   -83495.898    5192.0321 
   99600    288.49788   -1098.0791    279428.34   -75987.675    7348.3358   -83336.011    5196.7699 
   99650    297.40616   -1211.0241    279476.11   -75932.062    7575.2389   -83507.301    5199.1991 
   99700    294.25608   -871.48544    279260.74   -75920.544     7495.003   -83415.547    5198.5969 
   99750    295.51006   -917.20843    279149.92   -75893.769    7526.9431   -83420.712    5196.4213 
   99800    295.96965   -1144.1253       279263   -75922.871    7538.6494    -83461.52    5202.2783 
   99850    292.12061   -948.40689    279535.06   -75955.413    7440.6104   -83396.024    5209.1482 
   99900    297.28322   -1208.6699     279646.3   -75934.067    7572.1074   -83506.174    5213.2306 
   99950    296.87311   -1000.6731    279398.25   -75915.236    7561.6614   -83476.897     5213.681 
  100000     295.3192   -940.91713    279292.38   -75919.223    7522.0819   -83441.305    5218.4389 
Loop time of 253.534 on 6 procs for 100000 steps with 8546 atoms

Performance: 340.782 ns/day, 0.070 hours/ns, 394.424 timesteps/s
99.4% CPU use with 6 MPI tasks x no OpenMP threads

MPI task timing breakdown:
Section |  min time  |  avg time  |  max time  |%varavg| %total
---------------------------------------------------------------
Pair    | 71.42      | 129.21     | 200.24     | 454.6 | 50.96
Neigh   | 31.172     | 36.76      | 41.064     |  63.3 | 14.50
Comm    | 6.4563     | 81.18      | 144.59     | 613.4 | 32.02
Output  | 0.14967    | 0.15273    | 0.16611    |   1.5 |  0.06
Modify  | 5.1168     | 5.1774     | 5.2368     |   1.5 |  2.04
Other   |            | 1.055      |            |       |  0.42

Nlocal:        1424.33 ave        1452 max        1390 min
Histogram: 1 0 0 1 0 2 0 0 1 1
Nghost:        2024.67 ave        2064 max        1976 min
Histogram: 1 0 0 1 1 0 1 0 1 1
Neighs:        0.00000 ave           0 max           0 min
Histogram: 6 0 0 0 0 0 0 0 0 0
FullNghs:      39457.0 ave       39859 max       39074 min
Histogram: 1 0 1 0 0 2 1 0 0 1

Total # of neighbors = 236742
Ave neighs/atom = 27.702083
Neighbor list builds = 20945
Dangerous builds = 0

# Create data file for import to other simulations
#
write_data data.${NAME}
write_data data.coexist_297K_-1000atm_ML
System init for write_data ...

Total wall time: 0:04:13
