LAMMPS data file via write_data, version 29 Oct 2020, timestep = 200000

5832 atoms
1 atom types

-0.024949447635329136 57.2954594476322 xlo xhi
-0.024949447635329136 57.2954594476322 ylo yhi
-0.024949447635329136 57.2954594476322 zlo zhi

Masses

1 18.015

Atoms # atomic

5 1 1.1372594785157422 1.6123666903753187 1.5655039323977753 0 0 0
13 1 7.920356842924932 1.4831073555038627 1.6018238915534184 0 0 0
21 1 14.274000514703108 1.7823077963161955 1.4224235941633339 0 0 0
18 1 12.977438826744816 3.1239553833574703 3.3369579713200954 0 0 0
3593 1 45.16324026898531 28.582167833410416 16.08406439634345 0 0 0
26 1 18.735563738476085 3.0105079159069357 3.110843332347296 0 0 0
29 1 20.412322468778694 1.612974246356937 1.6110404027459395 0 0 0
37 1 27.07950312473486 1.3670915773163983 1.326926046264226 0 0 0
45 1 33.341439480410244 1.4578698027170098 1.6936495110104128 0 0 0
284 1 54.221377595612324 22.391665560819995 0.27636104926017657 0 0 0
53 1 39.51642054376694 1.8185859019163302 1.8148078648791897 0 0 0
972 1 55.90072343406834 27.30835867212319 17.511937279100817 0 0 0
61 1 46.13953660128529 1.9661967768559128 1.3084084548710553 0 0 0
325 1 57.13860343158659 0.4898602730806455 6.060577962422416 -1 0 0
66 1 50.86311047332505 3.412049844721267 3.3979020414999472 0 0 0
69 1 52.3475739306638 1.5994932193690303 1.8475586645521052 0 0 0
968 1 49.4054590137708 26.603180068763997 17.970214223295677 0 0 0
8 1 4.407788863286588 4.688271389483785 1.654214076256885 0 0 0
10 1 6.27034980718546 3.3705192707627827 3.1560911563593614 0 0 0
16 1 11.400695328468476 4.729757265174786 1.8187615836378515 0 0 0
83 1 9.855771424762517 6.451532002760735 3.3510215685169507 0 0 0
24 1 17.359091667426757 4.730777074259369 1.6061742643610109 0 0 0
124 1 41.27057525494601 9.621862981686261 0.06312383049442125 0 0 0
32 1 23.909723933877633 4.620281176057163 1.7123436657848046 0 0 0
34 1 25.295849297767433 2.8293638025513026 2.9952509679811294 0 0 0
107 1 28.81572502650395 6.0885870675586835 3.2082961107096564 0 0 0
212 1 54.50714641874202 16.086171891847574 0.4637734061842159 0 0 0
40 1 30.363648975801933 4.705741454865874 1.2024207185173403 0 0 0
48 1 36.62722958205212 4.828143062900902 1.2416752825441197 0 0 0
244 1 21.99901219744008 22.104471677937152 0.33828875150165394 0 0 0
56 1 43.07676247354683 4.9344033056056835 1.022595159053191 0 0 0
84 1 9.468540688034624 9.556498938008728 0.08184599211185614 0 0 0
64 1 49.295703030346964 4.838512511137066 1.5655034740560374 0 0 0
2925 1 12.702178227156548 28.59756687981356 3.0331347430901845 0 0 0
19 1 15.729136754469156 0.0792150925902746 2.927167934192681 0 0 0
72 1 55.80583304470432 4.8295075637942535 1.7204745746234396 0 0 0
77 1 1.367421996633298 7.845500906694642 1.9150118619835435 0 0 0
85 1 7.946621120166403 7.6744795510449695 1.419784091606839 0 0 0
82 1 6.526277877697236 9.381482031177484 3.1062591873908767 0 0 0
697 1 38.21793742195722 0.24884517054528033 12.818146043789156 0 0 0
93 1 14.394653877460557 7.826499022622229 1.7618818022026164 0 0 0
90 1 12.787070895204483 9.870078417257185 3.296371548306421 0 0 0
268 1 41.54281512036401 22.3303617494205 0.196862808759307 0 0 0
101 1 20.959339780388145 7.7553764550733 1.4774651714856937 0 0 0
98 1 19.424838686489927 9.628333937492323 3.360447743708515 0 0 0
99 1 22.2031476777674 6.110072613734054 3.210211045321035 0 0 0
109 1 27.400307994265525 8.153006505083878 1.6442732190021923 0 0 0
117 1 33.64022394474053 8.269474866195395 1.923424908691652 0 0 0
132 1 47.805814583496435 9.685052149613483 0.15321948533775112 0 0 0
125 1 40.08775014202213 7.862606318078794 1.6332597093822847 0 0 0
123 1 41.923457605532626 6.503774671728926 3.3785649199596777 0 0 0
349 1 19.265614803772497 0.03863981121093846 6.3651481065982525 0 0 0
133 1 46.06870743225797 7.9045044054696785 1.3878212349990684 0 0 0
131 1 47.838320896325186 6.728313798812315 3.1109347067405175 0 0 0
138 1 50.9012675616321 9.615540585377309 3.1261029649676733 0 0 0
141 1 52.36917032806332 7.727092137969865 1.7973075667861895 0 0 0
139 1 54.21302272900166 6.3682432821660235 3.4896397435466135 0 0 0
373 1 37.96263156119994 0.06849410076848685 6.4859341734549405 0 0 0
74 1 57.191615826574434 9.723203654130376 3.07853147988978 -1 0 0
80 1 4.7686370698580305 10.967769340467484 1.6261382124295385 0 0 0
88 1 11.208365283757985 11.119550169955863 1.44565210008313 0 0 0
155 1 9.661899403681515 12.648255572382382 3.1358573334497857 0 0 0
59 1 47.463320159064125 0.3723030848474847 3.1324746054820234 0 0 0
276 1 47.957156776643004 22.350137134948593 0.22137585879998065 0 0 0
96 1 17.49744705017661 10.80701220740864 1.4261473270203266 0 0 0
104 1 23.966319357876053 11.416441021040596 1.7150982737430402 0 0 0
171 1 21.918691222361705 12.696908038869417 3.6463052299185024 0 0 0
193 1 38.08876597450913 12.853883139150277 0.2270311363059626 0 0 0
112 1 30.27814308315545 11.253678392232402 1.8637579186469326 0 0 0
187 1 35.220143602712845 12.710851222475126 3.648709808264575 0 0 0
120 1 36.641688396962124 11.144029713463025 1.844082746848792 0 0 0
195 1 41.2468082301482 12.522885053051194 3.220012576990101 0 0 0
188 1 34.811948696918435 16.048368599869118 0.3573049385649403 0 0 0
128 1 43.270087241800866 10.994312418983727 1.9095358337611519 0 0 0
136 1 49.32207934733746 11.232046799859177 1.6708605479308407 0 0 0
144 1 55.489178605519825 11.35941464810746 1.6639072048773136 0 0 0
149 1 1.235185807205583 14.495493979390853 1.3938501563518446 0 0 0
157 1 7.946419705708568 14.013195035411364 1.453271180492809 0 0 0
177 1 25.614767434572073 13.172236034337539 0.07523939592461458 0 0 0
165 1 14.333891131129528 14.186059089020073 1.2909617621412408 0 0 0
162 1 12.476273606568322 15.897813542313893 3.417393455175922 0 0 0
389 1 51.032914290892435 0.05866043324542858 6.605458010378946 0 0 0
173 1 20.24591215835717 14.270916371420238 1.8296238109652099 0 0 0
68 1 53.853993469804905 3.141959019469205 0.3177840385948104 0 0 0
359 1 28.823645501418042 0.08695957752915988 9.865520893917092 0 0 0
181 1 27.065248857568477 14.821689903805995 1.517448760887303 0 0 0
179 1 28.375226590734126 12.789278130846265 2.8907201018229793 0 0 0
3566 1 3.2555412157646115 28.431846035077047 12.562880794089 0 0 0
189 1 33.52826638572028 14.206402817696473 2.0310980761230635 0 0 0
194 1 38.16979280669579 16.244614278025725 2.622680151604346 0 0 0
197 1 39.95809566254632 14.397933780432034 1.469117516708517 0 0 0
203 1 47.90603934408328 12.46651065303401 3.6597948013347015 0 0 0
205 1 46.23978164703561 14.063452549702005 2.138652117212915 0 0 0
213 1 52.97629185234045 14.523197279638106 2.0007582219227484 0 0 0
146 1 56.97213139707875 15.72210623687191 3.217329835656347 -1 0 0
152 1 4.7309869664014075 17.249746388478986 1.6986379722436051 0 0 0
317 1 44.315746959943645 25.40444433439361 0.5251717828297199 0 0 0
160 1 11.042223306992597 17.631034643897177 1.5603027878429796 0 0 0
343 1 15.884705645995119 0.11171997696866498 9.161406972410845 0 0 0
168 1 17.211453652059845 17.48676694545878 1.6905597801166132 0 0 0
3586 1 34.971041396997876 28.5902474533021 12.78953319074605 0 0 0
204 1 48.00894521216865 15.6188076007447 0.411560655890864 0 0 0
176 1 23.62607910853388 17.464757823997264 1.1143905712253177 0 0 0
140 1 54.27499512026209 9.468461061316836 0.19584088836714553 0 0 0
184 1 30.027222301044148 17.63118627933241 1.7419604753145543 0 0 0
186 1 31.67955502856487 15.889640464859983 3.1628100092413627 0 0 0
259 1 34.8333334288457 19.605577860619544 3.042026101742294 0 0 0
192 1 36.337525024385634 17.839054519908323 1.4709739793842465 0 0 0
267 1 41.01951767650353 19.14094676748436 3.3383786201341135 0 0 0
200 1 42.87238819344403 17.441819213357938 2.1775734768799135 0 0 0
202 1 44.56283495752205 15.59190579876903 3.312195855076085 0 0 0
210 1 51.15666057436416 16.21934134087583 3.0811421610965826 0 0 0
208 1 49.27759615523443 17.82249346501826 1.7232129684904391 0 0 0
216 1 56.015125834287325 17.87287235755796 1.812614292758852 0 0 0
221 1 1.130646570567699 20.430469855886386 1.627488059898415 0 0 0
218 1 57.17661035803721 22.114257498646158 3.4491159286444297 -1 0 0
219 1 3.1477312464448897 18.86848508050177 3.0941020989610224 0 0 0
229 1 7.960217376943947 20.904876691211154 1.3352362706559981 0 0 0
237 1 14.161880890786714 20.643743607704383 1.2597876417964955 0 0 0
57 1 44.40992678969386 0.2421912132600726 0.06839821898551465 0 0 0
245 1 20.197393248303747 20.370550024615248 1.703504717185885 0 0 0
201 1 44.61635106677994 12.639222912387782 0.35898345879936483 0 0 0
253 1 27.04844020423801 21.19553119164576 1.4160977673501118 0 0 0
251 1 28.240370755635457 19.32382758258302 3.0288960376636473 0 0 0
261 1 33.02352034703294 20.738140131745297 1.4226090903701836 0 0 0
266 1 38.25489396336295 22.49060043565128 3.27843809701506 0 0 0
269 1 39.64950083591703 20.89766513194497 1.621557618730592 0 0 0
51 1 41.24211517748702 0.11504159013535542 3.335429327846602 0 0 0
275 1 47.60733895042723 19.4312463861352 3.3759305780786635 0 0 0
277 1 45.973404690495606 20.59793739005159 1.552505738950213 0 0 0
285 1 52.6568925608142 20.579388291622394 1.4938783343161195 0 0 0
76 1 2.7719897788578995 9.611380663039307 0.17746746642875041 0 0 0
224 1 4.343475696781874 23.45357231196047 1.3969670814423247 0 0 0
3598 1 54.00559756316362 28.538423196442643 12.621284628126649 0 0 0
232 1 11.017903968813261 23.61201350142465 1.6128716236642562 0 0 0
294 1 9.368053890370915 25.6371028539903 3.0149792297363045 0 0 0
357 1 25.721960120404436 -0.021215868079181632 6.062347125554475 0 0 0
240 1 17.33987881681105 23.94143728857249 1.6855432595305613 0 0 0
298 1 15.76872130015279 25.832140630558722 3.205648047637816 0 0 0
100 1 22.601180953519684 9.537245107849635 0.1028610397349834 0 0 0
248 1 24.011873544671385 23.821133654561432 1.2418343774820026 0 0 0
256 1 30.377460842557003 24.14193181443747 1.4757197709382046 0 0 0
258 1 31.632701033429566 22.197356644271824 3.2314096210908345 0 0 0
264 1 36.68661890103988 24.051156150387623 1.5296218819988818 0 0 0
272 1 43.007694653034775 23.73581922649247 1.9494717133970658 0 0 0
657 1 6.5513540085279915 -0.01995456553549957 12.852992737032658 0 0 0
280 1 49.57024971965169 23.744555745712987 1.7157921312104958 0 0 0
44 1 34.35459571326701 3.5071709583010446 0.15971773548433646 0 0 0
288 1 55.93980731521247 23.918604756317578 1.5618915049723414 0 0 0
3245 1 6.096651709804187 28.316754381970085 9.138684915908586 0 0 0
291 1 1.417192707609271 27.199614787391436 1.596301594318369 0 0 0
295 1 7.9261955659755365 27.112183509232242 1.1590768987603328 0 0 0
3269 1 44.87525660309458 28.366794213349646 9.562856307058345 0 0 0
970 1 54.32701622724492 25.7889816020989 16.27162938041181 0 0 0
299 1 14.205446562465198 27.096462888862813 1.4399372953552199 0 0 0
934 1 52.830481717348746 23.76729551230732 17.33399153603827 0 0 0
303 1 20.633270223263423 27.03236901074972 1.2370335690810617 0 0 0
3266 1 41.38750913618214 28.434759770599147 6.472152293895266 0 0 0
307 1 26.893759122217705 27.31473739777903 1.8380872909166566 0 0 0
3249 1 12.929450491162813 28.508919501800825 9.040209609588485 0 0 0
311 1 33.14876816305075 27.395512674060473 1.4561068088195472 0 0 0
310 1 34.922964621964006 25.775124352488454 3.0550522048633533 0 0 0
315 1 39.80199455019876 27.01511924738953 1.5542053102409912 0 0 0
113 1 32.0755820202777 6.707700557667257 0.24391750611652296 0 0 0
319 1 46.207366624766145 26.83729852606881 1.3916091321402915 0 0 0
318 1 47.856417179741065 25.481506835737576 2.9992656705237 0 0 0
2949 1 51.16396519796678 28.420194068347346 3.0252489304872396 0 0 0
323 1 52.918629455039465 26.9653071815475 1.5939151699583227 0 0 0
322 1 54.3980443116514 25.519851572188124 3.4520401844352753 0 0 0
327 1 3.363730296125702 0.1511241695732295 9.417957603468075 0 0 0
7 1 4.848809440942438 1.8241089800108972 4.682322815588901 0 0 0
981 1 6.543914162595769 0.06102684634889499 18.767089567333453 0 0 0
15 1 11.070303005804426 1.3992836279463188 4.960472545479462 0 0 0
23 1 17.492017426009955 1.4669349540655898 4.6457854327655355 0 0 0
344 1 16.375931182438247 2.9574884397072863 6.3287811524345186 0 0 0
352 1 22.510565859300538 3.0338781146060896 6.289384118105114 0 0 0
169 1 18.651384132019263 12.764411161207706 0.17326173214931334 0 0 0
31 1 23.864435289214732 1.3386473334939466 4.587370124209652 0 0 0
360 1 28.785928921056104 3.088612304239241 6.084115969415035 0 0 0
964 1 43.137857826327675 26.954065470854285 17.0887206074203 0 0 0
39 1 30.34115343347236 1.6707039570629592 4.620602163255325 0 0 0
960 1 37.00404861329339 27.11683464253434 17.54889194713955 0 0 0
236 1 15.753282714775306 22.387541301892202 0.14053323930546716 0 0 0
47 1 36.64092689829191 1.4489991232395976 4.6106073116475965 0 0 0
376 1 41.55237527603197 3.197238940474254 6.1997292078358575 0 0 0
55 1 43.123964784577545 1.7438863941031775 4.514318091283094 0 0 0
12 1 9.366312292388933 3.640771736630201 0.3890781358778389 0 0 0
384 1 47.94568285489215 3.4524418764690203 5.997930631242713 0 0 0
63 1 49.47617316976684 1.6069827777131822 4.589227252441233 0 0 0
2 1 57.188047084059285 3.3932629339818003 3.325411534795604 -1 0 0
71 1 55.202762855465714 1.6658093640267364 4.475771743095617 0 0 0
6 1 1.3789001130465326 4.974487599520597 4.721330842572406 0 0 0
75 1 3.2436015302214285 6.537128852768783 3.237934833702016 0 0 0
14 1 8.026908765995936 4.894278122002659 4.589767842046086 0 0 0
22 1 14.470129510681117 4.649512328028251 5.03965698176966 0 0 0
91 1 16.170682318898066 6.273483462207396 3.4466727686405814 0 0 0
30 1 20.444603999727633 4.5743396572281645 4.908048961159449 0 0 0
38 1 27.15123265998723 4.6888654032279184 4.676910108882616 0 0 0
42 1 31.962987423724908 3.2416971148465588 3.1951523151828436 0 0 0
46 1 33.70997412332541 4.615041290174864 4.5311768533253165 0 0 0
50 1 38.00930556254873 3.2859226095164034 3.27004868824949 0 0 0
54 1 39.97314488087643 4.786485728330088 4.554339261730492 0 0 0
58 1 44.510014514575545 3.497421080583289 3.0028802616488663 0 0 0
62 1 46.17945519440883 5.2818078347121995 4.588089214057444 0 0 0
70 1 52.71142923088425 4.806274355399597 4.74215355382037 0 0 0
392 1 53.98634866457372 3.26362188889378 6.438711905471142 0 0 0
79 1 4.7220330438828135 8.217295143264977 4.7015044264187225 0 0 0
405 1 6.4072703165940545 6.485962548211646 6.129374957957996 0 0 0
87 1 11.377431348238256 8.180742536603484 4.820317860252889 0 0 0
408 1 9.383108854597687 9.668576626537641 6.120264433002988 0 0 0
95 1 17.850742644742933 7.777971820588398 4.984833071583125 0 0 0
421 1 19.166612735445504 6.164768229137482 6.887047975942568 0 0 0
103 1 23.983569913852303 7.82055629439344 4.572857656984444 0 0 0
106 1 25.601135318462248 9.74762490283066 2.9955650441084005 0 0 0
432 1 28.45301781697706 9.140041810781526 6.317284212800613 0 0 0
111 1 30.29765122223121 7.574070203211144 4.737465258238978 0 0 0
115 1 35.28807091684593 6.134335786810745 2.965102798507686 0 0 0
445 1 38.174480081604834 6.229067050569392 6.4681415799171855 0 0 0
119 1 36.695715495395206 7.688906343321974 4.666229058914098 0 0 0
127 1 43.16060153262372 7.926514726379913 5.03972209554701 0 0 0
453 1 44.56234024843833 6.314638560984114 6.690829201391487 0 0 0
461 1 51.14916066481251 6.40468354170755 6.542568659887849 0 0 0
135 1 49.48608973870533 8.099158724925159 4.868339894121573 0 0 0
143 1 55.51846062566556 8.440592908814361 4.724865719374918 0 0 0
78 1 1.6552416876986769 11.180993298279228 4.8717577350082655 0 0 0
400 1 3.1223169877988064 9.521911480727837 6.383600665520209 0 0 0
86 1 7.695594745478103 11.271513463442426 4.742748897910741 0 0 0
477 1 5.843245336828182 13.280426691612446 6.299230308987414 0 0 0
94 1 14.626884701470994 11.397963621917425 4.796037708862129 0 0 0
163 1 16.13140461906392 12.732859962527499 3.0160603673433073 0 0 0
416 1 16.03503878651942 9.763378390638577 6.315125080390867 0 0 0
102 1 20.46133364385561 11.125479575102174 5.4123181139541945 0 0 0
501 1 25.52318459526536 12.453990961429373 6.162042952155662 0 0 0
110 1 27.3005946343093 10.953058227365325 4.647043629112828 0 0 0
114 1 31.761573488408427 9.53498161159273 3.3342930342092365 0 0 0
509 1 31.346060762892968 12.659079558206138 6.507742014693149 0 0 0
118 1 33.21932075130293 11.266261118428925 5.13550033063557 0 0 0
122 1 38.331280582025435 9.270695086800078 3.2334122705719417 0 0 0
126 1 39.91684034531974 10.780902794071807 4.77183180636664 0 0 0
448 1 41.345079677003675 9.325150844144181 6.435860016597013 0 0 0
130 1 44.767701656979156 9.490439678482154 3.4416463985701804 0 0 0
525 1 44.63362685062662 12.565658003827528 6.430207233947401 0 0 0
456 1 47.650944082578825 9.239457528052823 6.392854044910918 0 0 0
134 1 46.51985675114998 11.116946488937899 5.0990688680067136 0 0 0
142 1 52.25415525572396 11.228220437725517 4.735707570867974 0 0 0
469 1 57.22691020479049 12.561807951921768 6.454874441145821 -1 0 0
147 1 2.778861791681184 12.790443453948344 2.9041457171399454 0 0 0
151 1 4.168996764612408 14.491322048908353 4.726561192311871 0 0 0
159 1 10.919178527311992 14.254396660129824 4.769943993901749 0 0 0
167 1 17.323597567531575 14.582604845815826 4.892713525009022 0 0 0
170 1 18.996589008086325 16.242805299137515 3.5148148369885557 0 0 0
175 1 23.693469670979837 14.130423369910261 4.902058983814842 0 0 0
496 1 22.27749711080771 15.85107383328649 6.430136059748223 0 0 0
178 1 25.002911548190983 16.12338684140213 3.409875025484783 0 0 0
183 1 30.0483963843723 14.31416192954722 4.669205224488179 0 0 0
191 1 36.864783573827616 14.647838468218376 4.564484795671724 0 0 0
517 1 38.28652176375199 12.716223796890395 6.13624127581281 0 0 0
520 1 41.2530498543295 15.837265980212301 6.420929785439166 0 0 0
199 1 43.006292747071086 14.08409717884574 5.169510594677102 0 0 0
207 1 49.75823150996976 14.41653753030304 4.398030524345259 0 0 0
533 1 50.75139183639803 12.699989107500306 6.47351431443339 0 0 0
211 1 54.33446498324629 12.722783778122173 3.641744915352761 0 0 0
536 1 53.83642854203619 16.059609078810894 6.678273804860628 0 0 0
215 1 55.52616190788019 14.476770969528785 5.384914164271943 0 0 0
150 1 1.1887229771910264 17.717790995848887 4.607028429369412 0 0 0
154 1 6.095492581220116 15.359019331736624 2.950584909756848 0 0 0
158 1 7.56014228019359 17.447046965415513 4.214696269664754 0 0 0
480 1 9.232749737490462 16.162190793775782 6.0761033478561295 0 0 0
166 1 14.213376583734142 17.50882533881728 4.815856765788397 0 0 0
557 1 12.585595706616015 19.32836703675317 6.237153421498566 0 0 0
235 1 15.604098982032962 19.227199206483746 3.3014739939632323 0 0 0
174 1 20.724323413836323 17.577896719890187 5.031789689955323 0 0 0
243 1 22.165379323750496 19.00606654784482 3.1546099061315043 0 0 0
182 1 26.857805166322 17.585745717269994 4.564322014040018 0 0 0
190 1 33.50256565453875 17.6713656103639 4.503080842886939 0 0 0
512 1 35.239788271577325 16.00841802658092 5.998407953879027 0 0 0
198 1 39.52955232135138 17.324567934464497 4.495281276394491 0 0 0
206 1 46.19779786931531 17.574422156339228 4.521464002502924 0 0 0
214 1 52.70876577479233 17.742238922753444 4.79088761928601 0 0 0
541 1 57.171066796748455 18.976610617894973 6.904752900984813 -1 0 0
223 1 4.634074358509481 20.59579347600582 4.670510529100305 0 0 0
227 1 9.306567595498368 19.465072957414282 3.0674424369168967 0 0 0
231 1 10.830151839736816 20.813937942827177 4.896873119246356 0 0 0
234 1 12.49759452371322 21.94959369658762 3.1841052042533637 0 0 0
239 1 17.557608226387178 20.96555996306097 4.830852228454614 0 0 0
242 1 19.049611434286465 22.265267388360634 3.04580679089385 0 0 0
247 1 23.49335778734167 20.98077064679242 4.765053009846959 0 0 0
250 1 25.469378509355685 22.58055290829232 3.58403456279811 0 0 0
255 1 29.96638340800737 20.647312219682842 4.884211972301636 0 0 0
581 1 31.829224474926257 19.124415724448447 6.0292694980183015 0 0 0
584 1 35.01957326863838 22.555381490821603 6.301366145688698 0 0 0
263 1 36.587447181178874 21.100130683171418 4.742416029439145 0 0 0
274 1 44.796060414545785 22.268389736934807 3.3932502060818237 0 0 0
271 1 42.8914070898304 20.631545534275684 4.807157978133743 0 0 0
597 1 44.63683106376559 18.98063522339572 6.086790408526561 0 0 0
279 1 49.40866554284531 20.847038747732334 5.045384625635901 0 0 0
605 1 51.166210017205636 18.936052369852966 6.629274074286842 0 0 0
283 1 54.38814312177552 19.192279087803048 3.415204411910481 0 0 0
287 1 55.936046822896685 20.532657774420468 4.987662784964029 0 0 0
222 1 1.6682563420477048 23.916732791904085 4.651048569605142 0 0 0
290 1 3.0937752734942974 25.550760113654853 3.130056530171733 0 0 0
226 1 6.2120270171921534 22.157514392907338 2.9433316401878002 0 0 0
230 1 7.647560046098657 23.75540654952232 4.411455200693618 0 0 0
552 1 9.340523511532657 22.441184063024455 6.549642776116744 0 0 0
238 1 14.292136497554473 23.806419537879318 4.593943665725943 0 0 0
246 1 20.996151120964285 24.026392432150445 4.507557894965852 0 0 0
254 1 27.205476375106095 24.176691075334524 4.572399151104466 0 0 0
576 1 28.279707692714066 22.345157559257228 6.193161092867572 0 0 0
633 1 31.854730975644628 25.467859115344503 6.3297777578403736 0 0 0
262 1 33.32994877806003 24.010909037663712 4.499338256163294 0 0 0
270 1 39.98459496639973 23.787495159650582 4.800731461719187 0 0 0
278 1 46.40797509641487 24.118317131907187 4.763547819350361 0 0 0
282 1 51.100046101723 21.835755268315328 3.3727344556063543 0 0 0
286 1 52.45776475990182 23.71144892738723 5.03334283463707 0 0 0
613 1 0.21750005923399876 25.766166601622817 6.147783494905203 0 0 0
41 1 31.83339816705227 0.24798488668817947 -0.014611324389782639 0 0 0
292 1 4.5321435569184985 27.115667856594893 4.593744448357039 0 0 0
617 1 5.875476292496776 25.301125755136418 5.8261065309114475 0 0 0
296 1 11.075771571248797 27.468492940986085 4.864981771478635 0 0 0
300 1 17.72296602368057 27.033651228207003 4.418458781518639 0 0 0
302 1 22.43224329230636 25.369557266790427 2.752806576348643 0 0 0
304 1 23.70717845238874 26.86608745543541 4.6860671493973465 0 0 0
629 1 25.73155085270891 25.426860783381414 6.322796142223389 0 0 0
306 1 28.92608945919589 25.748442429167326 3.0295238746034756 0 0 0
381 1 44.62230216132547 0.4593583819225522 6.169071934329875 0 0 0
308 1 30.238073061924833 27.274191830977976 4.796773493874958 0 0 0
312 1 36.38088677165584 27.184200916309077 4.764592163307263 0 0 0
314 1 41.41102147682221 25.541309591167018 3.2638306766120873 0 0 0
316 1 43.14805639247047 27.291536956716453 4.656312275538838 0 0 0
641 1 44.66954484204363 25.773829014581764 6.218378355466051 0 0 0
1080 1 28.492834961466848 9.442369809779795 18.76987234119315 0 0 0
645 1 51.06896027622591 25.514632136789718 6.5797819519524054 0 0 0
320 1 49.58898604481649 27.06209669269612 4.889566698547255 0 0 0
3273 1 50.97230119688601 28.578540333676347 9.7640779449199 0 0 0
324 1 56.09179224446104 27.37019014885028 4.410259338200587 0 0 0
328 1 3.349075472500389 3.4363099460386675 6.2863993089897745 0 0 0
329 1 1.7551952099365937 1.8409291113324264 7.89464890694039 0 0 0
367 1 34.987156263617116 0.0525406720635886 9.62679492906668 0 0 0
337 1 7.985624479428928 1.4220333630600375 7.667955510549305 0 0 0
334 1 6.616252298222688 3.309995467571866 9.319878939414373 0 0 0
956 1 30.191594689511064 26.927317609347536 17.726707221653857 0 0 0
345 1 14.409643886631896 1.593955836282394 7.430003284935257 0 0 0
353 1 20.937459944167816 1.6364912636358933 7.988511176691992 0 0 0
659 1 9.640728111457683 0.14521209499025625 15.709308726194555 0 0 0
361 1 27.321742991338674 1.6734723299587746 7.711284289913498 0 0 0
369 1 33.51992185687644 1.505444670986664 7.883547373021855 0 0 0
377 1 39.66230507885989 1.776040528707929 7.918203853605054 0 0 0
385 1 46.52574648125035 1.9144394939664597 7.802271724832481 0 0 0
390 1 50.98939871341138 3.3296113690903115 9.76297827525468 0 0 0
3261 1 31.914237458882123 28.527359139738515 9.368839179886159 0 0 0
393 1 52.64777498828635 1.6387950214997211 8.113740801117793 0 0 0
326 1 57.04635786347 2.842232546383355 9.524138066443445 -1 0 0
332 1 4.972997689004387 4.897746767974961 7.966935005333496 0 0 0
336 1 9.72768758493162 3.2937738365819436 6.486216009768089 0 0 0
340 1 11.449749806236742 4.670875351470318 7.97169866420404 0 0 0
413 1 12.835669495398335 6.382480841496879 6.6092183668216915 0 0 0
348 1 17.273482928805088 4.8060474152463195 8.140763862278835 0 0 0
415 1 15.830688089842639 6.543720345540887 9.6839229223319 0 0 0
423 1 22.427072516830982 6.0521917216371275 9.885002162258708 0 0 0
356 1 24.13421930896231 4.8263689055477474 8.140687729313388 0 0 0
429 1 25.37601550349353 6.326145343924324 6.165150149351339 0 0 0
364 1 30.656364202271966 4.622647098423819 8.125711997542153 0 0 0
437 1 31.948992556216126 5.932814640352002 6.463352567138727 0 0 0
368 1 34.84162753323038 2.944270244634729 6.120628615623694 0 0 0
439 1 35.24887149988257 6.349620667459518 9.389346666257865 0 0 0
372 1 36.61315461103779 4.658909177423978 7.883246592839312 0 0 0
382 1 44.69712388788422 3.1151002753097146 9.786328505915165 0 0 0
380 1 42.98087700555895 4.615081807283064 8.237333337245577 0 0 0
388 1 49.37980109801958 5.125255423224127 7.971658975259881 0 0 0
396 1 55.74798101938522 4.622100155720496 7.970615896215064 0 0 0
397 1 57.161035578690964 6.428255866847871 6.45552488586974 -1 0 0
401 1 1.7291654746789937 7.843954397478833 8.079105486007881 0 0 0
409 1 7.841505258080185 8.201677550068439 7.767546012087822 0 0 0
417 1 14.467133340558133 8.189261307034052 7.922736843231713 0 0 0
425 1 20.706642001848934 7.568311745669402 8.296183269870445 0 0 0
424 1 22.070896820711365 9.107206807768339 6.572033277035226 0 0 0
433 1 27.018484825016422 7.710348403154366 8.091909186259853 0 0 0
438 1 31.980964488095267 9.307681648933816 9.196492443777208 0 0 0
441 1 33.57609833101438 7.564374952010734 7.7427200319586715 0 0 0
446 1 38.091964711419095 9.298842917686803 9.536201485858516 0 0 0
449 1 39.9742464463684 7.905997597137071 7.8853835695669385 0 0 0
457 1 45.990178033091624 7.937638782210571 8.080743935870064 0 0 0
455 1 47.69169113037029 6.614635072972609 9.59344862687917 0 0 0
463 1 54.28247533960995 6.561500387436102 9.599038736483985 0 0 0
465 1 52.575041095721346 7.947603102297161 7.9659389603666835 0 0 0
464 1 54.18404571730181 9.812019844268816 6.305226268167396 0 0 0
404 1 4.591130450594816 11.47248029215521 7.887461319501331 0 0 0
412 1 10.837681234447256 11.287714824588267 7.63133720309814 0 0 0
485 1 12.856618174862236 12.801539467414704 6.246682257937461 0 0 0
414 1 12.361557904951674 9.771658720805771 9.147580335201344 0 0 0
420 1 17.5659494985342 11.283150665964419 8.21809957783799 0 0 0
493 1 18.7554806895713 12.95432143141534 6.573458710878551 0 0 0
428 1 23.757452458412427 11.049319555077487 7.728275469737675 0 0 0
436 1 29.779926345332317 10.927826138568047 8.01738343712552 0 0 0
440 1 35.098262969734336 9.452560485237418 6.163641721169732 0 0 0
444 1 36.89953365406498 10.83983130305447 7.605970497336666 0 0 0
519 1 41.181807755849825 12.785813429192926 9.401498840846585 0 0 0
452 1 42.95195663197801 11.211968356177007 7.869752013900107 0 0 0
454 1 44.38194990034147 9.83967490657101 9.532914155918416 0 0 0
460 1 48.96781083561207 10.891493295162794 7.916583696127264 0 0 0
468 1 55.589198718020704 11.258081920430078 8.450753653825805 0 0 0
473 1 1.3318216813706798 14.086797773672076 8.147454547426817 0 0 0
471 1 3.0553725753418814 12.750564891592372 9.727753144734795 0 0 0
481 1 7.898984254134641 14.459309132312992 7.818101165801606 0 0 0
479 1 9.30562634418748 12.804817070682768 9.265143775361738 0 0 0
489 1 14.384256287056447 14.419246133249432 7.969883381385858 0 0 0
488 1 15.797166967023418 16.193066913425472 6.484448711934227 0 0 0
494 1 19.199862223711154 16.43220993510663 9.56445586998856 0 0 0
497 1 20.628004650062376 14.339417612634366 8.089720274407798 0 0 0
505 1 26.80987880463455 14.438964002380423 7.658526473500811 0 0 0
513 1 33.302929969763774 14.48051779101611 7.60556271400746 0 0 0
521 1 39.57288326351133 14.261001223952189 7.985422294319811 0 0 0
529 1 46.10327160941614 14.457080315546397 8.063926176186081 0 0 0
537 1 52.14801539603395 14.236731467713335 8.023316406847867 0 0 0
472 1 2.5253524624523163 15.610127238020366 6.221011168162265 0 0 0
476 1 4.478431180615322 17.347076367343448 7.95546766387714 0 0 0
484 1 11.15803028768533 17.491621314287034 7.662515424600478 0 0 0
492 1 17.301330160583337 17.754691962768938 7.8369704113699274 0 0 0
565 1 19.165932029571973 19.32939016024106 6.524922274887649 0 0 0
500 1 23.798083460270867 17.49767646627698 7.923431230872067 0 0 0
567 1 22.2669831728163 19.12523114444947 9.72892997759564 0 0 0
502 1 25.193927624191755 15.760098385366014 9.34090868025363 0 0 0
573 1 25.36116607405908 19.189329150348545 6.259279768742754 0 0 0
504 1 28.618655963522876 16.078057750330764 6.191048150874723 0 0 0
508 1 30.47024598370994 17.408261126387586 7.709819812966219 0 0 0
510 1 31.739396945655315 15.752280804571125 9.359479960983922 0 0 0
589 1 38.09721584934015 19.271985987478644 6.074618172836739 0 0 0
516 1 36.62552195288985 17.745812959991305 7.747085113265018 0 0 0
518 1 38.08346618083482 16.064731714458585 9.340500175097759 0 0 0
524 1 42.91187709790263 17.59521497959904 7.901311247499349 0 0 0
528 1 48.00920390482508 15.892459425033637 6.124793639838726 0 0 0
532 1 49.803893840315865 17.07563122138641 8.050792572559777 0 0 0
540 1 55.565026789849675 17.397399166782854 8.360055947699985 0 0 0
545 1 1.757340118401977 20.703179448443823 8.20867129335793 0 0 0
543 1 3.307252922299816 19.18336978326534 9.542184896262489 0 0 0
549 1 5.91115974612768 19.02515705104781 6.207246684879809 0 0 0
553 1 7.740179786468264 20.41392135598387 7.741083943981894 0 0 0
561 1 14.442502654621581 20.463006188058447 7.653917365967776 0 0 0
560 1 15.823445260236866 22.28114590553494 6.0912310872807005 0 0 0
569 1 20.673443352102495 20.599557034981636 8.174200066593682 0 0 0
566 1 18.98798452366761 22.326823472732784 9.508783457292767 0 0 0
574 1 25.423806877921663 22.248567490247805 9.604079176686108 0 0 0