LAMMPS data file via write_data, version 29 Oct 2020, timestep = 0

11664 atoms
1 atom types

-0.024949447635329136 113.75513352865312 xlo xhi
-0.024949447635329136 57.2954594476322 ylo yhi
-0.024949447635329136 57.2954594476322 zlo zhi

Masses

1 18.015

Atoms # atomic

5 1 1.1372594785157422 1.6123666903753187 1.5655039323977753 0 0 0
13 1 7.920356842924932 1.4831073555038627 1.6018238915534184 0 0 0
21 1 14.274000514703108 1.7823077963161955 1.4224235941633339 0 0 0
18 1 12.977438826744816 3.1239553833574703 3.3369579713200954 0 0 0
293 1 5.986994358138658 25.355172044759154 0.027382578777007893 0 0 0
26 1 18.735563738476085 3.0105079159069357 3.110843332347296 0 0 0
29 1 20.412322468778694 1.612974246356937 1.6110404027459395 0 0 0
37 1 27.07950312473486 1.3670915773163983 1.326926046264226 0 0 0
45 1 33.341439480410244 1.4578698027170098 1.6936495110104128 0 0 0
301 1 18.8632114463105 25.512374356470744 0.11287962028352894 0 0 0
172 1 22.002603182351653 15.607683967101154 -0.018761504406761276 0 0 0
36 1 28.517961746796587 2.90562178392521 0.006701795683440537 0 0 0
309 1 31.80947955475912 25.768586943290284 -0.015190619253154125 0 0 0
17 1 12.397426426935425 0.28719794141843635 0.14300903623857408 0 0 0
1149 1 25.4407528748754 12.856387501094384 19.057357048951687 0 0 0
1120 1 3.079705009935952 15.735871814456255 19.062381808726844 0 0 0
1273 1 18.83225841592463 25.218386253554762 19.07164773724882 0 0 0
8 1 4.407788863286588 4.688271389483785 1.654214076256885 0 0 0
10 1 6.27034980718546 3.3705192707627827 3.1560911563593614 0 0 0
16 1 11.400695328468476 4.729757265174786 1.8187615836378515 0 0 0
83 1 9.855771424762517 6.451532002760735 3.3510215685169507 0 0 0
24 1 17.359091667426757 4.730777074259369 1.6061742643610109 0 0 0
1125 1 6.3071313543566685 12.548776409280165 18.925293268609458 0 0 0
32 1 23.909723933877633 4.620281176057163 1.7123436657848046 0 0 0
34 1 25.295849297767433 2.8293638025513026 2.9952509679811294 0 0 0
107 1 28.81572502650395 6.0885870675586835 3.2082961107096564 0 0 0
984 1 9.775907732315343 3.318185623108817 18.933430604124226 0 0 0
40 1 30.363648975801933 4.705741454865874 1.2024207185173403 0 0 0
48 1 36.62722958205212 4.828143062900902 1.2416752825441197 0 0 0
244 1 21.99901219744008 22.104471677937152 0.33828875150165394 0 0 0
1000 1 22.007608431540813 2.932701356221535 18.8594734847455 0 0 0
84 1 9.468540688034624 9.556498938008728 0.08184599211185614 0 0 0
1128 1 9.311651048353735 15.934613010820613 18.960031563894187 0 0 0
2925 1 12.702178227156548 28.59756687981356 3.0331347430901845 0 0 0
19 1 15.729136754469156 0.0792150925902746 2.927167934192681 0 0 0
1213 1 18.875440086762094 18.927831793721545 19.029313248082055 0 0 0
77 1 1.367421996633298 7.845500906694642 1.9150118619835435 0 0 0
85 1 7.946621120166403 7.6744795510449695 1.419784091606839 0 0 0
82 1 6.526277877697236 9.381482031177484 3.1062591873908767 0 0 0
1152 1 28.625052323139823 15.848123082526305 18.85328338258461 0 0 0
93 1 14.394653877460557 7.826499022622229 1.7618818022026164 0 0 0
90 1 12.787070895204483 9.870078417257185 3.296371548306421 0 0 0
3254 1 21.98229915041126 28.38623488903919 6.657287046892656 0 0 0
101 1 20.959339780388145 7.7553764550733 1.4774651714856937 0 0 0
98 1 19.424838686489927 9.628333937492323 3.360447743708515 0 0 0
99 1 22.2031476777674 6.110072613734054 3.210211045321035 0 0 0
109 1 27.400307994265525 8.153006505083878 1.6442732190021923 0 0 0
117 1 33.64022394474053 8.269474866195395 1.923424908691652 0 0 0
1232 1 35.445885096050944 22.244346649600534 19.023252517160785 0 0 0
1064 1 15.884663413314318 9.688170589932904 18.954506971015952 0 0 0
1160 1 35.13065850360029 15.757283267285953 19.02295595482572 0 0 0
349 1 19.265614803772497 0.03863981121093846 6.3651481065982525 0 0 0
1224 1 28.302829781804945 22.23159818867616 19.03186916995513 0 0 0
1136 1 15.81966045393543 16.048245387769477 18.69416124464451 0 0 0
3570 1 9.238929330698427 28.58681158921824 12.325133433098927 0 0 0
1133 1 12.483319172075692 12.496173145688308 18.53262889659078 0 0 0
1221 1 25.109657199164346 19.092604811769885 18.879403391442988 0 0 0
1277 1 25.70586793083084 25.294540193751423 18.59344699863956 0 0 0
1157 1 31.839977424012698 12.649049079039589 19.072040228182118 0 0 0
80 1 4.7686370698580305 10.967769340467484 1.6261382124295385 0 0 0
88 1 11.208365283757985 11.119550169955863 1.44565210008313 0 0 0
155 1 9.661899403681515 12.648255572382382 3.1358573334497857 0 0 0
260 1 34.5450927746387 22.50018452039411 0.17605815446529632 0 0 0
1056 1 9.49007787451607 9.105410704984065 18.98979219620223 0 0 0
96 1 17.49744705017661 10.80701220740864 1.4261473270203266 0 0 0
104 1 23.966319357876053 11.416441021040596 1.7150982737430402 0 0 0
171 1 21.918691222361705 12.696908038869417 3.6463052299185024 0 0 0
1144 1 22.188149268974616 16.101203734656877 18.663500822410676 0 0 0
112 1 30.27814308315545 11.253678392232402 1.8637579186469326 0 0 0
187 1 35.220143602712845 12.710851222475126 3.648709808264575 0 0 0
120 1 36.641688396962124 11.144029713463025 1.844082746848792 0 0 0
838 1 33.71802375545616 17.526850276388902 17.501504699316577 0 0 0
188 1 34.811948696918435 16.048368599869118 0.3573049385649403 0 0 0
878 1 8.164855816537992 23.64538343327923 17.133455516152797 0 0 0
830 1 27.08700906947808 17.721091227095588 17.30752002895365 0 0 0
826 1 25.486031977904382 16.092663841653486 15.834358177319844 0 0 0
149 1 1.235185807205583 14.495493979390853 1.3938501563518446 0 0 0
157 1 7.946419705708568 14.013195035411364 1.453271180492809 0 0 0
177 1 25.614767434572073 13.172236034337539 0.07523939592461458 0 0 0
165 1 14.333891131129528 14.186059089020073 1.2909617621412408 0 0 0
162 1 12.476273606568322 15.897813542313893 3.417393455175922 0 0 0
942 1 9.773650596206199 25.2348935467549 15.495508964185525 0 0 0
173 1 20.24591215835717 14.270916371420238 1.8296238109652099 0 0 0
822 1 20.459195437672378 17.609301892551795 17.258526326209168 0 0 0
359 1 28.823645501418042 0.08695957752915988 9.865520893917092 0 0 0
181 1 27.065248857568477 14.821689903805995 1.517448760887303 0 0 0
179 1 28.375226590734126 12.789278130846265 2.8907201018229793 0 0 0
3566 1 3.2555412157646115 28.431846035077047 12.562880794089 0 0 0
189 1 33.52826638572028 14.206402817696473 2.0310980761230635 0 0 0
814 1 14.118602375149038 17.67062449155816 17.18147113097945 0 0 0
806 1 7.691957094561658 17.375000183042914 17.45959058285851 0 0 0
802 1 5.972989634380346 15.849412217538795 15.720570569238815 0 0 0
867 1 2.6574372368494523 19.071261686880934 16.059968837039634 0 0 0
798 1 1.3618391995006227 17.491635491693327 17.41646253334631 0 0 0
886 1 14.330732231683745 23.939079645010104 17.32147542061248 0 0 0
152 1 4.7309869664014075 17.249746388478986 1.6986379722436051 0 0 0
882 1 12.740196751127334 22.321792346450348 15.87842960728178 0 0 0
160 1 11.042223306992597 17.631034643897177 1.5603027878429796 0 0 0
343 1 15.884705645995119 0.11171997696866498 9.161406972410845 0 0 0
168 1 17.211453652059845 17.48676694545878 1.6905597801166132 0 0 0
3586 1 34.971041396997876 28.5902474533021 12.78953319074605 0 0 0
894 1 20.635772867846057 24.077832253109634 17.67517913305146 0 0 0
176 1 23.62607910853388 17.464757823997264 1.1143905712253177 0 0 0
839 1 36.42058894388327 14.157187627288792 17.312628870996683 0 0 0
184 1 30.027222301044148 17.63118627933241 1.7419604753145543 0 0 0
186 1 31.67955502856487 15.889640464859983 3.1628100092413627 0 0 0
259 1 34.8333334288457 19.605577860619544 3.042026101742294 0 0 0
192 1 36.337525024385634 17.839054519908323 1.4709739793842465 0 0 0
835 1 34.59466976725768 12.750032271670902 15.970092447005438 0 0 0
831 1 30.449525756604025 14.173335700328714 17.396733280331762 0 0 0
871 1 4.660264898646366 20.36861533125872 17.888330372921338 0 0 0
823 1 24.15049745435125 14.263347818808446 17.38377514190616 0 0 0
815 1 17.26691389896807 14.205262138787536 17.574004020189253 0 0 0
810 1 12.226269343142343 16.111001834284224 15.62174957634271 0 0 0
221 1 1.130646570567699 20.430469855886386 1.627488059898415 0 0 0
807 1 10.875102273443046 14.266084985950526 17.220301097418535 0 0 0
219 1 3.1477312464448897 18.86848508050177 3.0941020989610224 0 0 0
229 1 7.960217376943947 20.904876691211154 1.3352362706559981 0 0 0
237 1 14.161880890786714 20.643743607704383 1.2597876417964955 0 0 0
803 1 9.60731323261793 12.339300999131467 15.764178094076712 0 0 0
245 1 20.197393248303747 20.370550024615248 1.703504717185885 0 0 0
799 1 4.72107248883149 14.05147891379305 17.593225932286387 0 0 0
253 1 27.04844020423801 21.19553119164576 1.4160977673501118 0 0 0
251 1 28.240370755635457 19.32382758258302 3.0288960376636473 0 0 0
261 1 33.02352034703294 20.738140131745297 1.4226090903701836 0 0 0
890 1 18.82116759452209 22.71855894436706 15.877103539570045 0 0 0
766 1 33.442155854711515 10.656970707441113 17.267791142783846 0 0 0
827 1 28.86543401638313 12.81147588643849 15.638858631446737 0 0 0
758 1 27.111491309745094 11.170903873583 17.25064068862452 0 0 0
819 1 22.37839395001539 12.875998397366452 16.09935447858893 0 0 0
750 1 20.735548070415962 11.062565929782023 17.45537811128082 0 0 0
76 1 2.7719897788578995 9.611380663039307 0.17746746642875041 0 0 0
224 1 4.343475696781874 23.45357231196047 1.3969670814423247 0 0 0
746 1 18.890368351593583 9.66792761474914 15.924197437225438 0 0 0
232 1 11.017903968813261 23.61201350142465 1.6128716236642562 0 0 0
294 1 9.368053890370915 25.6371028539903 3.0149792297363045 0 0 0
357 1 25.721960120404436 -0.021215868079181632 6.062347125554475 0 0 0
240 1 17.33987881681105 23.94143728857249 1.6855432595305613 0 0 0
298 1 15.76872130015279 25.832140630558722 3.205648047637816 0 0 0
100 1 22.601180953519684 9.537245107849635 0.1028610397349834 0 0 0
248 1 24.011873544671385 23.821133654561432 1.2418343774820026 0 0 0
256 1 30.377460842557003 24.14193181443747 1.4757197709382046 0 0 0
258 1 31.632701033429566 22.197356644271824 3.2314096210908345 0 0 0
264 1 36.68661890103988 24.051156150387623 1.5296218819988818 0 0 0
742 1 14.343137929722017 11.167722995755204 17.401865659848987 0 0 0
657 1 6.5513540085279915 -0.01995456553549957 12.852992737032658 0 0 0
738 1 12.846318890901923 9.721305360593638 15.988991908021738 0 0 0
44 1 34.35459571326701 3.5071709583010446 0.15971773548433646 0 0 0
902 1 27.480028813810062 23.47538018587752 16.90844269188872 0 0 0
3245 1 6.096651709804187 28.316754381970085 9.138684915908586 0 0 0
291 1 1.417192707609271 27.199614787391436 1.596301594318369 0 0 0
295 1 7.9261955659755365 27.112183509232242 1.1590768987603328 0 0 0
734 1 8.108948715513732 11.110994713554145 17.564039458198874 0 0 0
730 1 6.508153951732957 9.532384454374778 15.785026401134564 0 0 0
299 1 14.205446562465198 27.096462888862813 1.4399372953552199 0 0 0
726 1 1.5479809146902295 10.938638380238526 17.541782222640297 0 0 0
303 1 20.633270223263423 27.03236901074972 1.2370335690810617 0 0 0
906 1 32.150922909878524 22.389928467194846 16.17602200324067 0 0 0
307 1 26.893759122217705 27.31473739777903 1.8380872909166566 0 0 0
3249 1 12.929450491162813 28.508919501800825 9.040209609588485 0 0 0
311 1 33.14876816305075 27.395512674060473 1.4561068088195472 0 0 0
310 1 34.922964621964006 25.775124352488454 3.0550522048633533 0 0 0
1072 1 22.33883324286946 9.436473628062634 19.05865542793394 0 0 0
113 1 32.0755820202777 6.707700557667257 0.24391750611652296 0 0 0
767 1 36.56064451786057 7.950036987693342 17.629565418007616 0 0 0
763 1 35.002967989911284 6.061904555131507 16.033213803646657 0 0 0
759 1 29.96151643193264 7.627797928981076 17.43085575896042 0 0 0
755 1 28.341335960329467 5.9827414245643915 16.01759589066805 0 0 0
754 1 25.321015535857548 9.530720126355469 15.884790930196985 0 0 0
327 1 3.363730296125702 0.1511241695732295 9.417957603468075 0 0 0
7 1 4.848809440942438 1.8241089800108972 4.682322815588901 0 0 0
981 1 6.543914162595769 0.06102684634889499 18.767089567333453 0 0 0
15 1 11.070303005804426 1.3992836279463188 4.960472545479462 0 0 0
23 1 17.492017426009955 1.4669349540655898 4.6457854327655355 0 0 0
344 1 16.375931182438247 2.9574884397072863 6.3287811524345186 0 0 0
352 1 22.510565859300538 3.0338781146060896 6.289384118105114 0 0 0
169 1 18.651384132019263 12.764411161207706 0.17326173214931334 0 0 0
31 1 23.864435289214732 1.3386473334939466 4.587370124209652 0 0 0
360 1 28.785928921056104 3.088612304239241 6.084115969415035 0 0 0
751 1 23.736313726312133 7.766188274647405 17.269055620867352 0 0 0
39 1 30.34115343347236 1.6707039570629592 4.620602163255325 0 0 0
960 1 37.00404861329339 27.11683464253434 17.54889194713955 0 0 0
236 1 15.753282714775306 22.387541301892202 0.14053323930546716 0 0 0
47 1 36.64092689829191 1.4489991232395976 4.6106073116475965 0 0 0
747 1 22.008554856164192 6.216853568496288 15.89692633013056 0 0 0
743 1 17.573927348426295 7.7808976394799245 17.585560919666914 0 0 0
12 1 9.366312292388933 3.640771736630201 0.3890781358778389 0 0 0
739 1 15.975473527152705 6.585676105212392 15.81162407707275 0 0 0
735 1 11.380930989063986 7.845575073320164 17.520818703709736 0 0 0
874 1 6.394085357113659 21.944644984421757 15.935548190238269 0 0 0
727 1 4.99177426239699 8.079948746797664 17.471384825203938 0 0 0
6 1 1.3789001130465326 4.974487599520597 4.721330842572406 0 0 0
75 1 3.2436015302214285 6.537128852768783 3.237934833702016 0 0 0
14 1 8.026908765995936 4.894278122002659 4.589767842046086 0 0 0
22 1 14.470129510681117 4.649512328028251 5.03965698176966 0 0 0
91 1 16.170682318898066 6.273483462207396 3.4466727686405814 0 0 0
30 1 20.444603999727633 4.5743396572281645 4.908048961159449 0 0 0
38 1 27.15123265998723 4.6888654032279184 4.676910108882616 0 0 0
42 1 31.962987423724908 3.2416971148465588 3.1951523151828436 0 0 0
46 1 33.70997412332541 4.615041290174864 4.5311768533253165 0 0 0
1053 1 6.370544240489772 6.239763531721773 18.926592273911016 0 0 0
879 1 10.38015363831536 21.01123764108073 17.25550810420894 0 0 0
694 1 33.297197981294275 4.410798827803834 17.658244057911926 0 0 0
3585 1 31.848563517834 28.466540682235095 16.02292262742715 0 0 0
686 1 26.96790213346689 4.580263632082366 17.863958935022175 0 0 0
682 1 25.831908244843092 3.057858436602293 15.957649946557328 0 0 0
79 1 4.7220330438828135 8.217295143264977 4.7015044264187225 0 0 0
405 1 6.4072703165940545 6.485962548211646 6.129374957957996 0 0 0
87 1 11.377431348238256 8.180742536603484 4.820317860252889 0 0 0
408 1 9.383108854597687 9.668576626537641 6.120264433002988 0 0 0
95 1 17.850742644742933 7.777971820588398 4.984833071583125 0 0 0
421 1 19.166612735445504 6.164768229137482 6.887047975942568 0 0 0
103 1 23.983569913852303 7.82055629439344 4.572857656984444 0 0 0
106 1 25.601135318462248 9.74762490283066 2.9955650441084005 0 0 0
432 1 28.45301781697706 9.140041810781526 6.317284212800613 0 0 0
111 1 30.29765122223121 7.574070203211144 4.737465258238978 0 0 0
115 1 35.28807091684593 6.134335786810745 2.965102798507686 0 0 0
678 1 20.682235941475952 4.855602393668487 17.651727193792095 0 0 0
119 1 36.695715495395206 7.688906343321974 4.666229058914098 0 0 0
670 1 14.56701121557855 4.7597094196835865 17.36129055722007 0 0 0
662 1 7.978136961142079 4.56907510909897 17.432325412434924 0 0 0
658 1 6.34467817164563 3.030612382830989 15.87924992280405 0 0 0
654 1 1.952063533155023 4.509840135316331 17.444214376022742 0 0 0
887 1 17.455633760905737 20.57299555622216 17.381130882180962 0 0 0
78 1 1.6552416876986769 11.180993298279228 4.8717577350082655 0 0 0
400 1 3.1223169877988064 9.521911480727837 6.383600665520209 0 0 0
86 1 7.695594745478103 11.271513463442426 4.742748897910741 0 0 0
477 1 5.843245336828182 13.280426691612446 6.299230308987414 0 0 0
94 1 14.626884701470994 11.397963621917425 4.796037708862129 0 0 0
163 1 16.13140461906392 12.732859962527499 3.0160603673433073 0 0 0
416 1 16.03503878651942 9.763378390638577 6.315125080390867 0 0 0
102 1 20.46133364385561 11.125479575102174 5.4123181139541945 0 0 0
501 1 25.52318459526536 12.453990961429373 6.162042952155662 0 0 0
110 1 27.3005946343093 10.953058227365325 4.647043629112828 0 0 0
114 1 31.761573488408427 9.53498161159273 3.3342930342092365 0 0 0
509 1 31.346060762892968 12.659079558206138 6.507742014693149 0 0 0
118 1 33.21932075130293 11.266261118428925 5.13550033063557 0 0 0
891 1 22.125286201048574 19.151522842353167 15.651275210733099 0 0 0
695 1 36.564917740730735 1.3724044019040904 17.50952977509894 0 0 0
910 1 33.802765476536536 24.044176890530498 17.402651539836015 0 0 0
687 1 30.53261554836992 1.233600950575391 18.231493315161092 0 0 0
679 1 23.80535766358008 1.609784331434276 17.21219800494155 0 0 0
674 1 19.449690563796462 3.3208174582189427 15.693831483978897 0 0 0
671 1 17.744538597820632 1.4306962411930295 17.076606042735943 0 0 0
663 1 11.32161904713613 1.5342654316259141 17.391752476701893 0 0 0
655 1 4.787487283940197 1.2491300847492839 17.196984565862802 0 0 0
147 1 2.778861791681184 12.790443453948344 2.9041457171399454 0 0 0
151 1 4.168996764612408 14.491322048908353 4.726561192311871 0 0 0
159 1 10.919178527311992 14.254396660129824 4.769943993901749 0 0 0
167 1 17.323597567531575 14.582604845815826 4.892713525009022 0 0 0
170 1 18.996589008086325 16.242805299137515 3.5148148369885557 0 0 0
175 1 23.693469670979837 14.130423369910261 4.902058983814842 0 0 0
496 1 22.27749711080771 15.85107383328649 6.430136059748223 0 0 0
178 1 25.002911548190983 16.12338684140213 3.409875025484783 0 0 0
183 1 30.0483963843723 14.31416192954722 4.669205224488179 0 0 0
191 1 36.864783573827616 14.647838468218376 4.564484795671724 0 0 0
1205 1 12.440336007352146 19.318563465920377 18.453669132039114 0 0 0
940 1 4.713574335953645 27.068400778163625 17.488628987441377 0 0 0
959 1 33.320880426085544 27.12942729069969 14.241287348646116 0 0 0
954 1 28.867086938731635 25.599146260881913 15.605843141186622 0 0 0
955 1 27.05225814949707 26.848932554496578 13.968332994490083 0 0 0
951 1 20.397321315066186 27.055800548619434 14.638454896309723 0 0 0
946 1 15.466051924484457 25.954987318431943 16.038130647849837 0 0 0
947 1 14.100465296163186 26.968401073243733 13.971392442313766 0 0 0
150 1 1.1887229771910264 17.717790995848887 4.607028429369412 0 0 0
154 1 6.095492581220116 15.359019331736624 2.950584909756848 0 0 0
158 1 7.56014228019359 17.447046965415513 4.214696269664754 0 0 0
480 1 9.232749737490462 16.162190793775782 6.0761033478561295 0 0 0
166 1 14.213376583734142 17.50882533881728 4.815856765788397 0 0 0
557 1 12.585595706616015 19.32836703675317 6.237153421498566 0 0 0
235 1 15.604098982032962 19.227199206483746 3.3014739939632323 0 0 0
174 1 20.724323413836323 17.577896719890187 5.031789689955323 0 0 0
243 1 22.165379323750496 19.00606654784482 3.1546099061315043 0 0 0
182 1 26.857805166322 17.585745717269994 4.564322014040018 0 0 0
190 1 33.50256565453875 17.6713656103639 4.503080842886939 0 0 0
512 1 35.239788271577325 16.00841802658092 5.998407953879027 0 0 0
945 1 12.77973701012197 25.589767065108873 12.152182958464207 0 0 0
943 1 7.867289431940927 26.884962665175497 14.106352932012147 0 0 0
941 1 6.099233555802215 25.37871511239553 12.771015030463625 0 0 0
939 1 1.8721168719531158 27.167631318312058 14.241364272456298 0 0 0
223 1 4.634074358509481 20.59579347600582 4.670510529100305 0 0 0
227 1 9.306567595498368 19.465072957414282 3.0674424369168967 0 0 0
231 1 10.830151839736816 20.813937942827177 4.896873119246356 0 0 0
234 1 12.49759452371322 21.94959369658762 3.1841052042533637 0 0 0
239 1 17.557608226387178 20.96555996306097 4.830852228454614 0 0 0
242 1 19.049611434286465 22.265267388360634 3.04580679089385 0 0 0
247 1 23.49335778734167 20.98077064679242 4.765053009846959 0 0 0
250 1 25.469378509355685 22.58055290829232 3.58403456279811 0 0 0
255 1 29.96638340800737 20.647312219682842 4.884211972301636 0 0 0
581 1 31.829224474926257 19.124415724448447 6.0292694980183015 0 0 0
584 1 35.01957326863838 22.555381490821603 6.301366145688698 0 0 0
263 1 36.587447181178874 21.100130683171418 4.742416029439145 0 0 0
912 1 36.832790578680736 23.8944201567735 14.465417603763854 0 0 0
958 1 35.38357593949967 25.817036855784668 15.832661043458732 0 0 0
957 1 32.250940690052616 25.258526253470723 12.692166311418609 0 0 0
904 1 30.414886951049414 23.842198038679218 14.25398342541641 0 0 0
900 1 28.72217680944498 22.099047796042036 12.45003818760325 0 0 0
896 1 23.642902379621514 23.86011659172817 14.379192390896637 0 0 0
950 1 22.153135996839282 25.307072260621595 15.864811133352688 0 0 0
222 1 1.6682563420477048 23.916732791904085 4.651048569605142 0 0 0
290 1 3.0937752734942974 25.550760113654853 3.130056530171733 0 0 0
226 1 6.2120270171921534 22.157514392907338 2.9433316401878002 0 0 0
230 1 7.647560046098657 23.75540654952232 4.411455200693618 0 0 0
552 1 9.340523511532657 22.441184063024455 6.549642776116744 0 0 0
238 1 14.292136497554473 23.806419537879318 4.593943665725943 0 0 0
246 1 20.996151120964285 24.026392432150445 4.507557894965852 0 0 0
254 1 27.205476375106095 24.176691075334524 4.572399151104466 0 0 0
576 1 28.279707692714066 22.345157559257228 6.193161092867572 0 0 0
633 1 31.854730975644628 25.467859115344503 6.3297777578403736 0 0 0
262 1 33.32994877806003 24.010909037663712 4.499338256163294 0 0 0
888 1 17.187313048386915 24.263368717910723 14.683176407051572 0 0 0
880 1 11.302251313748245 23.84252503912956 13.928387739633312 0 0 0
876 1 9.43444990141657 22.263025451922914 12.527998049326847 0 0 0
938 1 3.2493525154379124 25.595049921221868 15.926336639259635 0 0 0
613 1 0.21750005923399876 25.766166601622817 6.147783494905203 0 0 0
41 1 31.83339816705227 0.24798488668817947 -0.014611324389782639 0 0 0
292 1 4.5321435569184985 27.115667856594893 4.593744448357039 0 0 0
617 1 5.875476292496776 25.301125755136418 5.8261065309114475 0 0 0
296 1 11.075771571248797 27.468492940986085 4.864981771478635 0 0 0
300 1 17.72296602368057 27.033651228207003 4.418458781518639 0 0 0
302 1 22.43224329230636 25.369557266790427 2.752806576348643 0 0 0
304 1 23.70717845238874 26.86608745543541 4.6860671493973465 0 0 0
629 1 25.73155085270891 25.426860783381414 6.322796142223389 0 0 0
306 1 28.92608945919589 25.748442429167326 3.0295238746034756 0 0 0
872 1 4.705987344129128 23.55006819625048 14.432220928922218 0 0 0
308 1 30.238073061924833 27.274191830977976 4.796773493874958 0 0 0
312 1 36.38088677165584 27.184200916309077 4.764592163307263 0 0 0
868 1 2.803912624765083 22.592081669531648 12.888560199696709 0 0 0
865 1 0.03658146194622719 19.272610666602347 12.729008395070373 0 0 0
907 1 35.125346091181825 18.991715954640853 15.558308177629476 0 0 0
1080 1 28.492834961466848 9.442369809779795 18.76987234119315 0 0 0
909 1 33.40506364408468 20.70157264625885 14.34976405746412 0 0 0
899 1 28.867806986362538 18.982679900366737 15.9721767475276 0 0 0
901 1 27.324328019604486 20.33451767661891 14.026103132553594 0 0 0
893 1 20.517993446983393 20.97481261421359 14.277188152427419 0 0 0
328 1 3.349075472500389 3.4363099460386675 6.2863993089897745 0 0 0
329 1 1.7551952099365937 1.8409291113324264 7.89464890694039 0 0 0
367 1 34.987156263617116 0.0525406720635886 9.62679492906668 0 0 0
337 1 7.985624479428928 1.4220333630600375 7.667955510549305 0 0 0
334 1 6.616252298222688 3.309995467571866 9.319878939414373 0 0 0
956 1 30.191594689511064 26.927317609347536 17.726707221653857 0 0 0
345 1 14.409643886631896 1.593955836282394 7.430003284935257 0 0 0
353 1 20.937459944167816 1.6364912636358933 7.988511176691992 0 0 0
659 1 9.640728111457683 0.14521209499025625 15.709308726194555 0 0 0
361 1 27.321742991338674 1.6734723299587746 7.711284289913498 0 0 0
369 1 33.51992185687644 1.505444670986664 7.883547373021855 0 0 0
885 1 14.40863771899315 20.924420235793693 14.079719645439233 0 0 0
881 1 12.406051506524625 19.56833978930007 12.37497647169921 0 0 0
875 1 9.071031134147256 19.14776139521173 15.84796362915489 0 0 0
3261 1 31.914237458882123 28.527359139738515 9.368839179886159 0 0 0
877 1 7.64894427263475 20.747660541386132 14.194539554778887 0 0 0
869 1 1.3900276016743054 20.990453244327483 14.425598803948969 0 0 0
332 1 4.972997689004387 4.897746767974961 7.966935005333496 0 0 0
336 1 9.72768758493162 3.2937738365819436 6.486216009768089 0 0 0
340 1 11.449749806236742 4.670875351470318 7.97169866420404 0 0 0
413 1 12.835669495398335 6.382480841496879 6.6092183668216915 0 0 0
348 1 17.273482928805088 4.8060474152463195 8.140763862278835 0 0 0
415 1 15.830688089842639 6.543720345540887 9.6839229223319 0 0 0
423 1 22.427072516830982 6.0521917216371275 9.885002162258708 0 0 0
356 1 24.13421930896231 4.8263689055477474 8.140687729313388 0 0 0
429 1 25.37601550349353 6.326145343924324 6.165150149351339 0 0 0
364 1 30.656364202271966 4.622647098423819 8.125711997542153 0 0 0
437 1 31.948992556216126 5.932814640352002 6.463352567138727 0 0 0
368 1 34.84162753323038 2.944270244634729 6.120628615623694 0 0 0
439 1 35.24887149988257 6.349620667459518 9.389346666257865 0 0 0
372 1 36.61315461103779 4.658909177423978 7.883246592839312 0 0 0
840 1 36.586774326089355 17.181496177031516 14.212398525782811 0 0 0
905 1 31.907563256321662 19.001027790964677 12.357577792963646 0 0 0
832 1 30.384566863648235 17.43224272687963 13.982489402599171 0 0 0
824 1 23.807728185040503 17.62254496634567 14.264784144602308 0 0 0
820 1 22.501213597457216 15.720884621573644 12.726944578390167 0 0 0
401 1 1.7291654746789937 7.843954397478833 8.079105486007881 0 0 0
409 1 7.841505258080185 8.201677550068439 7.767546012087822 0 0 0
417 1 14.467133340558133 8.189261307034052 7.922736843231713 0 0 0
425 1 20.706642001848934 7.568311745669402 8.296183269870445 0 0 0
424 1 22.070896820711365 9.107206807768339 6.572033277035226 0 0 0
433 1 27.018484825016422 7.710348403154366 8.091909186259853 0 0 0
438 1 31.980964488095267 9.307681648933816 9.196492443777208 0 0 0
441 1 33.57609833101438 7.564374952010734 7.7427200319586715 0 0 0
883 1 16.107135287460526 19.223140391008478 15.330037317315815 0 0 0
816 1 17.64629988562353 17.074267543396203 14.19821927958423 0 0 0
808 1 10.603454137837037 17.60606014515591 14.039896639953 0 0 0
804 1 9.353258357853576 15.78885007217469 12.845081790661625 0 0 0
800 1 4.369034017109837 17.403812783731308 14.372732226333168 0 0 0
837 1 33.27940757086103 14.206264751962232 14.125337642436774 0 0 0
834 1 31.992924251108896 15.826026499002849 15.907403778011558 0 0 0
404 1 4.591130450594816 11.47248029215521 7.887461319501331 0 0 0
412 1 10.837681234447256 11.287714824588267 7.63133720309814 0 0 0
485 1 12.856618174862236 12.801539467414704 6.246682257937461 0 0 0
414 1 12.361557904951674 9.771658720805771 9.147580335201344 0 0 0
420 1 17.5659494985342 11.283150665964419 8.21809957783799 0 0 0
493 1 18.7554806895713 12.95432143141534 6.573458710878551 0 0 0
428 1 23.757452458412427 11.049319555077487 7.728275469737675 0 0 0
436 1 29.779926345332317 10.927826138568047 8.01738343712552 0 0 0
440 1 35.098262969734336 9.452560485237418 6.163641721169732 0 0 0
444 1 36.89953365406498 10.83983130305447 7.605970497336666 0 0 0
833 1 31.748372221128136 12.219386450665509 12.76820522164215 0 0 0
828 1 28.80070081992545 15.894239472002702 12.421644689870682 0 0 0
829 1 27.200847219153992 14.555305205107981 14.189534522876384 0 0 0
825 1 25.232313432477728 12.90258869784965 12.748503114577098 0 0 0
818 1 19.252206257758814 15.397882671689457 16.035707104474763 0 0 0
473 1 1.3318216813706798 14.086797773672076 8.147454547426817 0 0 0
471 1 3.0553725753418814 12.750564891592372 9.727753144734795 0 0 0
481 1 7.898984254134641 14.459309132312992 7.818101165801606 0 0 0
479 1 9.30562634418748 12.804817070682768 9.265143775361738 0 0 0
489 1 14.384256287056447 14.419246133249432 7.969883381385858 0 0 0
488 1 15.797166967023418 16.193066913425472 6.484448711934227 0 0 0
494 1 19.199862223711154 16.43220993510663 9.56445586998856 0 0 0
497 1 20.628004650062376 14.339417612634366 8.089720274407798 0 0 0
505 1 26.80987880463455 14.438964002380423 7.658526473500811 0 0 0
513 1 33.302929969763774 14.48051779101611 7.60556271400746 0 0 0
821 1 20.827086670299302 13.825457877255316 14.172845252695662 0 0 0
811 1 15.6572710745217 12.84481784777296 15.648956462679456 0 0 0
813 1 13.818619746846984 14.478017575532586 14.115608975701301 0 0 0
472 1 2.5253524624523163 15.610127238020366 6.221011168162265 0 0 0
476 1 4.478431180615322 17.347076367343448 7.95546766387714 0 0 0
484 1 11.15803028768533 17.491621314287034 7.662515424600478 0 0 0
492 1 17.301330160583337 17.754691962768938 7.8369704113699274 0 0 0
565 1 19.165932029571973 19.32939016024106 6.524922274887649 0 0 0
500 1 23.798083460270867 17.49767646627698 7.923431230872067 0 0 0
567 1 22.2669831728163 19.12523114444947 9.72892997759564 0 0 0
502 1 25.193927624191755 15.760098385366014 9.34090868025363 0 0 0
573 1 25.36116607405908 19.189329150348545 6.259279768742754 0 0 0
504 1 28.618655963522876 16.078057750330764 6.191048150874723 0 0 0
508 1 30.47024598370994 17.408261126387586 7.709819812966219 0 0 0
510 1 31.739396945655315 15.752280804571125 9.359479960983922 0 0 0
805 1 7.903191462041313 13.99198376164692 14.23732609376257 0 0 0
516 1 36.62552195288985 17.745812959991305 7.747085113265018 0 0 0
801 1 6.114715004209719 12.623904786473942 12.53113242092572 0 0 0
795 1 3.306199892711331 12.477349245277415 16.040450855281048 0 0 0
797 1 1.7237818262648246 14.425725959642968 14.44242188556248 0 0 0
768 1 36.214055220482486 11.223460436114708 14.349455126526388 0 0 0
760 1 30.106808179485686 10.703458515939662 14.187868769857293 0 0 0
545 1 1.757340118401977 20.703179448443823 8.20867129335793 0 0 0
543 1 3.307252922299816 19.18336978326534 9.542184896262489 0 0 0
549 1 5.91115974612768 19.02515705104781 6.207246684879809 0 0 0
553 1 7.740179786468264 20.41392135598387 7.741083943981894 0 0 0
561 1 14.442502654621581 20.463006188058447 7.653917365967776 0 0 0
560 1 15.823445260236866 22.28114590553494 6.0912310872807005 0 0 0
569 1 20.673443352102495 20.599557034981636 8.174200066593682 0 0 0