LAMMPS data file via write_data, version 29 Oct 2020, timestep = 50000

1581 atoms
1 atom types

-0.028930381998261367 50.75272668188568 xlo xhi
-0.01813990458258985 31.822933391149885 ylo yhi
-0.01813990458258985 31.822933391149885 zlo zhi

Masses

1 18.015

Atoms # atomic

26 1 16.19625558214197 16.229442405446555 15.571184235126104 0 0 0
214 1 4.891370923131457 1.8442768759308226 1.2059006946495934 0 1 0
354 1 5.051001586742466 27.130109654341464 13.945363052969682 0 0 0
215 1 11.329319026597334 1.8208774838596096 1.4359093424858471 0 1 0
218 1 17.84722840443461 1.5396854798061763 1.4863227074500234 0 1 0
394 1 25.1627735755614 6.025964989363847 15.575362343437256 -1 1 0
220 1 23.788394190199355 2.279772500531363 1.2120185340383873 0 1 0
222 1 1.9107039767146667 5.11364577901618 1.8087465054324374 0 1 0
596 1 25.039913977533338 19.02006967059608 15.813342804579792 -1 0 0
225 1 8.207380897320629 5.018033561016058 1.2984323586443405 0 1 0
776 1 22.299029149882664 3.3515356977608417 15.802839488271015 0 1 0
228 1 14.462808402324349 4.672889346164247 1.6058667648647298 0 1 0
396 1 16.002118482963425 6.582476751011287 0.002108046607701048 0 1 0
230 1 20.689581767006104 5.166280089574692 1.4229767019409498 0 1 0
783 1 12.691551833858174 7.0599552840868425 15.833705368095883 0 1 0
232 1 5.451310509370644 8.180174527543372 1.5373722773405685 0 1 0
233 1 11.248591917446156 8.22409877676355 1.4579922396000622 0 1 0
478 1 19.386702278294898 19.30372525124226 15.680221507249358 0 0 0
234 1 17.528514338382248 8.133365740806491 1.4571394171722876 0 1 0
760 1 16.01578060414364 28.706134034492766 15.889179209000096 0 0 0
236 1 23.88483119215861 8.309916370473044 1.7987610816624504 0 1 0
3 1 1.9278042311352879 11.210462153207787 1.1203017692145092 0 0 0
439 1 25.329094192756386 25.333712335145336 15.773256212169303 -1 0 0
7 1 7.991046696801188 11.045531388460546 1.316513404699253 0 0 0
358 1 17.487108075852667 27.262183522483344 13.967767591375768 0 0 0
8 1 14.637181242250248 11.154652977991855 1.805463016714188 0 0 0
587 1 12.988451472133077 25.57007809928951 15.873950288691836 0 0 0
11 1 20.83501633203117 11.391509744254053 1.626334322603301 0 0 0
599 1 6.349160848819787 19.275820270305807 15.758421003007122 0 0 0
365 1 14.277920481053883 30.50241986323376 14.563587499039317 0 0 0
13 1 4.94553542819049 14.45317659156301 1.9160167829565022 0 0 0
595 1 22.763038409219188 15.959502964737684 15.844453447031421 0 0 0
15 1 11.057352464523433 13.980331552060548 1.1137185369098925 0 0 0
21 1 9.797603129706301 16.231476258008588 2.575954412229329 0 0 0
122 1 6.12844615507168 25.402756490994072 15.567691166962177 0 0 0
16 1 17.253913365825735 14.620951480856688 1.5098466022346884 0 0 0
190 1 18.7199708409409 16.41753381769211 0.11580936352927795 0 0 0
18 1 23.732075054690434 14.497225393238828 1.4471860731288777 0 0 0
322 1 9.806117985384578 0.19915730645809024 12.630156036843381 0 1 0
19 1 1.4473064110235265 17.784245029946277 1.279291129651319 0 0 0
384 1 0.3991177909695981 0.2473387905777436 15.481872966827519 0 1 0
20 1 7.868543661511337 17.82414167256675 1.2792818819585912 0 0 0
22 1 14.080844686496963 17.63988962474588 1.5063289910462028 0 0 0
191 1 15.838739018293245 19.254260493009554 0.18367501905545322 0 0 0
23 1 20.439699193909743 17.9095324524996 1.5719967236177361 0 0 0
583 1 3.4027977743203395 16.185150612238495 15.859906976652876 0 0 0
364 1 8.327374099804295 30.513162194856378 14.385467960553239 0 0 0
27 1 4.651406146891877 20.987738196954254 0.9167892087721825 0 0 0
385 1 19.2452061202479 6.604501835367679 15.614997241242856 0 1 0
29 1 10.834262457998047 20.870880975625102 1.2438401519543614 0 0 0
802 1 0.3547204892757473 10.38757529151852 5.42044339931811 1 1 2
32 1 17.783743420324964 20.994229551375764 1.5889370114175279 0 0 0
359 1 24.046238647371485 26.92561596299998 14.183221580022664 0 0 0
33 1 23.802021947622908 21.123344898420264 1.3736029411945838 0 0 0
34 1 1.7183498187501005 23.76939326188094 1.0290426992266228 0 0 0
485 1 16.03226034241502 22.463632584105596 15.775656713779744 0 0 0
36 1 8.256045145442716 24.392460323106643 0.846266515956679 0 0 0
390 1 6.849107551924459 25.714920658849113 2.6393503360554686 0 0 0
39 1 14.418831684864779 24.251827474409517 1.4524431008613645 0 0 0
380 1 18.963430679592534 0.13644343705217324 15.653418116610407 0 1 0
41 1 20.537609001281496 24.4547528817842 1.4433812186386068 0 0 0
362 1 0.11000435828936164 28.560495793093367 12.559232573579733 0 0 0
395 1 22.225015260554272 28.657258561650373 15.46470709935091 0 0 0
483 1 9.539819701567902 22.30652613599175 15.68131728631125 0 0 0
199 1 4.73731650080572 27.323530219855304 1.2458514951665447 0 0 0
40 1 2.874733398550102 22.07185815486352 15.549643996960546 0 0 0
201 1 11.386600583355712 27.50536878835296 1.2200985201487136 0 0 0
389 1 3.021014779329632 28.719467774405583 15.6029563402621 0 0 0
202 1 17.264155558964095 27.714742902543342 1.3474499757630383 0 0 0
172 1 0.03881893892882908 22.386062157212564 12.627314669360057 0 0 0
204 1 24.090727579782563 27.07922773451963 1.306780901604968 0 0 0
205 1 1.756890775197717 30.783277691341052 1.374409354841895 0 0 0
316 1 12.937103606143706 28.90697177277082 12.85955322579627 0 0 0
207 1 8.379297354773424 30.49364467850735 0.9293920915086563 0 0 0
356 1 11.285525965477449 27.21386206336401 14.106437458742139 0 0 0
209 1 14.459943926135375 30.78162184062726 1.3159871872062359 0 0 0
211 1 20.834328226302333 30.653211060130364 1.2414032761919713 0 0 0
213 1 25.001213716377038 0.15280358042830333 2.626177067485633 -1 1 0
363 1 6.845351982420444 28.92332411933922 12.753156149418098 0 0 0
250 1 1.486007487274784 1.419662113177751 4.313984735574202 0 1 0
251 1 3.205155591462603 3.024567346109398 3.2058182678549274 0 1 0
252 1 7.837087489031581 1.9264226935164834 4.495082553151995 0 1 0
226 1 9.765049653207504 3.610716433950091 2.9190503731523703 0 1 0
255 1 14.303488634727595 2.196370135639241 4.554653582331762 0 1 0
262 1 16.47862322024792 3.497955036240735 2.916823241999436 0 1 0
258 1 21.015226509015516 1.7218472035622876 4.5120150333695275 0 1 0
264 1 22.36727164022579 3.6075556183083854 3.2229380265545666 0 1 0
259 1 4.852149820887164 4.861063964630009 4.456587594417562 0 1 0
268 1 6.573037429072206 6.414823620858717 3.1561934238138507 0 1 0
261 1 11.531588497469947 4.933755550404519 4.621303752395826 0 1 0
227 1 12.98907375232802 6.726150276381564 2.9998104545973283 0 1 0
263 1 17.65580389493573 5.209881374626841 4.674332765900049 0 1 0
235 1 19.33394571611821 6.770608622287702 3.0408387855023897 0 1 0
265 1 23.75512233120761 5.060683124699431 4.895021149949783 0 1 0
267 1 1.5991520432986186 8.361756098474112 4.339522013550653 0 1 0
357 1 3.5200806375490554 9.766012387053634 2.9597224701991633 0 0 0
269 1 8.11694096368566 8.007984076298726 4.542206233364245 0 1 0
10 1 9.589633588742666 9.882900898922106 2.9258968487859223 0 0 0
271 1 14.35636196703083 8.198850517899512 4.938263308684556 0 1 0
273 1 16.046294599212136 9.618288881991518 3.3819401574798893 0 0 0
272 1 20.73091223198691 8.511662277873594 4.822260322218057 0 1 0
129 1 22.499404573995744 9.944570486011292 3.4597960347173897 0 0 0
4 1 0.20246870449073098 12.907558152444299 2.724128006375471 0 0 0
43 1 5.051464714341442 11.311186349329928 4.938399798799538 0 0 0
55 1 6.817270710127198 12.779631790546997 3.034474730182521 0 0 0
57 1 12.611759850502104 12.566370750288437 3.08812625214646 0 0 0
45 1 11.130799055224115 11.253684809399974 4.872269538929492 0 0 0
47 1 17.556184619312816 11.555728690064791 4.647689996197075 0 0 0
17 1 19.13631833939577 12.911469563617569 3.197122560416724 0 0 0
50 1 24.256056123557595 11.82087068307492 4.916818100648983 0 0 0
52 1 1.8660956551547858 14.40149989720454 4.388119883771666 0 0 0
53 1 0.2672776649221992 16.184621228401614 5.8677410613983385 0 0 0
54 1 3.200337721018179 16.283303326530756 2.8281949291916355 0 0 0
102 1 6.346912115059691 15.906558841275913 5.690586544084226 0 0 0
56 1 8.243042047172045 14.57178140823357 4.437440940442451 0 0 0
64 1 15.571014627584429 16.10130981802967 3.123138956926438 0 0 0
58 1 14.128533120474385 14.410851715312164 4.50795971241855 0 0 0
60 1 20.720603771471996 14.652835896537832 4.817895589975019 0 0 0
24 1 22.211619429558457 16.408617849522443 3.0922124904547386 0 0 0
367 1 20.45510160261591 30.29802358385769 13.971117646234429 0 0 0
28 1 6.258382648368378 19.266021784250217 2.8219048664958826 0 0 0
61 1 4.726010650348734 17.794619907310967 4.520074905935697 0 0 0
30 1 12.538478630875655 19.48673317728268 2.9679569723433743 0 0 0
63 1 11.11660165418105 17.721771202330583 4.693561176303583 0 0 0
65 1 17.29134536113531 17.382445223782963 4.70562939015664 0 0 0
73 1 18.8950087673703 19.163868648231595 3.564420516166153 0 0 0
66 1 24.010507346231005 17.8595777119985 4.580856756342072 0 0 0
68 1 1.7063856045450245 21.24657950915265 4.59013080246196 0 0 0
75 1 3.247212811014591 22.413102037551166 2.7451344527723025 0 0 0
37 1 9.268182050765532 22.571639106303564 2.796696726686176 0 0 0
70 1 7.6740625752729965 20.933932802354537 4.354060711161906 0 0 0
72 1 14.41163938807976 20.805297113009996 4.3584047732706805 0 0 0
121 1 12.869052201445049 22.501255296328935 5.80607725016176 0 0 0
38 1 16.06625152186334 22.642282478637693 2.995621850720217 0 0 0
81 1 22.183841971536324 22.87003454680847 2.96994849246585 0 0 0
74 1 20.576025246753826 20.843073894883723 4.975597787515783 0 0 0
88 1 0.09127009463306039 25.34304588195852 2.7837313717469083 0 0 0
76 1 4.941639400051615 24.102674302866603 4.177064296373847 0 0 0
317 1 3.5149074698754057 25.89339930788337 5.747417739704832 0 0 0
277 1 12.592547143979964 25.81356915805214 3.0440660652062865 0 0 0
77 1 10.983135887279682 24.157192761127337 4.4876005968943105 0 0 0
391 1 18.766735029545263 26.148723075363655 3.000675856466655 0 0 0
80 1 17.33096139517756 24.46067439661625 4.739152079402208 0 0 0
82 1 23.83074531573227 24.298231119251845 4.73408186919548 0 0 0
238 1 1.580422839313165 27.077064374988534 4.28370011030531 0 0 0
243 1 3.323438448608577 28.914058803008228 2.957821608324504 0 0 0
239 1 8.13345362095791 27.6850517557454 4.344466596621183 0 0 0
208 1 9.827978768822172 29.177943758081778 2.952842911192486 0 0 0
210 1 15.70263317654611 29.103838793773512 3.072616317821883 0 0 0
240 1 14.01502305825321 27.814361698309742 4.71163983898887 0 0 0
241 1 20.73280936334123 27.46953648530055 4.504723836152316 0 0 0
212 1 22.225416443117687 28.616432966215896 2.762966463110865 0 0 0
244 1 5.146521383659029 30.546258955760237 4.447856324441822 0 0 0
281 1 3.291342078250592 31.806571672659082 5.772343729243175 0 0 0
206 1 6.515327723590267 0.2909038182920369 2.7401159972549523 0 1 0
246 1 11.199149468377305 30.644956313509677 4.628640071271766 0 0 0
216 1 12.773500966903004 0.22609453304980223 3.0160014476382515 0 1 0
248 1 17.358837353638492 30.506339300900738 4.797235141871995 0 0 0
257 1 19.209425514465114 0.11506515969702918 3.1932094052129956 0 1 0
249 1 23.779476040340874 30.46101562781301 4.576421185677359 0 0 0
266 1 0.09639244565013758 3.266565379889477 6.052420004025367 0 1 0
298 1 6.151531488936636 3.240821922207866 6.098490028752857 0 1 0
290 1 4.63048432867625 1.4891243200432362 7.507836441714022 0 1 0
293 1 11.312287470284131 1.6635703091437837 7.674228099849265 0 1 0
254 1 12.952261558854921 3.3358165403847466 6.396654273403221 0 1 0
333 1 15.819352543989972 3.2164142842420533 9.023483997541284 0 1 0
294 1 17.91781449621976 1.9872438619164225 7.97658948851401 0 1 0
302 1 19.18030954073318 3.4018787960134698 5.946098303830198 0 1 0
296 1 24.08952830193939 1.9148376418217476 7.566476941599598 0 1 0
260 1 3.0455417124858455 6.5875406321607475 5.95322258744238 0 1 0
297 1 1.4166729722911502 4.837453706076655 7.674190629066298 0 1 0
299 1 8.22774635825749 4.804067946401074 7.713610172758332 0 1 0
305 1 9.878258562068384 6.316496772073143 6.217972075483462 0 1 0
301 1 14.380143449434335 4.973720532683663 7.842318487447383 0 1 0
307 1 15.918847696073643 6.471819224309646 6.2283220250806695 0 1 0
303 1 20.909785057038345 4.804994217746566 7.628897268330246 0 1 0
311 1 22.329967124710176 6.69750191303075 6.406439688774572 0 1 0
329 1 3.171274004442101 31.81617436571551 12.286774221327345 0 0 0
304 1 4.730877656550003 7.881251142846674 7.695663709717712 0 1 0
387 1 6.476637942504556 9.396869026357203 6.194431445125891 0 0 0
306 1 11.251650446026423 8.171929771830497 7.586285686432646 0 1 0
192 1 12.721235541451126 10.074187754368253 6.465194837573756 0 0 0
9 1 18.992536339100507 10.15498422948502 6.400118082840964 0 0 0
309 1 17.791795355454294 8.173837120189804 7.705651085153956 0 1 0
169 1 25.27776670460665 9.929205074231277 6.325658111001601 -1 0 0
312 1 24.070109278728022 8.155732786505283 8.132427795442215 0 1 0
84 1 3.1308326536325315 12.795956956315871 6.143782508912474 0 0 0
83 1 1.647947791966317 11.333098683108817 7.733356468692329 0 0 0
85 1 8.1763941312051 11.330581077588079 7.815764921586457 0 0 0
97 1 9.540896311930265 13.056906584257195 6.315345551048381 0 0 0
89 1 14.58677980760698 11.453435208711877 7.768783986920545 0 0 0
59 1 15.881301268143023 13.22582525825158 6.1517048605101134 0 0 0
92 1 20.927867586724794 11.412340566009423 8.052716140423055 0 0 0
51 1 22.39585572987623 13.187094450466825 6.5387118751560624 0 0 0
96 1 4.875575548421936 14.42011730842752 7.499147035756041 0 0 0
95 1 3.383699563422538 15.933476868050265 8.928525062459483 0 0 0
62 1 12.31401249222337 16.288347739445776 6.2821957154321275 0 0 0
98 1 11.07415048049683 14.446277016685267 7.953909213701275 0 0 0
107 1 18.991636806568824 15.763757572126135 6.451660882524475 0 0 0
99 1 17.439329399407523 14.620726591121699 7.998263583022732 0 0 0
100 1 24.36467363422559 14.775916109428467 7.824635277552865 0 0 0
101 1 1.8462615159406734 17.717088788356538 7.681896046590377 0 0 0
67 1 3.2912819597751377 19.54227172601785 6.126385143401555 0 0 0
103 1 7.994918686599499 17.464897200051496 7.325541722412524 0 0 0
112 1 9.55759499586377 19.396398341733896 5.918633936970962 0 0 0
142 1 12.69300152267032 19.608459464441786 8.844883369850653 0 0 0
105 1 14.247837062799993 17.777993244255455 7.413859873886225 0 0 0
71 1 16.04640035118096 19.63016197457657 6.1755435096792946 0 0 0
108 1 20.63881849005073 17.764681470287325 8.037773024486357 0 0 0
116 1 22.480997075543314 19.381458819042603 6.599122136675368 0 0 0
118 1 0.2078393369510235 22.64572541719623 6.173150140844078 0 0 0
69 1 6.337645060346071 22.64583360375474 6.099405381648724 0 0 0
111 1 5.132318983898264 20.879332638308902 7.708973488545753 0 0 0
113 1 10.82898877561424 21.09640946246274 7.182126121908851 0 0 0
114 1 17.46171822181137 20.98473233255772 8.093521318102475 0 0 0
79 1 19.08654565545441 22.7513338979507 6.4870603277073595 0 0 0
117 1 24.11569847479239 20.8223438654131 7.898848320150001 0 0 0
361 1 1.7117818842862411 30.269497817089327 13.984086736921324 0 0 0
119 1 1.7046003182839424 24.42581128186944 7.704279842587615 0 0 0
120 1 8.074416598996052 24.135540776148098 7.5858504665213715 0 0 0
368 1 9.537222363098845 25.89653296354688 6.01319608302121 0 0 0
200 1 15.260403895155196 25.79490787571733 6.015144735798796 0 0 0
123 1 14.019892939555024 24.160004304296884 7.6540657868531845 0 0 0
124 1 20.694216074476582 24.20855739794011 7.9204176004489755 0 0 0
242 1 22.363114903854125 25.949447391907164 6.211923990789378 0 0 0
377 1 22.193450246015352 -0.013243072802435307 12.573797198407192 0 1 0
274 1 4.64014067293349 27.66158814010695 8.000639805173845 0 0 0
245 1 6.615080080216149 28.980304204790762 6.319356576303715 0 0 0
276 1 11.137849470858967 27.53515450039163 7.692378113326002 0 0 0
247 1 12.746495990475674 29.377306227337414 6.252624745747204 0 0 0
278 1 17.29786195179249 27.15975587092431 7.351256760520712 0 0 0
286 1 19.04870187320496 28.887611444373736 6.132934595538371 0 0 0
289 1 25.257700138393542 28.769161700489658 5.923131600046864 -1 0 0
279 1 23.847977299423306 27.271671768897466 7.961371549419974 0 0 0
280 1 1.4458907876551736 30.47014308283664 7.646397237034076 0 0 0
283 1 8.312012213822179 30.505640348707622 7.812150964255002 0 0 0
253 1 9.536952350411097 0.3536384954843005 5.938477115005996 0 1 0
285 1 14.359174952335497 30.688994787406685 7.907165763715501 0 0 0
256 1 16.041978356334848 0.5581845694990649 6.395244196207902 0 1 0
287 1 20.646667992078065 30.074956228449572 7.686779456986688 0 0 0
288 1 22.36604595960294 0.26739067397823957 6.314013514532586 0 1 0
291 1 3.017964565405274 3.2828805325197417 9.082889579689821 0 1 0
328 1 1.5219156694375124 1.476686356248264 10.583889220469468 0 1 0
340 1 6.317082385186852 3.141763631028954 12.005259905137747 0 1 0
330 1 8.44395067866749 1.6034793591529963 10.692456534822197 0 1 0
292 1 10.110832246913342 3.455008146789957 9.358859285088657 0 1 0
331 1 14.812542075261387 1.5903333421949493 10.843439138069153 0 1 0
335 1 20.778327039418453 1.5302473832922923 10.96369164046208 0 1 0
295 1 22.380135280254535 3.1913417105860056 9.404980294622286 0 1 0
338 1 0.1592807450018605 6.491975314062959 9.606031560232994 0 1 0
339 1 4.71324792264999 4.79362777065727 10.60326181884352 0 1 0
300 1 6.5302952652702135 6.345901612681644 9.327301889594494 0 1 0
341 1 11.742730614807364 5.061032181886975 10.950808584721681 0 1 0
342 1 9.702924335548751 6.55364846248756 12.140380056692027 0 1 0
308 1 13.216561982241965 6.856319139220195 9.195447614411359 0 1 0
344 1 17.503111314243267 5.047785298507277 10.994504294377366 0 1 0
310 1 19.218271132531505 6.447483059533631 9.321328708929824 0 1 0
346 1 23.794542310621484 4.726630337124849 11.102922147735397 0 1 0
348 1 1.5164710157137424 8.213713030582403 11.033580693167337 0 1 0
397 1 3.217727578292337 9.667210843015319 9.252705304810213 0 0 0
5 1 5.996937493265145 9.861113432505986 12.061420369695728 0 0 0
350 1 7.776666324153759 7.838041497289795 10.98558620659769 0 1 0
372 1 9.559562642579928 9.564209947298679 9.268312582251223 0 0 0
352 1 14.435403749579217 8.448458914665174 10.951574204730141 0 1 0
393 1 16.128157188058076 9.717788780376322 9.48910109867629 0 0 0
353 1 20.69496330391581 8.005936316799305 10.935254735498246 0 1 0
224 1 22.239458573496627 9.62985584988945 9.466349962889378 0 0 0
94 1 0.29788125635932183 12.924986692251679 9.422567033049173 0 0 0
126 1 4.516419088807235 11.51665508067767 10.619601996450303 0 0 0
86 1 6.4861108530880776 12.897031612465424 9.365012964626574 0 0 0
171 1 9.362445388831519 12.477722916095722 11.990550591939481 0 0 0
127 1 11.291746438267594 11.255388088534762 10.497451819397297 0 0 0
90 1 13.05811625030021 13.277650199462142 9.625855980578251 0 0 0
128 1 17.65026295976196 11.536339465416114 11.035815806588719 0 0 0
135 1 19.121577205745933 13.049443365277558 9.33773271969723 0 0 0
130 1 23.95160923645389 11.09675398034574 10.863473997443336 0 0 0
132 1 1.7669099519574538 14.730430726546308 10.819352752289495 0 0 0
179 1 6.070340488147283 16.13437638224329 12.226386396176041 0 0 0
104 1 9.511964582153066 16.164062954409907 9.388317164533087 0 0 0
133 1 8.054843777702184 14.59849311756279 10.920040428923796 0 0 0
134 1 14.147535839009587 15.037364635121923 11.121213449311384 0 0 0
106 1 15.935016122508792 16.427221156723068 9.356810964227298 0 0 0
136 1 20.642185057729222 14.542935890885204 11.257693532178767 0 0 0
109 1 22.326102005146982 16.038418317555085 9.575526723809705 0 0 0
110 1 0.38564100129834833 19.16003756216744 9.266585917249044 0 0 0
275 1 6.199854699082606 0.059652643853805656 15.225177190941933 0 1 0
139 1 4.664931552091505 17.780774232986857 10.642366401244082 0 0 0
149 1 6.602892599269145 19.097473911734884 9.137971927275778 0 0 0
141 1 11.151865103738727 18.112257777650893 10.799372973177725 0 0 0
143 1 17.874312786510377 17.862398090035033 10.852630145569787 0 0 0
183 1 16.22936223388157 19.51389554637706 12.198509937257707 0 0 0
115 1 19.159955181732837 19.74371340117696 9.47669308677322 0 0 0
146 1 24.182754861060815 17.529301406102004 10.951751308232128 0 0 0
147 1 1.561204612308644 21.007192114303326 10.784440730847269 0 0 0
148 1 3.3478829963481376 22.6811908626299 9.264846878123397 0 0 0
157 1 9.475487710196154 22.238956228016363 9.391608315323467 0 0 0
150 1 7.9501831428434695 20.743064928294014 10.836677886296414 0 0 0
159 1 15.708801642519237 22.412685517006985 9.467289921899786 0 0 0
151 1 14.306263152980252 20.670717838725043 10.8884555840969 0 0 0
152 1 20.40480530205664 20.995344668123273 11.290033977957254 0 0 0
153 1 22.307039591747834 22.23466911808975 9.789492520211994 0 0 0
131 1 0.18098216283156807 25.65594304672773 9.457952277386358 0 0 0
155 1 5.158606686681897 24.22678287002414 10.839279817308876 0 0 0
347 1 6.607147530650059 25.822666481059212 9.205855722596079 0 0 0
12 1 12.664502264855036 25.653646462484172 9.292541293122456 0 0 0
158 1 11.302370898281103 24.131652450377953 11.004335569383265 0 0 0
31 1 18.780461441728974 25.618479894068933 9.215975927790938 0 0 0
160 1 17.317220063915702 24.191299379897334 10.844582985291423 0 0 0
161 1 24.067057041586246 24.01731800647932 11.168530697477815 0 0 0
375 1 16.343880626853533 0.04382313653146677 12.578234804963136 0 1 0
282 1 3.067772640178553 29.125420143423536 9.683719292252826 0 0 0
313 1 1.5599478397977198 27.18504936573628 11.124750815218688 0 0 0
320 1 9.509823118482124 28.92903574634714 9.545580420893215 0 0 0
314 1 8.043093126800581 27.061698189135072 11.044498983043594 0 0 0
315 1 14.123381629654283 27.310524079874423 10.948488928400371 0 0 0
324 1 16.055762756708678 28.72793869218145 9.23222050816166 0 0 0
326 1 22.11172243622184 28.60821583819793 9.416321291627446 0 0 0
318 1 20.72937540684208 26.983496665490552 10.973863112622322 0 0 0
319 1 5.280725078277863 30.120770548231416 10.933189097761911 0 0 0
284 1 6.566346872329953 0.12419666673242188 9.37574189885441 0 1 0
321 1 11.226499556276808 30.28998572001758 11.11644399580913 0 0 0
323 1 12.79552974188258 0.3180401096907015 9.383907051590862 0 1 0
325 1 17.535119949060174 30.33062847628382 10.873207159160335 0 0 0
332 1 19.093929524293472 0.06593436307743637 9.469451328306585 0 1 0
327 1 23.66557205073417 30.007908514415902 11.051284122555554 0 0 0
336 1 25.300944300736766 0.06417400663027019 9.243609914890362 -1 1 0
355 1 0.17053961532294426 3.046057225642381 12.28613215621545 0 1 0
371 1 4.539687229048964 1.699043191144788 13.706979620681095 0 1 0
386 1 9.47097865644961 3.4385055437130205 15.1522766142019 0 1 0
374 1 11.592754120340881 1.9499640034498182 13.936662658387599 0 1 0
343 1 13.364426435345772 3.525715206268132 12.485384523844901 0 1 0
334 1 18.8404454870513 3.2166390437258325 12.31044678648516 0 1 0
376 1 17.327033809760106 1.8349144237521307 14.13131727719635 0 1 0
378 1 23.961553154450975 1.6958471696735358 14.284656389382535 0 1 0
231 1 3.1375562871512126 3.3198370945796274 15.485706192977801 0 1 0
379 1 1.53738866655472 4.791763778475673 13.83178939687417 0 1 0
337 1 3.210739558719657 6.569498775847609 12.293631899292823 0 1 0
203 1 6.032699325636668 6.235051143005441 15.29722586902576 0 1 0
381 1 7.879191105169574 4.902249670966773 13.778451925770353 0 1 0
382 1 14.469752141144438 5.175237092456207 14.3302858464635 0 1 0
360 1 15.90434808085779 6.68682232249452 12.583172341079077 0 1 0
383 1 20.614809632443215 4.857862896611292 13.919176413668767 0 1 0
345 1 22.413237850684386 6.671860282558384 12.503510623151723 0 1 0
370 1 4.751809896664248 8.145769956531527 13.650694307191104 0 1 0
237 1 3.2552452169322668 9.480040750606621 15.23374659054117 0 0 0
351 1 11.109477803973215 8.24653829792304 13.75256673059647 0 1 0
93 1 12.930143950455848 9.900179798355472 12.553526672006251 0 0 0
349 1 17.69752723579667 8.32839111712141 13.907337500207703 0 1 0
221 1 19.237240012438022 9.758531894958432 12.391467901464013 0 0 0
223 1 25.21972647382178 9.499482351390748 12.528730252005973 -1 0 0
270 1 23.775038050909036 8.106265726054728 14.228332601806951 0 1 0
163 1 3.0520124430725257 12.965507492344358 12.586085105975624 0 0 0
162 1 1.3488134403361138 11.032837898901509 14.081413386481493 0 0 0
154 1 6.280804302184991 12.830771451317284 15.212181812950904 0 0 0
164 1 7.829793817918327 11.154661680262516 13.758375048634983 0 0 0
165 1 14.489054970666364 11.693652099900238 13.811832496392963 0 0 0
195 1 12.754273816634344 12.898268414617007 15.25675158817459 0 0 0
175 1 15.971946791064894 13.377438528891219 12.26255390017829 0 0 0
167 1 20.597891997174763 10.905262608136677 14.040758292540417 0 0 0
137 1 22.2255078415617 12.584090006121494 12.434659010481184 0 0 0
366 1 19.06941305442467 28.526933152724602 12.399576501394804 0 0 0
170 1 4.686030467502958 14.717396982928562 13.896126232066578 0 0 0
194 1 9.22974629858113 16.076257025619398 15.294555345662616 0 0 0
174 1 12.461505151812453 16.638392123557352 12.709304265712925 0 0 0
173 1 11.01725617105033 14.53240488622441 13.598656979253189 0 0 0
176 1 17.667478857593725 14.544412484899945 14.032847509828224 0 0 0
144 1 19.23899439903607 16.14332050032901 12.693879370350114 0 0 0
138 1 25.290922375884048 15.926213206028839 12.645658591188402 -1 0 0
177 1 23.97031591987833 13.980980135069597 14.169771236778228 0 0 0
178 1 1.7183480992909128 17.66361550482968 14.012650540243975 0 0 0
180 1 3.357996680209665 19.621151926156124 12.323165247750747 0 0 0
181 1 7.6092560196602745 17.839130366975443 13.783994095638661 0 0 0
140 1 9.580198836970494 19.294023028744146 12.62604303804573 0 0 0
189 1 12.581181398219659 19.529230689692554 15.37722774981967 0 0 0
182 1 14.515690659979267 18.143576675954986 13.869638437147275 0 0 0
184 1 21.078538739116702 17.82496939921533 14.234901631467505 0 0 0
145 1 22.67599294916067 19.462027274568687 12.38533644663798 0 0 0
196 1 18.943115207836904 25.619733837812014 15.582520881170153 0 0 0
156 1 4.880057052908877 20.74276494621461 14.0545243915897 0 0 0
125 1 6.4414685284120905 22.397604597244218 12.278969292446266 0 0 0
91 1 11.078733875741664 21.081955314657566 13.922757310555316 0 0 0
49 1 12.799291777766063 22.299302103208532 12.573383111159018 0 0 0
48 1 18.92134878881339 22.736619139312346 12.710247912209935 0 0 0
185 1 17.591649510831047 20.871434251679343 14.103225440393814 0 0 0
168 1 23.852642214170586 20.93579073733296 14.432781277896998 0 0 0
166 1 1.8825812665195518 23.918584167606614 13.967671461930372 0 0 0
219 1 3.387822442185831 25.764186516388605 12.4738810368294 0 0 0
35 1 7.984127745138327 23.82750589107475 14.036388675940385 0 0 0
186 1 9.54607847248419 25.55449023713233 12.50370342212134 0 0 0
217 1 15.851506737214704 25.758693868232957 12.322039461684257 0 0 0
87 1 14.363145450353825 24.102701920468142 14.166098561896147 0 0 0
78 1 20.77734465260733 24.0749012218189 14.441506401891246 0 0 0
25 1 22.410425030425433 25.68017711757777 12.762465570852088 0 0 0
46 1 19.30739398349308 12.771557578276674 15.524899600844481 0 0 0
6 1 16.24550831899007 9.969684565058023 15.546805441511353 0 0 0
373 1 9.577700135627913 9.60337636267578 15.512489795151726 0 0 0
711 1 15.762883599768262 3.4309240495449913 15.879723147044398 0 1 0
1352 1 0.07796785843569234 9.416281246235746 0.6759670670712883 0 0 1
1499 1 0.39316203977400177 7.3198982472352565 2.623415755003796 1 -1 0
1531 1 0.11658278149320384 29.111271428559824 5.510468967806204 0 -1 2
868 1 0.1562537656794234 16.794257802163692 11.838011356379749 1 0 -3
1049 1 0.1389645747645858 25.210109083096896 15.563808158059954 1 -1 -1
617 1 1.8584375449494706 1.6511623547630616 17.24201030264402 0 1 0
193 1 18.909456161546593 9.952775711137091 31.711197070422013 0 0 -1
618 1 6.488606333017384 3.304415721728335 18.510166139333077 0 1 0
619 1 7.8733891602026524 1.3859558387914557 16.772230967118386 0 1 0
620 1 14.163886566823255 1.8538957316793716 17.330497857802605 0 1 0
197 1 3.6019262763408033 25.43389300539931 31.654207007940737 0 0 -1
622 1 20.687557625467196 1.585770741893072 17.426792434433338 0 1 0
369 1 15.927891679586857 25.956529922337893 31.723253563461196 0 0 -1
625 1 4.496128594803825 4.968078541887089 17.1041568837239 0 1 0
626 1 11.072681259892043 4.895755411944571 17.0902229443894 0 1 0
187 1 12.501303089192357 16.085836604486683 31.680165236697903 0 0 -1
628 1 17.490183359101298 5.0403276860955915 17.0595769931255 0 1 0
229 1 0.10512416026546165 29.150115617757983 31.598036358968358 0 0 -1
630 1 23.74106075372918 4.740348463577009 17.604830172737437 0 1 0
600 1 6.679020688604499 22.509227891611513 31.51813812726993 0 0 -1
631 1 1.2502271141825407 7.968236257645082 16.934276356443775 0 1 0
593 1 6.179233808531669 9.786914450061369 18.51262249286211 0 0 0
633 1 7.7582031385545465 8.080812170353319 17.064164484505195 0 1 0
594 1 21.84355765401336 13.179422475815045 31.477191536820104 0 0 -1
635 1 14.711789566100224 8.449764585389365 17.088708133391737 0 1 0
1172 1 24.859463996636563 27.49285589415575 24.34094312918284 0 0 -2
637 1 20.467315992693543 8.05712993747406 17.3130026024436 0 1 0
629 1 22.217392905825378 9.58902405580923 16.122638933315983 0 0 0
404 1 4.7252547722375295 11.160325726746963 16.591064550460935 0 0 0
403 1 3.3247340572559763 12.593817726353993 18.60543388343686 0 0 0
406 1 11.193924892495286 11.312501366032897 16.972185628297282 0 0 0
454 1 9.629392945194317 13.05237986485021 18.305222115531667 0 0 0
408 1 17.7777631494145 11.483331798322991 17.264756045568785 0 0 0
2 1 19.239633550846296 28.985549902316755 31.60788585797695 0 0 -1
410 1 24.041854974232812 11.468709030236509 17.54228507349052 0 0 0
411 1 1.3014706330581196 14.37315497249604 17.241788038221305 0 0 0
44 1 15.809742088835891 12.929518336969052 31.654704870220794 0 0 -1
414 1 7.677897929163744 14.541314489907114 17.15416562876358 0 0 0
415 1 14.367155850439703 14.364514779556343 16.900387952486348 0 0 0
456 1 12.843349180861065 15.988629503683203 18.371044758689596 0 0 0
785 1 22.64506960908353 0.3073383815538918 31.423942893601982 0 1 -1
418 1 20.803153662600373 14.636307621904885 17.172975264272747 0 0 0
392 1 13.07816254490775 9.485619502995693 31.756558494465995 0 0 -1
462 1 3.1219656422300974 19.373954036862948 18.58337377816366 0 0 0