LAMMPS data file via write_data, version 29 Oct 2020, timestep = 50000

2060 atoms
1 atom types

0.5351327921491915 98.69740833268727 xlo xhi
0.1376597509378712 25.389325506892988 ylo yhi
0.1376597509378712 25.389325506892988 zlo zhi

Masses

1 18.015

Atoms # atomic

415 1 2.1892770110528326 2.745320822364194 3.224229033485772 0 0 0
414 1 6.721090762602739 1.7349498770678873 1.5118263576168682 -1 0 0
357 1 8.430266274798171 3.058492431784568 3.2409333444422344 1 0 0
230 1 12.255711151113891 0.430148295043414 3.061144772276806 1 -1 -2
12 1 13.521503938655517 2.0623264670797967 1.706307781946364 0 1 0
209 1 17.983140606591505 0.8765252621459091 2.4886445107716124 0 4 -1
228 1 16.197282308608223 2.1448858802770054 0.8199301596624512 1 1 0
85 1 19.906978166913596 2.718184485126681 1.5891146641514104 1 0 -1
124 1 24.350215006263692 2.2316914521689473 1.9022760108951196 0 -1 0
404 1 3.79640312432427 4.3232017255930515 1.5670867730236366 0 0 0
25 1 9.995536096078325 4.877775248787008 1.6777858709180757 0 0 1
24 1 11.685840456717944 6.368316176201529 2.872182438284727 0 2 0
738 1 15.422084300262656 5.695847712679689 2.709698385599073 0 -2 -1
701 1 18.06929779104244 4.903855217179446 1.149450339179561 0 4 1
213 1 22.727064996109238 5.216286245152988 0.23737255892240033 1 0 -1
330 1 24.12280277616528 5.328451179067581 3.1362932646105026 1 -1 1
477 1 2.0722643121557267 9.148141843148828 2.920455031557149 0 0 0
468 1 5.128403917638789 9.002125776267338 0.19375692630143526 0 0 0
113 1 6.747507469291141 7.239452257809966 1.2249590416163474 0 -1 1
243 1 8.487205493387606 8.731850840798783 2.855605264598414 0 -2 0
27 1 12.642633511743545 8.690524267538507 1.6612699982272232 0 1 0
779 1 14.609471328418032 7.1363303452722535 0.6628692587870502 0 2 -2
518 1 16.02895830439622 8.52347359902696 2.8572878714763372 0 -3 0
302 1 19.518233452447834 7.247216939162056 0.31825116629106015 0 2 1
650 1 21.14023424790541 6.5488243446848236 2.933943588293247 0 1 -1
810 1 21.820416658703778 8.920429258659803 1.7799986468700517 0 -2 1
478 1 3.5077475924108623 10.720725908685791 1.4317725741690004 0 0 0
480 1 5.504723574803541 12.372124818171462 2.954400766740305 0 0 0
709 1 9.931548972988677 10.58477961988393 1.2690023135353838 0 0 -1
236 1 20.361409823583447 12.62305543348289 1.4927893487842998 1 -2 0
1478 1 18.983401671952866 10.24200630114981 2.030111217303868 0 2 -2
1366 1 23.092916101496172 11.470513081935689 1.8257219150259596 -1 2 0
472 1 0.6525170914714133 14.108975258134326 1.6695785511706225 0 0 0
473 1 5.291345412220866 15.909505062918258 0.19500170009579001 0 0 0
114 1 6.8016772341927005 14.330295712125617 1.576256478505905 0 -3 -2
173 1 8.560684286231318 15.838665351669446 3.288566023932932 1 1 -1
147 1 12.411393880091232 14.714761229976954 0.9835003382251957 0 1 -2
598 1 11.007149343875387 13.017422154507353 2.517084292073462 0 -2 -1
109 1 14.62664605654196 15.014437508724269 2.3415064765802587 1 -2 -1
33 1 16.45701210384796 12.898065937312353 2.21680166045746 0 0 0
944 1 18.629183434774006 14.377509237229914 3.235956739813024 0 -2 -1
1435 1 22.646945800136393 14.747319178595585 2.3012607021429394 0 1 -2
400 1 2.01952370254276 18.864398037140383 0.2296282553760168 0 -1 0
406 1 3.5567458642126493 17.226592055612365 1.694066528956325 0 -1 0
407 1 5.282395523373495 19.064983663511676 3.254260421442577 0 -1 0
220 1 10.116002920308972 17.152097093730255 1.2805357750034199 0 1 2
39 1 12.66320096316387 17.629440473006674 2.197744652106042 1 -3 -1
335 1 18.460718885077462 18.491660561781035 0.4849375625268327 0 0 0
380 1 20.336537012940134 16.33799900026012 2.420300850296894 0 -1 0
176 1 24.24343368243162 16.93319829828276 1.31197919714921 0 1 1
410 1 0.7458303435576752 20.628137662116945 1.5883310612938346 0 -1 0
409 1 2.3008101078533825 21.92425947906299 3.236532641289991 0 -1 0
162 1 7.014646607449479 20.7980296223142 1.7340026908971564 0 -1 0
347 1 13.475417448500778 20.29264986518099 1.46134559055062 0 1 1
323 1 15.246237875496648 22.15254907436783 2.874234269220369 1 1 -1
910 1 16.123560807189826 20.248725306655867 0.3289947852907923 0 3 3
878 1 20.456317880094975 22.178199424132778 0.758398559141842 1 0 -1
589 1 19.452682521956927 20.49287616403173 3.290554127818615 0 0 -2
706 1 22.18887173061413 20.162399202821646 1.800953068354188 0 -1 1
403 1 2.147817758294164 25.237539295845462 0.4271081515927407 0 -1 0
412 1 3.654096366574989 23.533387586007436 1.7098272661443006 0 -1 0
413 1 5.275000272729685 25.02612526044392 3.0108556104773694 0 -1 0
521 1 8.56960957280526 22.559654382745194 3.1215177920599517 0 -1 0
167 1 10.198955877824751 24.05819348116727 1.7928592270556312 0 3 1
375 1 18.054651928633714 23.22474420895209 1.9945851745843708 0 -1 -3
421 1 3.959764714723179 1.3709770745674414 4.979941979338216 0 0 0
87 1 10.238926909708761 1.5159303289744914 4.611366820658498 0 -1 0
301 1 11.927946985039599 3.17309285820049 6.4480887785741015 0 -1 -2
912 1 13.88402755609566 0.9334054671839707 5.608850171178508 0 1 -1
197 1 16.580347206679416 1.3859994683963084 4.899905807508775 0 3 0
281 1 20.666288277704627 0.9875573119916717 4.426485621804029 1 0 -1
787 1 24.141463208959994 1.028575863485229 4.1827055564516105 0 -1 0
1269 1 23.3297736420873 3.0722745628448225 5.991788598082557 0 1 1
430 1 0.7170553378949408 4.258656424291956 4.9487320550447 0 0 0
484 1 1.8667434157482066 6.325416069592528 6.227404466393374 0 0 0
475 1 5.1399865983063595 5.66347646537157 3.308250403254289 0 0 0
214 1 6.7646888440341515 4.536345673288655 5.011916576502745 0 0 0
384 1 8.601486687104178 6.110565656002154 6.3277485660082995 0 -1 -2
47 1 13.306929356630022 3.9259592106418935 3.665121244936609 0 1 0
86 1 15.982727488844326 4.20950196913427 5.281112394087269 1 1 0
172 1 17.886197708910327 6.1274956927336195 6.10591225592077 0 2 0
21 1 21.40949275817672 3.859286127554279 4.06194620470213 0 2 -1
63 1 24.580116084916963 5.736970561991378 5.9101999847993785 0 2 -2
486 1 3.5482960949528506 7.4562215424108045 4.489157413156539 0 0 0
487 1 4.842415713405307 9.189464363291709 6.124616332681002 0 0 0
158 1 10.217773683983358 7.535960033631942 4.867113474240435 0 0 0
74 1 14.60964886369036 9.495866267459888 4.923301750219935 1 2 -1
663 1 18.265060218050085 7.1716053159476 3.7520502515561405 1 0 -1
108 1 21.12443156655367 8.475050623098946 5.395553963136102 0 2 1
1027 1 23.926398092589007 8.30045802447931 4.165619103480294 1 1 2
488 1 2.0882268499350403 11.934042191193655 6.1945176675640035 0 0 0
479 1 6.692752636660629 10.502882015327517 4.4918900742223276 -1 0 0
358 1 8.248825153251188 12.237499517838122 5.660030301783465 0 1 0
253 1 12.298696590337888 10.719360198424601 3.487300653956356 0 0 2
207 1 11.12407424678736 9.753458619072056 6.013857776146367 1 -1 0
619 1 16.0072226332656 11.964384339272517 4.997454800842394 0 0 1
131 1 18.281031207261375 10.242057398642048 4.638880132003903 1 -1 3
825 1 21.677970310253066 11.098799366886219 4.485681157929632 0 4 -2
201 1 23.848696834551706 12.139724810851844 5.9229579630045714 0 -1 1
481 1 2.1362040621469065 15.711201375424665 3.3869344120073928 0 0 0
483 1 3.7650090865925088 13.960853444174422 4.730825386298909 0 0 0
482 1 5.415057470389276 15.407516562767697 6.342511811368508 0 0 0
379 1 10.048907184037231 14.217198568435167 5.418899393879289 0 -1 0
262 1 17.56709460072898 15.302614216989676 5.983914352951932 1 2 -2
355 1 20.415878206383958 13.409349798180559 5.127974632545885 1 -1 1
688 1 22.578486722611565 15.285143947678618 4.971181897351065 0 1 1
1928 1 0.5470590689190737 17.376877880726603 5.007024624668199 1 0 1
420 1 6.8055926768425286 17.368303413680085 4.750202997607026 -1 -1 0
274 1 10.927572849369279 17.724744372631623 4.448726090610361 0 2 2
287 1 15.442827699090241 17.27125929243905 3.909908382885904 0 1 -2
962 1 13.558124520877454 17.25519039438484 5.965061911380974 0 -1 1
888 1 22.572920608960008 18.056759787030366 3.8432905925648 0 1 -1
408 1 3.500785512920004 20.202626862878073 4.860376971074717 0 -1 0
418 1 5.332221796988396 22.08798076711392 6.29068659731774 0 -1 0
735 1 9.731942235414978 20.38735867251912 4.7635161323085375 0 -1 -1
366 1 11.66576375119857 21.70777191340617 6.248792487568805 0 -4 -1
279 1 16.589449241692147 20.077549904047586 4.081818508266612 0 0 1
504 1 20.833619308123016 19.409163440315385 5.7914586330350435 0 -1 -1
635 1 23.944391422706126 21.559007166616293 3.500849985959386 0 1 1
411 1 0.6194108035286787 23.428917780300402 4.447500289132955 0 -1 0
224 1 6.851681634397402 23.723450694438956 4.792841220079 0 0 3
726 1 8.872262287037465 24.95193225362652 6.3060860721965035 0 1 0
169 1 15.322608473948112 23.113208893107338 6.0986594285704765 1 0 1
352 1 13.13725952730679 23.289419581945577 4.239263037622007 0 -2 0
265 1 17.91273319209894 24.88278919081039 6.34124647563477 0 1 0
634 1 19.340543730471946 22.97764014043042 4.874697177850707 0 0 -2
247 1 22.25717281431536 23.79918130634144 4.892467405753212 0 -3 -1
427 1 0.908482179877133 1.1137592471120414 8.128983071811692 0 0 0
401 1 2.331179308818123 2.8433109465990776 9.556913353576531 0 0 0
422 1 5.476014610170347 2.929530992898437 6.650562823192389 0 0 0
145 1 6.879291644514466 1.0908531802042691 7.965550836952499 0 1 -2
922 1 8.569650215510984 2.691775956629213 9.350444507769325 1 0 -1
1175 1 15.743803635051306 2.590414592690891 8.108995521392046 0 0 0
188 1 13.081384356861662 1.7525400199111327 8.731008017715013 0 -1 1
1011 1 21.097591295906515 0.8408258949002717 8.73889960823979 0 -1 1
1471 1 19.57628928830412 1.925907557314306 7.03900648580438 0 -1 3
1021 1 23.233115031792998 2.2630794466750825 8.695408368441942 0 -1 1
492 1 3.7027491853226824 4.746601430267044 8.126550004480647 0 0 0
328 1 9.978686144369991 4.572072562273355 8.205276421040182 0 1 0
895 1 13.90515430383528 5.231482547347809 7.196535783489607 0 0 1
130 1 16.49015519116576 5.420974954522333 8.916991977350124 0 1 -2
828 1 20.49307217365163 5.042259135442149 6.746127053394805 0 -1 -3
239 1 19.23562163037577 4.786659995610062 9.56501785540686 1 0 -2
561 1 22.715004757666815 6.28865934103253 7.929870075473288 0 1 2
469 1 2.1484228838496833 8.520584712950626 9.431166443169477 0 0 0
485 1 6.543136209302306 7.407165526147948 8.05873253022548 -1 0 0
783 1 7.995441091667915 8.898003865621654 9.566606772261672 0 -2 0
321 1 13.899628297549617 6.9501611046567975 9.381001075813629 0 0 2
54 1 13.415597287257075 9.109710139022571 7.591155870475126 0 1 1
70 1 16.584709408291033 8.58207730305911 6.818422245599881 0 0 -1
1824 1 21.908170051152315 9.132361088488736 8.316304716293672 0 -1 1
489 1 3.661362545135337 10.460713861643665 7.851124326311796 0 0 0
466 1 5.5999859383238935 11.75582086829141 9.185419205986287 0 0 0
26 1 9.19036939860966 11.077192717567456 8.233824861117094 1 1 1
939 1 13.698031332537443 11.144998114693905 9.30429151020131 0 -1 -1
60 1 17.202474203039397 12.590978904714696 7.292904266915949 0 -3 1
682 1 17.713868861416067 9.933751883314667 9.370434994983286 0 0 1
1247 1 19.784502648738425 10.928399771996322 7.228777697927655 0 0 3
1377 1 23.99563112256034 10.84174289714087 8.553629287283183 0 -1 0
467 1 0.5618188399999003 13.666447249932116 7.552772696290641 0 0 0
474 1 2.096844282358429 14.786484298618117 9.282595669129353 0 0 0
886 1 6.831063809517353 13.539191115266483 7.681082320211977 0 -3 0
1228 1 8.584508639781044 15.216461482330416 9.270179554065102 0 0 0
125 1 12.396358568237314 14.443812917269854 6.8702395610193525 0 1 0
728 1 14.54698382002689 14.178819485135321 8.970414640661799 0 -2 -3
256 1 20.150318908647346 14.87841526054463 7.516993109142033 0 -2 -4
416 1 2.091017622302986 18.774806866996645 6.6647363420777594 0 -1 0
491 1 3.588891043643439 16.662422944254732 8.036117294459185 0 -1 0
424 1 4.991294764117302 18.289865677028782 9.4093387348562 0 -1 0
190 1 8.263380104241296 18.673147306786056 6.5558379221212295 0 -1 -1
123 1 10.099411937501603 16.550995684048786 7.549008395398795 0 1 1
753 1 11.36949511068926 18.511205388844882 9.349089624051908 0 0 0
618 1 15.524746370449686 16.38746204408996 7.588142774244386 0 0 1
754 1 18.550444130088913 18.0264899791671 6.760253115808507 1 0 -3
349 1 17.24694536866984 17.90835463134745 9.410361577033912 0 0 0
1193 1 20.277632743182743 18.098600858755002 9.218151205214278 0 0 1
597 1 22.26713483911413 17.022334932946094 7.241002934305695 0 2 1
515 1 24.298211005854814 16.12655347985203 8.857774564946347 0 0 1
425 1 2.0916327921391824 21.42382112086957 9.519056033778721 0 -1 0
423 1 6.447405887198825 20.197311293392417 7.929470902488182 -1 -1 0
232 1 13.577152402926187 20.324272609316957 7.902901824670125 0 1 0
1024 1 16.04597213484643 20.649253049651357 6.838917335329095 0 0 0
993 1 18.438340002276057 20.988476355003677 8.150797018690566 1 -2 0
373 1 21.610782820385374 22.039004073846584 7.007312923941195 0 -1 -2
765 1 23.880610687541704 20.180874966259083 6.970459054969309 0 1 0
419 1 2.3392178127470866 24.843850608060055 6.5221136563028095 0 -1 0
417 1 3.6587170290715902 23.166169472483485 8.03132781363405 0 -1 0
255 1 10.356908182396657 23.2265683298585 8.039786234903922 0 1 -1
1032 1 16.1549682919659 24.072618238410808 8.647722003078197 1 -1 -1
864 1 23.39212936548864 23.536321592138034 9.417417804650967 0 0 -1
461 1 3.704998103016622 0.9264650944873609 11.150318133337386 0 0 0
439 1 5.371515902520728 2.6399009470116486 12.694522947429395 0 0 0
563 1 9.877779346952474 1.0154124212470315 11.225640732596823 0 1 1
342 1 15.674964511419132 2.242516509162584 12.58900715901799 0 1 0
570 1 17.018794808771933 1.0891435222097 10.42967234753016 0 1 1
807 1 19.463247885574344 2.3839413385281683 10.974010521449356 0 0 1
261 1 22.230700375514242 2.173912411635413 12.031179500379476 1 -1 0
462 1 0.8285476378636044 4.333166034338844 11.40765599834445 0 0 0
471 1 5.591447795882668 5.7116535160381465 9.759106152020959 0 0 0
165 1 7.241912595641438 4.240134598817833 11.286748508547916 0 -2 0
372 1 11.647027650680926 5.771035339936743 9.918823135627187 0 0 0
16 1 12.900434415698802 3.6927804975251224 10.98963877558245 1 -1 0
219 1 15.548524579260999 4.960883867389093 11.715412617978448 0 2 1
775 1 19.825485631997445 5.990906993848918 12.221295246639757 0 1 0
51 1 23.17291600517306 4.838861385914154 10.433061562162147 0 -1 -2
137 1 3.744620995250596 7.098961436355948 11.205288366607679 0 0 0
498 1 5.331685592013502 9.010664757880473 12.534615854122217 0 0 0
359 1 9.962246386254575 7.48555256333766 11.048234100774634 0 -2 -1
320 1 11.443122487843901 9.568200088595335 12.38830993205517 0 -1 2
937 1 15.372828127949555 8.734073945196634 10.65934848570867 0 -3 2
842 1 17.634671754995534 7.626016193568951 12.285393603991928 0 1 -1
920 1 20.30098791773207 9.271029936223394 10.637861638667749 0 3 1
273 1 22.126466150401246 7.407569045651253 12.575065894463412 1 -2 -1
721 1 24.477738513788154 9.242096133474758 12.409837033453643 0 -1 0
495 1 0.7593896951502441 10.40106377874499 11.043653900529547 0 0 0
500 1 2.2259055223344717 12.022481340085607 12.667959174507837 0 0 0
244 1 7.0153168401006765 10.641337941670692 11.20958957368492 0 2 0
266 1 8.695061769709719 12.233173921310213 12.725101324098683 1 -2 -1
532 1 11.10611709375583 11.552217492144447 10.303759405066364 0 -2 -5
1341 1 15.404547594647287 11.947436828370387 12.437889785311269 0 3 0
707 1 16.981813539565454 12.413678532961448 10.142618302804358 0 2 -1
234 1 20.920268011572265 11.807516957681267 11.34471368961135 0 -2 -2
872 1 23.617595809772197 11.556776652988823 11.109082722009198 0 2 -1
493 1 3.720907936655578 13.449440629032658 10.640390760369057 0 0 0
354 1 4.931157965737883 14.845890021682678 12.530458213165057 0 0 0
968 1 10.240218405894286 14.09612608254276 11.434662506877286 0 0 1
834 1 12.954641069717377 15.381825751899806 11.03690963306497 0 -2 -1
674 1 19.216898427175806 14.055207273838015 10.28529250667577 0 2 -1
983 1 23.42583612804764 14.635592409332038 11.192626155213546 0 2 -1
432 1 1.6707270361484636 18.137638398738396 12.60340243853671 0 -1 0
490 1 6.6145719564169365 16.432710280917338 10.796458922076958 -1 -1 0
133 1 8.074500792629799 18.436577555162653 12.033469143861115 1 -1 -1
592 1 10.44062805469962 17.1602017406117 11.438389858642957 1 0 1
781 1 14.27027222281628 17.836827336025085 10.485024552703436 0 0 0
32 1 17.696026332527932 16.192480385608484 11.357773901011385 1 0 -1
1000 1 21.14454047533196 16.127428479515977 10.95956380705539 0 2 0
464 1 3.2812679433099663 19.549902990637754 11.098032699766993 0 -1 0
436 1 4.8255740357096535 21.25046387748854 12.554110213387885 0 -1 0
391 1 7.6920089730571 20.540512947956138 10.269289786036296 0 -1 0
388 1 10.076355764258233 20.926564614500506 9.699947302626649 0 0 -1
179 1 11.16972606285341 21.360967899714623 12.47058006487606 1 0 -2
579 1 14.97773552733876 21.981050808722703 10.099033352257452 0 0 0
1552 1 17.15288008289382 20.282182059505267 10.72964467049115 0 0 0
921 1 21.004886000445865 20.80388648703032 10.147046731068713 0 -1 -1
6 1 23.203922442961957 20.361733731745055 12.698038750544077 0 -1 0
1492 1 24.289666590195846 20.81266019882143 9.94798907831764 0 0 -2
1720 1 0.60161919915012 22.810478702162836 10.945210053850474 0 -2 1
437 1 2.1348582555994597 24.37564479650194 12.712392822194463 0 -1 0
426 1 5.391535558762067 24.897721906763035 9.725037090060495 0 -1 0
460 1 6.7907663166807755 22.91865075112723 11.391391973431968 -1 -1 0
37 1 11.7618762841055 24.848899265180027 10.06290458988237 0 -1 1
249 1 13.269936771386012 23.113706804991647 11.882387611889806 0 1 0
393 1 18.304929046329207 23.174041531499142 10.448288882411626 1 1 -3
248 1 21.095823363565046 24.06548313012243 10.900568816953081 0 0 0
447 1 2.0389671030757253 2.8511791357954785 15.772391335132953 0 0 0
346 1 6.990727500431295 1.1092927881846635 14.161974627161557 1 -1 0
334 1 8.270113691740562 2.767165973773711 15.899445282753485 0 -1 0
717 1 11.31028390519983 2.611675356908743 12.999001868452186 0 2 2
183 1 16.264222164200852 3.075951708110216 15.646080276004279 1 0 0
138 1 18.383220344030626 1.2661133751168423 13.636361481957477 0 4 0
43 1 21.174838946191766 0.42999284720188397 13.56992217700257 0 3 -1
496 1 2.401180769647164 5.787555082180129 13.109859522809941 0 0 0
433 1 4.1146416772586605 4.078066506926049 14.511407010499328 0 0 0
49 1 8.36892664631278 6.120349314545494 12.865874507010224 0 1 -1
644 1 9.71706200985876 4.38870078597316 14.491227494789017 0 2 1
881 1 16.454118605183858 6.310022921486808 14.756398325337344 0 2 1
903 1 19.963677416562366 4.714372855467109 14.990554385990318 0 5 -2
778 1 22.580242363554582 3.843295797574378 14.27874154106452 0 0 -1
360 1 24.97393806830027 3.9044847075252727 15.47023010228717 0 -2 2
1912 1 0.6219303435025995 6.943300203893855 14.555501326762624 1 -1 0
497 1 6.727879329821641 7.495382635143853 14.269225165761126 -1 0 0
339 1 8.178786687755935 8.837273255431711 15.888507298870785 0 -1 -2
196 1 14.082708998357717 9.139630156760143 13.09895242115096 0 0 -4
583 1 13.524370473917223 6.579949425127356 13.344710808402123 0 -1 -2
902 1 15.99725855919028 8.741655824291225 15.918450804462461 1 1 1
371 1 21.602365198251366 7.766053658374966 15.303245355360472 1 0 -2
499 1 3.588956431312388 10.386144545992837 14.369103974215914 0 0 0
268 1 5.24215837403672 11.968375032582488 15.799144929075531 0 0 0
98 1 10.101064537322516 10.562030403800543 14.4637009575842 0 1 1
278 1 17.247625758079998 10.139787266660527 13.800792951345537 1 -2 -4
120 1 19.69827243282262 11.492034206672948 14.305903835708 0 0 0
198 1 1.902569943234517 15.44956253280976 15.521933981399908 0 0 0
1678 1 0.5665444049280316 13.461563938033015 14.22891839436101 1 0 1
392 1 6.586611704441864 13.753472129831612 14.144763652334492 -1 0 0
79 1 8.249380249619556 15.63263453516716 15.533142480030003 1 -2 -1
1030 1 14.63316562333034 14.922482244211425 13.321841467218368 0 -1 1
333 1 17.466194562582093 15.298177565357237 14.212671298469525 1 -1 -3
157 1 21.813087776354514 13.817809821381124 13.65608053617379 0 1 0
636 1 24.788819024849843 13.179356459978525 14.301934681179006 0 -1 -3
670 1 23.248481177839462 15.873107429900385 15.670414442893453 0 0 1
151 1 3.6851203789813782 16.651222693165394 14.062873588949873 0 -1 0
177 1 9.234013445973545 18.15096497405641 15.028018907626677 0 -2 0
3 1 11.780697306290515 18.540132550370767 13.68009413153265 1 2 0
629 1 14.322208199839158 17.476956589487187 13.289133118418222 0 -1 0
240 1 16.313607423097466 17.874864557573513 14.94638599611939 0 1 -1
127 1 20.2664144171041 16.434457451464326 13.505651600908298 0 2 1
149 1 20.5828754168645 18.265211850651035 15.914814207602157 0 -1 -2
569 1 24.631295605857495 18.18306024889517 13.63586351364606 0 -1 1
444 1 2.064035673163996 21.50362521063574 15.83694525220412 0 -1 0
434 1 6.545939184149011 19.90696383340087 14.259094946039058 -1 -1 0
222 1 12.517715497406726 20.781535768251544 15.655198595556312 1 -1 -2
763 1 14.948997552531035 21.860331273155065 14.562808585263578 0 0 0
1014 1 17.44638501267002 20.32461549562152 13.731022969503783 0 -1 0
270 1 20.1937869577811 19.873523504378237 13.146331074680377 0 2 -3
443 1 3.726907467677949 22.706282747713857 14.230939835779662 0 -1 0
446 1 5.307580960784864 24.48246639096906 15.602139469212895 0 -1 0
53 1 8.409330138623174 24.55243511438896 12.887179728911446 0 -2 1
182 1 10.12638698088359 22.7942188764285 14.457374004174508 0 -2 0
78 1 11.748726426454693 25.371286351217453 14.977384534874092 1 1 2
952 1 14.535842807954756 25.14563969742003 14.442719354683538 0 2 1
18 1 17.737933957799488 23.428596889021694 13.36783407543606 1 -1 -2
48 1 20.695490787563593 22.85636349746288 14.253888252698452 0 -2 1
1325 1 23.30482336677923 22.47907018173538 15.401352198257822 0 -1 -2
1440 1 23.814813467288747 23.51722125154736 12.85206064806199 0 1 -3
456 1 3.7034815933936347 0.8787832420165884 17.286045777176355 0 0 0
458 1 5.211700857863293 2.521671008297635 18.858692943851597 0 0 0
96 1 10.080350283596507 1.0747820352642727 16.958158096620352 0 1 -2
148 1 11.911791200058719 3.0809968528110154 18.181830990802535 0 1 2
788 1 15.421041312400767 1.0145748188807926 18.88245470260229 0 2 0
311 1 16.552188122161983 0.3652735534016758 16.37962500775019 0 -2 -1
988 1 19.587572855491832 2.2611076343047096 16.118538998281473 0 1 0
748 1 22.183400211571858 1.3899678465450012 15.925941740305781 1 5 -2
551 1 23.784435775260576 2.1518398368347116 18.594501841365254 0 0 -3
1995 1 0.6097048298149951 4.408723434573379 17.659497795102627 1 -1 0
336 1 5.172214613311804 5.853951033428974 16.236087469429357 0 0 0
8 1 6.634850000795462 4.416892489797706 17.580946988025293 -1 0 0
525 1 11.114164785303648 5.1389816400294945 16.665409276254763 0 -2 -1
715 1 13.634528884473172 6.3476091050024275 16.346708852102488 0 1 0
689 1 17.767594004980644 5.1169379881219115 17.391028215590495 0 1 -1
146 1 20.89119304328062 5.675162939525577 17.81736971093655 1 0 -1
62 1 23.98513116762547 5.697082726518887 17.575209989198125 0 1 -1
291 1 1.875338163813343 9.136875805006614 16.01899789920714 0 0 0
303 1 3.3856680176362035 7.630558775879956 17.558314840206172 0 0 0
52 1 4.985049980875691 9.113337063837083 19.0368058284507 0 0 0
250 1 9.99900620492969 7.415126827520942 17.571308216811463 1 0 1
58 1 11.826184949799185 9.253297833185195 18.719643873071142 0 3 -1
594 1 13.534445798773634 9.461628055310191 16.26625185365566 0 1 1
5 1 16.505819671389457 8.110670548019186 18.652049600420487 0 1 -2
340 1 24.282545471776263 8.282853487853528 16.713807615148845 0 1 -2
44 1 1.9532388563963814 12.559595802070321 18.650128287091317 0 0 0
282 1 6.637932862684392 10.508742324210893 17.60159247134048 -1 0 0
267 1 8.355864978700314 12.248380730759672 18.53804235439467 0 1 0
314 1 11.866151946082255 12.482629537369409 16.117219485054267 1 -1 -2
1249 1 13.472848792017256 12.004105609831802 18.397211468825976 0 1 0
364 1 15.507750004048683 12.255866997702519 16.012964634610583 1 -2 1
936 1 20.794181546411266 10.279641431504977 16.745284690967605 1 -2 0
7 1 22.508186601039554 12.688482255016265 16.341871963624843 1 2 2
187 1 3.496664979130604 13.752182395861096 17.09276738748169 0 0 0
370 1 4.892826491162979 15.271681955660576 18.9512462033487 0 0 0
344 1 9.770114453155307 14.022842979635477 17.201412945777403 0 0 1
614 1 11.446562211326272 15.39389974835617 18.943942664852415 1 -1 1
45 1 14.930501455971253 15.275215232140743 18.49780670049554 1 3 -2
382 1 13.273566088469565 14.692741497184064 16.000079063342532 0 -1 -1
833 1 17.26014832822486 14.02046142076098 17.765294123091316 0 1 -4
1012 1 19.076281109023657 13.759067319569247 15.924948641152914 1 0 1
740 1 20.83261600760043 15.734634830150595 16.933586838140204 0 1 -2
203 1 0.5363043646657148 16.949769693628575 17.559362097709446 0 -1 0
442 1 5.093008545327625 18.33630499876339 15.927182517301 0 -1 0
9 1 6.609498594890113 16.680775075040078 17.599164811306633 0 1 -4
2 1 8.21899272540298 18.339224939392906 19.047897517857425 1 0 -2
866 1 11.888789984394082 17.201754307168063 16.820037149469805 0 0 -2
616 1 15.734449854364193 17.995403538240478 17.766308694471473 0 -1 0
139 1 23.338294297763237 18.719138375194277 17.122665609540753 1 -1 -1
441 1 3.4907584332640327 20.02367678206749 17.343193773259383 0 -1 0
454 1 5.206302266312456 21.531902705366875 18.963060248313788 0 -1 0
399 1 8.735491249106357 21.200761768501003 16.084021415415684 1 0 -1
154 1 9.95921860858139 20.32226460796323 18.290888626839234 0 0 0
671 1 12.81361924451378 19.45935039383656 18.229537589834013 0 2 0
104 1 18.636793996058472 19.31178593712155 17.9864260580593 0 -2 -2
40 1 16.72670439690434 21.056561110336986 16.812756107544665 0 -1 -2
700 1 22.89196881228303 21.42828607529584 19.06176970483843 0 -2 1
455 1 1.9149451061024823 24.82597727849431 18.994928665403453 0 -1 0
453 1 6.747863618667869 23.190606025755873 17.311758808562505 -1 -1 0
390 1 8.40879772187554 24.79077326549351 18.788068699552802 0 -1 -2
718 1 11.769028590761774 23.243296289730313 17.111528766956422 0 0 2
951 1 18.49929775037128 23.666276827472984 16.379327420121 0 0 1
790 1 19.34615092496855 24.480111393836022 18.979605669311564 0 1 -1
527 1 22.021746139500113 23.914986202308786 17.678120147188388 0 -2 1
449 1 2.0443915881407717 2.7382448347476656 22.178761201400153 0 0 0
438 1 6.750784883595869 1.1820401343292968 20.62679596081052 -1 0 0
89 1 8.455208083122558 2.779072369743912 22.04045259412573 1 0 -1
1028 1 11.011828660394873 0.711432885359905 20.34630241447647 0 1 1
931 1 14.716960708546196 3.2287296667852687 20.056022941964702 0 2 2
1007 1 18.649130689585647 2.3552120512328383 19.07641567413773 1 1 0
691 1 21.214076053369922 3.0395487546990307 19.10705515498521 1 1 -1
111 1 21.20493517996442 0.19796034732232004 21.10933943607008 1 2 2
552 1 24.75363667213398 1.7309797685444341 21.598171608911777 0 1 -1
155 1 2.082002220858117 5.869148160763813 19.23178725349331 0 0 0
452 1 3.6549104257047818 4.126068346975638 20.519780038972232 0 0 0
285 1 5.317089589577278 6.0659618189999165 21.947983535271128 0 0 0
985 1 8.214481088422911 5.784431989765837 19.142773806534844 0 0 -1
1025 1 10.189588053741216 4.067157981429156 20.226707234826062 0 0 -1
206 1 11.882468786946376 5.8072031090201 21.796685941263824 0 2 -2
789 1 16.280115927464628 5.426129022533262 20.02031404032575 0 0 -1
153 1 17.945061555466946 4.08187250824089 21.403460140397158 0 3 -2
1285 1 21.302933238743723 3.9592559198941624 21.882359995898128 0 1 -2
38 1 19.69961822489461 6.415792431174258 21.791272227760963 1 0 0
1017 1 24.23535728070345 4.5861351183644485 22.23114157009045 0 1 0
264 1 2.1356550578955122 9.496980461357591 21.969297928452153 0 0 0
329 1 6.881156391169428 7.6182092723175305 20.520584026362926 0 0 -1
305 1 8.566213914769557 9.18912333838557 21.86161962066643 0 -1 -1
312 1 15.059351998491804 8.634015903079604 21.57945694708384 0 2 0
705 1 13.327437483296816 7.131504989570145 19.809085537912015 0 -1 -2
227 1 18.98687806942738 9.442810720526538 19.174996371422367 0 2 1
298 1 20.70612858043365 7.5279383776468185 19.539719292908725 0 2 0
869 1 22.869566080545127 9.181893089825815 19.71715654164711 0 2 2
36 1 3.7113705752507697 11.26922981998439 20.31491053481791 0 0 0
42 1 10.126484286586663 10.523892773319462 19.815199877530056 0 1 -1
1006 1 11.688061796220635 12.1182253987111 21.629996965956387 0 1 2
600 1 15.855530507779317 10.852365233262379 19.955243126717313 0 1 0
105 1 17.63734102200349 12.507973641833013 21.988807882685308 1 1 -1
84 1 21.43257921800225 11.309195162416302 19.521286470094342 0 -2 2
161 1 19.19448091327411 10.049724158386166 21.894934913821608 0 0 -4
204 1 1.9495676004700773 15.714989414306158 22.209045685591228 0 0 0
258 1 0.6001515017776572 14.167601812791373 20.435410837114127 0 0 0
363 1 6.841034900015444 13.936794971043254 20.247676217792435 0 1 1
846 1 7.789299458277352 15.58139732702466 21.98386242532927 0 0 1
116 1 13.491946194699736 14.168714198418824 20.538406147203393 1 1 3
263 1 17.75632476324196 15.046887179430296 20.28825260549928 0 -1 -1
1416 1 22.71504470363973 15.275344701355596 22.230511382287936 0 -2 0
315 1 22.80168105484482 15.490530611612193 19.08494703085466 0 0 1
1222 1 23.870467604884343 13.09547060102429 20.437391728336802 0 0 1
450 1 2.0697926764857155 18.538446982823118 19.1022543468511 0 -1 0
459 1 3.8026885122541647 17.083287452764612 20.69870316812168 0 -1 0
368 1 10.061915429196324 16.69766302806828 20.821263811656113 1 0 0
75 1 13.780895468171618 18.651935609431693 21.09725163371136 0 1 -1
106 1 15.42245560487371 16.07041269593114 21.935166833899856 1 -2 0
1916 1 16.34415226990184 18.923867940961845 21.96203002443026 -1 -2 1
4 1 19.80426157549555 16.992485428262967 19.209395579544246 1 0 0
1182 1 19.479699873411153 18.486723630813387 21.800396461093793 0 1 -1
549 1 24.311608436231644 17.92131645460315 19.76109749402677 0 1 -2
225 1 22.281506961193 18.069449540640505 21.900533127477306 0 1 -2
440 1 2.365631509627769 21.65766175783439 22.17570661674608 0 -1 0
451 1 6.627020135041949 20.15168526743092 20.75207923760141 -1 -1 0
64 1 8.483450381184745 21.692781452715142 21.848381554140154 0 -1 0
229 1 14.793829453178446 21.86087418927827 19.159551275298583 1 -1 0