LAMMPS data file via write_data, version 29 Oct 2020, timestep = 0

5832 atoms
1 atom types

0.5403259189798 56.45967408102093 xlo xhi
0.5403259189798 56.45967408102093 ylo yhi
0.5403259189798 56.45967408102093 zlo zhi

Masses

1 18.015

Atoms # atomic

477 1 55.37000524084357 10.931422422495942 5.210058236243514 0 0 0
4447 1 19.858240944722144 6.7479892621107975 2.158165979098678 0 0 0
2412 1 9.125108784342816 6.256698116409061 2.9458859264729993 -1 0 1
649 1 1.6386276212644344 24.301345318250878 2.33541745445273 0 0 0
2625 1 46.207453687573064 12.25306674446124 1.452851553946552 0 -1 1
2761 1 55.915372445988936 2.0616537774009718 14.678282777426254 -1 1 0
2797 1 17.814427827754905 5.234981869910774 3.3747227221307603 -1 0 1
3323 1 22.288687512002802 5.337966254033835 1.600838871786061 0 1 0
1798 1 22.100089865502376 12.096686275192905 17.355515342135906 0 1 0
1488 1 28.128373509464797 7.604368171023694 1.9889074217249822 1 0 1
2964 1 41.073085664437485 1.9104158468664947 9.06096152708751 0 1 -1
197 1 43.990233170908695 16.911704579704356 1.3925054804217738 -1 0 0
4520 1 56.22783539771058 26.87927878806189 8.807814718290123 -1 0 1
1658 1 30.76875770184325 27.789575469258853 15.580613842868642 0 1 0
111 1 35.46491922194275 25.724785055493633 4.835075202358984 0 0 0
3011 1 34.40366044884516 27.588559143649096 2.4438148151759718 0 1 -1
5225 1 25.35644551414163 27.457220776845656 12.376760221593766 0 1 1
532 1 41.27943244869067 13.424788994566478 1.338797576444179 0 -1 0
779 1 55.60999188246926 4.446858144215321 0.903547998768407 -1 1 1
4939 1 1.943358263281459 4.7422182165763065 3.6217816405814953 2 1 1
3147 1 29.538798833116665 0.8124753925740991 4.946577823784983 1 2 -1
540 1 24.820922109061897 2.7952914722776825 5.227389785780758 0 1 0
937 1 44.02455138839136 19.637143897567505 2.158152653121032 0 0 0
3860 1 7.382490592991961 7.198707737729565 4.678510537196979 0 1 0
333 1 12.268443891308385 9.43375957342135 2.6733215311840572 1 1 1
5387 1 19.53766495789854 9.328574857162716 2.559909015304454 0 1 1
882 1 29.381469104437894 5.808699769925017 3.78252073386831 0 0 0
4753 1 26.186052564445188 28.22808677512152 16.20362481685504 0 0 1
4596 1 47.60564598884211 24.74231380342136 2.146999935241329 -1 1 0
2559 1 38.10176007676665 22.220682222030632 1.1235694604731385 0 -1 0
578 1 20.709723777228312 22.052933295494224 0.5598599933605298 0 0 1
5820 1 18.95058253460256 2.791269545800605 1.736210879921156 0 0 1
904 1 4.804244105911453 3.02092851086615 18.513748398676107 0 1 0
5782 1 40.18191704902836 1.2768900641893293 13.47897410704064 0 1 0
3594 1 36.52471020005579 28.393604219857846 10.364661170614596 1 0 0
86 1 43.674646286316005 23.79821193537503 0.7488073838315668 1 -1 1
2195 1 16.106220623398748 0.5415644424910937 18.071659342660652 -1 1 1
3851 1 43.262626929663696 1.2843677675364644 2.7155179401762375 0 1 0
5284 1 15.607110468673598 9.528065881554497 4.956517467586995 0 0 1
564 1 1.0516984209232794 2.1311486674494358 3.37466838000008 1 1 0
4118 1 18.21485692585368 9.080837103317473 4.903946304502721 0 0 1
4559 1 25.7182687770956 6.642238959404026 0.8652969727448101 0 1 0
4342 1 21.745618567171988 2.285694389481046 1.8722458976136969 0 0 1
3871 1 22.446494631102293 9.774725858309713 2.9329088573860345 0 2 0
4149 1 25.725561476899838 10.596230455908387 6.710741007163945 0 0 0
857 1 26.88899376100251 10.181141209432896 1.5752598015328487 0 0 0
4433 1 16.302381161584574 6.249433747268454 1.346996442856345 0 1 1
2248 1 34.65671691562899 4.522365937806867 15.49660751657855 0 0 0
1094 1 42.882898303080495 1.130538823505252 6.819805030138904 0 0 1
5597 1 41.955591423465336 3.9759112324856454 1.3104957424167476 0 1 1
2505 1 45.515741265428474 3.727740551753468 1.6337180112783918 0 0 1
3734 1 48.33504682666698 4.497926917816542 1.0652873532255311 0 0 0
4013 1 51.98946809030056 7.297888256666856 2.328998690018066 -1 1 0
1729 1 22.886229627172643 2.3225080364878403 11.873885715571518 0 0 1
3512 1 9.87263326691343 1.6023669438864232 6.536947481622974 0 1 0
20 1 19.34433962371692 25.547809994006574 16.995070654952002 -1 0 0
2533 1 31.76222362995023 27.835382346291208 1.863618198083594 0 1 1
5545 1 8.80486924195709 16.3525071643449 2.7579251990034734 0 1 1
144 1 10.48491535640955 12.974974281354882 4.301514023583124 1 0 0
1421 1 11.753345630769894 12.246702754484845 1.5203749303727654 0 0 1
3941 1 3.553886843517346 28.008942162519684 16.548646554389457 1 1 0
1721 1 14.14505799032452 26.433333999435764 14.244321689976937 0 1 0
643 1 23.2877992713169 12.403948481198567 1.0529357996183872 1 1 0
1842 1 30.265288702315836 11.399762119462869 1.4563048825285492 1 0 0
3718 1 33.686839890750164 10.113470497224345 2.7755636068773266 0 1 0
3859 1 10.634998179215488 0.6657321677341803 1.7018564132523821 2 1 0
3544 1 14.787929748983396 4.297979591408588 0.9383279189484088 0 1 0
380 1 24.950512701238782 1.9083332115833567 8.030596214233924 0 0 0
5375 1 17.798583573920883 27.080919100394986 11.489505872930941 0 0 0
4799 1 55.97014383355507 13.104802584526844 3.0224206817762256 -1 0 0
2368 1 22.862170378845466 21.334906215935764 16.966167398987416 1 0 1
780 1 13.64772265809891 25.49328976987891 9.985556073122 0 0 0
4134 1 44.68414875854276 6.81511132674336 18.67558270174933 0 0 0
1005 1 29.598819291243586 1.5848970432942429 8.098617103094085 -1 1 0
4936 1 42.3437159007852 27.36145967950501 14.918673345947715 0 0 1
5046 1 24.712211544891478 13.671801634861003 3.6502697380606226 -1 0 1
3645 1 48.58121562395566 1.7035523473419327 1.005918075789162 0 1 0
751 1 28.0669889119494 27.87265624411914 1.8287243844070624 -1 0 0
2386 1 27.36600492432208 17.158562073764003 4.812787867672469 0 1 1
3867 1 49.99050866156058 27.481603575567274 5.505584670525583 -1 0 0
706 1 52.3339344761021 22.37171763506693 0.5898965439457032 -1 -1 0
2100 1 36.64131943283169 14.728936095091262 4.944912682570667 0 0 1
5013 1 33.89439978497418 13.116355219205017 3.950335723695152 0 0 1
3813 1 43.7836531505594 24.02841822986644 9.752635218005075 1 0 0
4409 1 39.0937627537123 15.09862491078015 6.278797851525574 1 0 1
4971 1 45.67046769845028 7.638432113374254 3.1874651870353268 0 0 1
5519 1 43.72999824557199 12.96554878207198 2.964653892595382 -1 0 1
1986 1 47.074651619039685 12.04489521605122 4.462489133486416 0 0 1
349 1 56.172709607691814 2.2542822915250715 17.65782472130498 -1 0 -1
4984 1 48.91303634097767 10.006744420475888 3.1522241476736825 -1 1 1
5019 1 51.277238932588475 11.526845921153022 3.831634443772623 0 0 2
439 1 33.945717439293176 22.874305004030706 2.5448533874111967 0 -1 1
2774 1 2.834814053852639 13.481101267260625 2.3256631829579657 0 0 0
1891 1 13.751305099220478 14.03121689345955 1.5764239303644667 1 0 1
5219 1 29.45224042659946 27.879468414951297 13.40278467154573 0 0 0
120 1 20.274559351524577 19.356548894294892 6.0828721164209645 1 0 0
4836 1 23.691511815359295 18.90149144865544 7.268264903924272 0 1 2
5283 1 29.460383586059198 13.442925212815764 7.626651282516984 1 1 1
2583 1 55.06512602509375 26.924776367288608 13.497520181734796 -1 0 1
3945 1 17.58327055869158 26.9977741101313 8.502785251460592 1 1 0
2305 1 37.25844940785433 17.55512586129913 6.430147819833318 0 0 1
4600 1 39.95576651854168 18.10645218725437 7.446897303312251 0 1 0
3980 1 41.432956349594974 16.459076069849406 2.000353490201749 -1 0 0
2636 1 38.88017252319504 12.408585214717153 2.075978223988834 -1 0 1
1657 1 45.100504294389125 15.364174084973927 3.130454938304622 0 -1 0
3080 1 44.56074063292762 17.464524424715723 4.946688315419259 0 0 0
3927 1 27.642875298450416 25.260226522902737 1.0813162070601843 1 0 0
4119 1 51.43927984957709 18.84037085050076 3.4627833427834687 0 0 0
4100 1 56.34449609243275 19.816024906457024 2.7022876473018456 0 1 0
3770 1 2.3627475615605817 17.0290396738114 2.4597047086664903 1 0 0
5249 1 33.584361058959786 25.563217273422158 17.12811832628186 0 0 0
3414 1 34.01663028636172 1.5755318487639243 5.23034354934414 -1 0 0
2577 1 17.966574486081026 1.2300438833904814 8.553387171860168 0 0 1
3892 1 17.835211869719632 20.609469191506808 2.4718344064537954 1 0 1
4906 1 11.643559788219424 24.95692386741502 5.201058795580712 1 0 1
1321 1 16.486449628796127 17.219542080230642 2.7472355900156327 1 0 0
2597 1 19.162781343759733 18.15858451945071 2.9752103945064716 0 0 0
4787 1 24.99929044639803 22.444588738150582 4.305613694417724 1 0 1
4846 1 22.83999144117221 18.205772661484033 4.6872509320076565 0 1 1
43 1 22.67411630206651 20.301489478949872 2.7396652333322775 0 -1 1
2789 1 14.594835977228737 26.18769152307542 17.44953629643898 0 -1 1
4492 1 34.20965016113078 16.481666791652124 5.251348395399903 -1 0 0
6 1 18.87851457928316 2.7783709894877004 4.83632283904971 0 -1 0
1477 1 40.30736384176744 19.082287971713814 2.5849583904682456 0 -1 1
5556 1 41.95629495696285 22.155718673769364 6.298762723092489 0 0 1
3696 1 46.66309123288518 19.191114572804658 3.763975334551936 0 0 0
1564 1 44.194837531095004 20.331697976340966 6.50204451628294 -1 0 1
4658 1 54.03527482292819 18.995136159604776 4.473306286580195 1 1 -1
4770 1 3.642370487862359 19.68670603951087 1.8951205560617226 1 0 -1
362 1 27.134221757205783 16.371070536647338 17.843552090294253 0 0 0
2055 1 8.156118423351044 25.339281570290677 3.8753430360851273 0 0 1
2727 1 41.25863069288597 24.22362765022862 2.5549057015861374 -1 0 1
3024 1 21.447953412802253 7.752350150483087 17.615910661486076 0 1 1
3385 1 12.146511890012041 2.8458820355106322 10.209993240235093 1 0 0
2056 1 20.21819258944401 25.530793059065033 4.559844466412859 0 0 1
1925 1 30.966690725210277 4.0716325529546396 1.2469684047858496 1 0 1
3729 1 26.43031796172285 24.659179286451074 3.884910740454344 -1 1 0
2267 1 32.76703183703489 25.658588912770952 5.517948727859594 0 0 1
1039 1 34.8807601312958 18.693512472542704 3.7929790437309343 0 -1 1
3705 1 36.82733968168955 22.555039217434913 3.5402518219832744 0 0 0
2430 1 2.4107376139568077 0.6526661966077937 1.1660277061818345 0 -1 2
1881 1 43.30036783893321 24.47550895082049 7.092827998142348 -1 -1 1
4615 1 48.31169704381614 22.11579569475018 2.782079117768228 0 0 1
2905 1 6.995285140840148 3.1592606000358567 9.588373339497354 1 0 1
3481 1 51.996795519677974 25.915356701976496 1.4465676479738585 -1 0 0
4696 1 56.3064679197288 27.12339380997237 2.907483152141495 -1 0 0
3759 1 32.37818439268139 23.323611537787357 17.327276738914 0 0 0
666 1 32.89176501718258 3.9201295004273624 3.780795037424085 -1 0 0
1165 1 18.556976151646747 8.475700107924665 17.104765886272464 1 0 0
4947 1 48.1313248791938 0.7407079323068367 16.453057692344373 -1 0 0
2348 1 35.3884519155165 7.464206836017388 14.91584271671181 0 1 1
2052 1 20.57316478759086 5.493981337013729 19.01750810487518 1 0 1
1252 1 18.840093896275427 23.799636267586287 2.4831672707713186 0 0 0
2087 1 55.985177212857295 11.111822308304305 0.7992411786241805 -1 0 0
5361 1 43.857960029260056 26.926303257458635 12.678402203158102 0 0 0
4803 1 27.828910547813294 8.328497094704945 18.094318364882405 1 0 -1
5218 1 36.20825081618696 23.434607541974774 6.351940565397388 -1 1 1
1471 1 11.434971356256655 16.963835391483386 3.787827960549482 1 -1 0
2696 1 48.121542759369476 25.18244119434333 4.949124553791673 -1 0 1
3200 1 2.013196575588005 6.122457682742643 0.8007100712687378 1 1 0
978 1 33.892458041451164 18.272896557420967 1.0170568506890683 0 -1 0
2998 1 54.079021757792106 15.390967338360932 1.9374078006117061 1 1 0
4890 1 40.38352410829674 27.193622217583652 18.605932725898125 0 0 0
707 1 5.771565714891344 3.842839184475921 2.996245906649144 0 1 0
1709 1 34.827050566820276 3.368133077463457 12.748374170702002 0 -1 0
3444 1 6.111979604967567 1.7548155453615994 6.521316477622163 0 0 0
988 1 4.054814742146176 3.2382456290293056 5.344751777482497 1 1 1
165 1 12.645701037549038 2.640999071766286 6.182971866320621 1 1 1
4529 1 31.267870439119452 28.391969735088008 8.968057654007938 0 0 -1
3294 1 16.127733334262516 2.79009536027536 5.3347724567124715 0 0 0
3850 1 34.5235845322066 21.607635809341343 16.632732481894802 -1 1 -1
889 1 5.762251342549019 28.31580799954666 7.633091458487222 1 0 0
2784 1 10.851241646137003 24.97573701397184 10.800350054255373 0 -1 0
613 1 51.03420230506336 0.7224541583137187 12.013759472432238 -1 -1 1
773 1 37.00631529716934 2.5434205420271674 2.7813908086387764 0 0 -1
5499 1 9.114010239961827 27.00557187427401 11.24425699487562 1 0 1
946 1 30.817957151820533 19.034782075433924 14.959974036808754 -1 -1 0
2452 1 6.487972963877197 23.717325667877102 0.9226653347911101 1 0 1
592 1 37.1149386958751 18.079304980579536 1.7731615069288293 0 0 0
3301 1 5.267074114870966 8.097765250985685 16.55055618466317 0 0 0
1149 1 4.578498974550079 6.513359437879412 4.136264846310489 1 0 1
5502 1 12.643750327712562 5.559510958861803 5.780091166173229 0 0 1
5143 1 10.577843844419428 5.894328491931117 7.537593682976321 0 1 1
5100 1 18.13618420054068 6.415692969668067 5.75856815877499 0 0 1
3253 1 16.04694004490431 6.34965132630475 8.725311573043847 0 1 0
3223 1 22.629007723337242 5.613240600119653 8.117547432359217 0 0 0
3940 1 19.91908699989202 6.595663848092842 8.407961374855034 0 1 0
4450 1 21.361871103111543 4.242047530639694 5.8256699954609665 0 0 0
5317 1 26.227952940404364 8.741984154288769 4.607503930007046 0 1 1
4933 1 18.08429212783254 28.446752296218296 2.8654610127517914 1 0 1
526 1 24.750277141395532 6.68561077138243 6.064444696086381 0 0 0
2713 1 31.70939522329981 7.193444975636773 1.5501573053743278 -1 0 2
188 1 36.39702856785887 1.6317914336504578 6.4565646108207675 0 0 0
1303 1 35.28843530227253 4.928612792041125 2.878691206056175 0 1 1
1781 1 39.902295268377046 2.3612837221904486 2.8809039846223197 -1 -1 0
5077 1 46.485753402328825 2.7090847708538317 4.059566457560203 0 1 1
4981 1 49.00683758491121 3.1874053357606416 5.382795653024669 0 1 2
3003 1 48.74271408811504 2.3558089624134433 8.12558757151887 -1 1 0
4956 1 51.10738107615137 2.6038246020935714 4.015048591260811 0 1 1
5803 1 53.73650598556742 2.2171642739166355 3.014667009251607 0 1 1
3749 1 54.16141625641309 5.259241281215559 3.265455286046947 -1 0 1
296 1 4.618934631749828 7.612398918361273 1.8452941450510414 1 1 1
4578 1 1.4818026724151958 8.662245939315168 4.565342699739054 0 0 1
5110 1 9.87052692942554 10.287643719810639 4.126740862432667 1 1 1
5119 1 12.653112967799231 8.697738130478278 5.675095490881016 0 0 1
2632 1 11.777274331845625 6.566141934645242 3.325807564820447 0 1 1
695 1 17.293126170936677 8.702924627423519 8.241672956822121 0 1 1
193 1 15.01952744521207 8.518848478869524 2.4505869252802053 0 0 0
5553 1 22.889038507189696 8.811096225162098 5.779370923535089 0 1 0
505 1 29.261335677412514 7.123080815133865 8.00462465672407 0 0 0
871 1 28.853073673625026 8.166464070883999 5.16909789375244 1 0 0
1365 1 37.81328749725883 6.494079178099539 2.0863787986350015 0 0 0
1556 1 36.42431430737787 8.82508401551586 3.6377704073959927 -1 0 0
3245 1 52.98397518241467 3.9081251807797774 6.050831988915494 0 1 0
3728 1 55.097433786534964 6.914488812803529 5.257970840501735 0 1 0
942 1 7.153598842467765 9.48937197769903 3.3119147712667685 1 1 0
3885 1 7.932868014012378 13.317685695294974 2.933178876137305 0 1 -1
354 1 21.59370719796282 16.143906733093495 3.4194277179288677 0 -1 0
4167 1 20.588184666964214 9.407913621407195 7.318865538199296 -1 1 0
1651 1 23.60091377499938 11.82196089406044 5.008081543821183 0 0 0
1484 1 27.191327242310987 12.103489358587003 3.707027481111664 0 0 0
4349 1 26.676955034881352 13.105481194021193 8.645256377890416 0 0 1
269 1 26.96030682796826 17.36158938526706 1.752635303786134 1 -1 0
2254 1 38.138655763119814 9.898821921116872 1.7260623322539537 0 0 0
2204 1 44.67271929131125 9.839571895394823 4.296331328976291 0 0 1
3353 1 46.20821285449516 6.959113826199105 6.454610394910724 -1 1 0
4016 1 48.89444630251475 6.925763544251842 2.897078570938056 -1 1 1
1536 1 51.246884714970676 4.074229768823785 1.568173081426665 -1 0 0
821 1 53.169143978707595 10.608177374482572 1.5188377680279548 -1 0 0
2650 1 1.936952304367501 10.839345058335933 6.604585468073599 2 0 1
3224 1 55.594056947153035 16.73362955610327 4.084490373408559 0 0 0
2396 1 4.257333710053588 11.385739368688714 2.9136842838505737 1 0 1
4979 1 5.771230644634071 15.283540622949548 4.132017572713343 1 0 1
5025 1 8.034475590997456 15.832310991347613 5.774664540966182 0 1 1
605 1 15.366487285126171 12.03279937587742 4.094241586153602 0 0 0
307 1 19.32793941952298 13.100057007197167 1.6127574645042013 0 0 0
928 1 21.09559978848695 19.18222809252989 8.504403983179639 1 0 1
745 1 21.552642951314464 15.761192234011554 6.406841578619586 1 -1 1
691 1 25.013168484334095 16.010638212927294 5.469836861227746 0 0 1
52 1 29.277279784885845 13.789595183241502 2.3019667762347105 0 0 0
4264 1 35.924979948802886 12.455092696765123 6.4526116781463 0 1 0
4253 1 31.250934619557444 11.637912709156858 5.147273155845177 0 1 1
1263 1 41.25979885677553 15.888702129833435 4.550640449507392 0 -1 -1
4346 1 42.906952504186606 8.855834998955155 6.086187904571172 -1 1 1
1858 1 47.702546827834226 9.344740076499152 5.808909413106571 -1 0 0
1508 1 49.66861534756366 13.74457285674814 3.5025783250341798 0 0 1
5180 1 48.2204272906459 14.117500862383125 9.400434299159633 0 1 1
5415 1 48.616059223968776 12.181772281026925 7.048758948153121 -1 1 1
2912 1 55.83809133746128 16.256378993776288 6.901278839045002 0 0 0
2274 1 2.91533372806578 15.250088042169368 4.814767058252011 0 -1 1
1099 1 8.473181737900934 19.35246431094002 2.1530709962550656 0 0 0
3599 1 14.124163494293349 23.54428965706363 4.446205419008647 -1 0 -1
3339 1 13.244109936969009 12.637575065879394 8.413881955709565 0 1 -1
685 1 16.02331844410856 16.169481118948603 5.305090578035657 -1 -1 0
5069 1 22.410990790508826 24.139053141786768 3.689456933836109 0 1 0
7 1 29.644415873567848 14.454515254540402 5.128876525663935 0 0 1
5614 1 33.88309870864968 14.651137199389886 8.835369862183468 0 0 1
768 1 32.39868382890959 15.448189791964909 3.456096814253699 -1 0 0
1764 1 39.33687967920163 13.955644860614932 8.745534685693585 0 0 1
5191 1 38.886324745373116 16.000546441764413 10.619835580867694 -1 0 1
5434 1 30.202387988736593 1.3945442988662808 1.9657440484548387 0 1 1
5697 1 48.31012398644512 16.289383764663327 12.163297755446955 0 1 1
565 1 47.88494571070434 15.318698341718639 4.924189625633483 0 0 0
4353 1 48.8620506859952 16.27421074112459 7.847391586214676 0 1 0
979 1 48.44975571381343 19.41031098054324 6.990989350285399 0 0 1
1377 1 52.319610776153056 14.69650523778303 5.930930675835486 0 -1 0
369 1 4.31504352801153 21.34907174812344 3.9186960312580332 0 0 0
3843 1 5.840196591927589 17.614912262273386 2.750359064820877 0 0 0
1656 1 2.395965635169528 21.594392369500248 6.565384338504367 1 0 1
2084 1 48.26883132954224 19.778899382832623 0.9938071550610147 -1 0 1
838 1 8.922029117938175 20.856813203610418 4.266810036407858 1 0 0
3397 1 13.589548558296048 22.375388343117926 7.078247979853608 0 0 0
1461 1 20.63509313689844 22.554172010293172 6.432037135539814 1 0 0
5350 1 22.060317416996817 24.132548041928903 9.244083749716381 0 0 1
2259 1 25.167257926545243 21.01905795038996 7.39272972934502 1 -1 0
5175 1 29.288621356716977 21.4476281049832 4.828529439601777 1 0 1
1737 1 31.17989581795946 19.489891284036084 3.7800717161736452 1 0 0
4187 1 31.99050048184429 24.990401197278445 2.986221395730093 0 0 0
2854 1 35.78832575265325 16.741785436568147 8.460552444434288 1 0 1
5211 1 37.74651928803988 19.645080775351662 4.018707449043365 0 0 1
1963 1 45.758758493336245 15.730404492308121 10.339609875086623 0 -1 1
1022 1 48.189395102062235 23.3892071769513 10.932397583329097 0 0 0
1889 1 46.19567139543 19.935242846236623 8.492136878852502 0 0 1
1741 1 50.821620714288 21.589929006980732 3.5401922317393995 0 -1 1
1937 1 53.81702204296063 21.87463543129583 5.647800546832846 0 0 1
1838 1 55.05685521973437 22.291933404649978 3.035392274121359 0 1 0
1330 1 0.9066038224230273 23.43097052248674 5.274897762679834 0 0 1
4678 1 6.461679390944633 27.320444490399787 4.8158537145658675 0 0 1
1127 1 9.120359395104469 25.13632354828145 6.870647922771814 0 0 0
4043 1 14.89192006406104 20.707828512334796 3.532579730693172 0 0 1
4132 1 17.926626095551708 21.01869123279005 6.44785156568013 1 0 0
1283 1 17.684815993373714 23.991706579222466 5.402282755759711 0 0 1
232 1 4.227512479668288 25.441135103328445 1.4473506806048015 1 0 1
1000 1 24.024674370689322 25.998104657902083 6.620013131820068 1 -1 1
4555 1 26.81145064663781 25.085195190991076 6.605043982205963 -1 0 0
4877 1 29.253447367644686 24.15528566151984 3.9497772421564794 1 0 1
1871 1 38.02509577715989 26.241328378596467 5.636828865297405 -1 0 1
1720 1 37.15938603705331 21.025558090599798 8.55492994661027 1 -1 0
5234 1 39.11985081630041 23.231227803822502 4.783816084654274 -1 1 0
348 1 43.193523804271294 21.755983098327835 11.463835279837719 0 0 0
61 1 46.208438111221355 24.07629654267238 6.716440866562658 -1 0 1
2923 1 49.75986561461177 21.88895327079141 6.230089641563892 -1 0 1
2829 1 52.77675537626294 26.786920668042445 5.336069039793 0 0 0
1892 1 48.98726962543141 17.72393674176509 4.722585999087585 -1 0 1
56 1 2.911337089046292 27.83216780051722 8.621244049106247 0 0 0
921 1 21.43352522994952 27.68013355508829 17.684734839628543 0 0 0
4031 1 11.667708010652456 21.247147551708554 4.580513114063932 0 1 0
2697 1 12.272084090470297 25.30557198115075 2.0060629081693713 0 0 0
2924 1 15.394663526541862 24.630070928906832 7.602275476376748 0 0 0
3743 1 48.68325064914981 13.553938544877173 1.1150651596820316 0 0 0
3341 1 50.774602679024355 6.803870404504765 18.642018955276594 -1 1 0
1850 1 27.59138069732079 21.80478976570658 2.2786168690080753 1 -1 1
4148 1 47.83341447221184 16.597651786540407 1.7898474682505194 0 0 0
3719 1 29.658927898858327 25.654879771621893 5.979489839530466 0 1 -1
4824 1 31.920954749758955 23.790215922709745 7.595971292556783 -1 0 0
3463 1 23.18979396390837 16.154717456448623 1.2556493655511918 -1 0 0
3646 1 33.156827946902354 2.3743515573310665 8.468512460456811 0 2 0
3772 1 46.620655514222975 27.66769106408781 5.48940531547527 0 0 0
1561 1 40.53495293742009 25.362376063455716 6.890360887788673 0 0 -1
4910 1 19.612671880367948 26.64067851127591 1.2954276678824328 1 0 1
2121 1 4.127584449868021 25.620335194551554 4.4339005393485875 0 0 1
3408 1 32.19051183704684 7.439518889648655 16.245193297724455 1 0 0
2207 1 4.928976143997942 1.4693823994423754 9.011839009823065 0 0 1
3472 1 2.9626720519270564 3.3962714207120484 9.697095240258463 0 1 1
3654 1 14.78699542693199 25.86652305104634 1.5507854902187193 0 1 1
5096 1 11.608749571522944 0.701264864864618 18.96900488728266 -1 1 0
2044 1 6.56186294693414 25.059304806606296 17.56316976372547 0 0 0
2857 1 18.36006726572438 4.475354868252648 8.577201838903656 -1 0 2
1082 1 23.264181745986424 3.6430926606476315 14.124105682498943 0 0 0
5230 1 24.15623779871546 3.7636656889905393 9.548952615104573 0 1 1
1701 1 26.342003387889005 5.451165832716141 10.632980530344845 0 1 0
4855 1 38.708026345238494 15.650124984389672 1.0478012828170171 1 0 1
2373 1 30.76916314863998 3.282924568625936 10.458311050939662 0 0 1
3319 1 37.70383838495066 4.258112619116508 5.797556825302283 0 0 0
1492 1 20.46808280690762 1.7814200240430578 10.890026667099118 -1 1 0
3590 1 37.62762952667299 5.6354243812711955 8.425397409620665 0 0 0
4419 1 55.47355315214055 11.102879496319227 17.783879432101564 -1 1 0
4516 1 8.022164249232297 23.268276311953056 10.650175159223627 2 0 0
739 1 53.70823145690889 1.1523215414192212 12.57085762068308 -1 1 0
1111 1 54.961985950727225 5.44041313146836 7.8643140425422615 1 1 1
54 1 54.934698166102834 1.555395907456937 5.702956747102052 -1 0 0
1756 1 3.0664585570186005 9.002683501515481 8.350132489620261 1 0 1
1802 1 21.556990297428694 28.01533530442689 2.9882812364892453 0 0 1
4154 1 7.495195336560426 8.28792248110684 9.995641841010215 0 1 2
1625 1 8.568264021430082 7.659764735300509 7.0969938798809284 0 0 1
4587 1 14.838606414085653 9.604745913878492 11.300411093720014 1 1 0
3091 1 19.905334367756925 7.782616465307212 10.981370578623629 1 1 1
4394 1 22.295357267899703 9.09660172474807 11.650940131476995 0 0 0
1211 1 23.51112912989571 4.9409621759270586 4.211251593831998 0 0 0
4338 1 26.850350527370665 5.698213795624602 7.987265072058164 0 1 0
3787 1 31.576508728788944 5.713903819494441 9.433510482095507 -1 1 0
288 1 39.51695356923071 5.090473208166882 3.9854233191627633 0 1 0
2379 1 13.902632965012677 4.37995490881409 17.79414187800915 0 0 -1
5630 1 53.25391811077418 6.867580884260119 10.28060522470115 0 1 1
965 1 1.4118595108141485 6.827292092202259 9.084951040664826 0 1 1
1325 1 2.2933517972454442 9.395695162766588 2.152948653608604 0 0 1
2904 1 55.03397669999859 12.64948734416112 8.70930977795827 -1 1 0
3857 1 3.8542306489953537 8.022892861151675 6.204192446522697 0 1 0
2104 1 13.43115951079629 7.676036873365628 8.624741155176244 0 0 0
2668 1 12.048546398140491 10.006015260375952 9.8904753554638 0 1 0
1427 1 15.408436757684793 5.443085473508084 6.07074397670981 0 1 2
35 1 13.124309568493628 13.077197664864459 5.610197538707323 1 -1 0
2921 1 21.926236029231266 10.806745620622765 9.347042286755146 0 1 0
3689 1 25.181467549117343 12.543021399021157 12.872144228921663 0 0 1
3459 1 24.16483982625624 8.936714990240826 8.792015748455379 0 1 0
98 1 31.00677277710764 8.03386901456879 10.861892486117393 0 0 -1
4380 1 31.123311026252956 9.499965681702362 3.253223605826412 0 1 0
3366 1 31.967917409102768 6.335421923644684 4.267404145519092 -1 1 0
3968 1 34.61948303803098 6.866897638224332 4.590602692465155 1 0 1
4265 1 49.20085236128321 5.740410733259985 5.275455793278568 -1 0 0
2758 1 44.90963607239496 4.718939089757032 5.202555788412966 0 0 1
3596 1 47.856154123246185 1.2335473630329186 11.539355168537046 -1 1 0
2562 1 51.745364235857636 6.788105711733257 5.597145983078449 0 1 0
2008 1 52.55124955319465 10.967376177713934 8.847228292909923 -1 1 1
2122 1 55.50188594419488 8.176270087543227 10.99545965942041 0 0 1
1298 1 51.43829823165831 12.017771063620168 6.661042455115652 -1 0 0
3991 1 4.919869895401916 9.809081186664049 10.387427574150765 1 1 1
5743 1 10.446656165029625 9.744742794939143 7.00492073306395 0 1 1
2738 1 7.992544973731871 11.38669464674975 6.932334568408343 0 0 1
2326 1 19.457544987134067 14.126500764367544 4.220238659509097 1 0 1
4493 1 20.336769461521424 11.560877674134394 5.048883178255986 0 1 0
2628 1 20.79109987860299 13.256200100717924 7.535045636116274 0 0 0
914 1 24.881169157335755 11.588836647115247 10.286392065215809 0 -1 1
4540 1 24.113879249066866 13.80403121473371 7.340846774957134 0 1 1
1275 1 27.05878338169608 8.930129442303695 8.763582917841626 0 0 0
1916 1 37.75182790974685 10.31526637324312 5.899098270882016 0 0 1
2203 1 39.47548071276702 12.365971998455743 5.055508563352644 0 0 0
3154 1 41.71271944395596 7.256947130042629 4.1744065367786245 0 1 0
1064 1 44.80982939158818 10.037785144184245 9.671883557601719 0 0 1
2735 1 45.553917084822444 12.879160470839766 9.189715645554108 0 1 1
3155 1 49.84239502635718 10.399994784063676 9.492222993280226 -1 1 0
2700 1 53.06360798098609 9.122949291551567 4.310535794376187 0 -1 1
2913 1 52.12677852933713 12.204480090992268 11.323600849683588 -1 1 0
4415 1 54.99389407057188 13.744541208324335 5.659335173869311 -1 1 1
4990 1 3.930694235787384 12.765191687486311 5.755342796647627 0 1 1
1685 1 6.577836485358238 17.787962525985836 9.621481465174176 1 0 1
1183 1 5.317976063986654 10.275282407534599 5.599343631223235 0 1 1
239 1 10.160233142792203 14.368079906886944 6.81923713208163 0 0 1
5093 1 10.46523021110521 12.872178740698443 8.97285499301368 0 1 0
314 1 17.300545614005074 13.807698483175107 5.641797335029508 1 0 0
5200 1 21.059587701669127 16.58988353588762 9.3808186137176 0 1 1
5385 1 22.415908750032344 13.869230682114777 10.05076574889219 0 0 1
2001 1 23.61664144497135 14.879037550506416 13.716804965098083 0 0 1
2750 1 31.86396525960815 12.594152625554951 8.686524991913057 -1 -1 1
128 1 36.677970896965576 12.759197760878418 9.511371408298672 -1 0 0
1491 1 28.496810583190584 11.139234038191725 6.019795364351365 0 0 0
220 1 38.600343487640686 11.266039817763815 11.325021026138261 0 0 0
5593 1 41.956529846374636 11.713505463634604 6.102608876558738 0 1 1
972 1 41.468252157932355 16.93269782893991 9.969740879399987 0 -1 0
3841 1 43.482617735998886 14.023578091481578 5.473754260346253 0 1 0
3264 1 45.860249106581676 14.352926032631965 6.738645877924889 -1 0 0
1048 1 42.12563987460085 18.650857117752462 5.634138379436908 0 0 0
3438 1 45.4888581954354 15.279782129543342 13.68962612941036 -1 0 0
5644 1 51.17623303098094 7.86625570835224 8.411303717874638 0 1 0
3854 1 53.804549437355234 14.58210068084233 10.298889562005408 0 1 0
414 1 3.662703267183882 17.36656472116884 6.53052144391495 0 0 1
4195 1 2.2840728478062085 17.732242668432043 8.936824338567984 1 -1 0
1258 1 5.889791618703947 15.912726172470363 7.676878354956212 2 0 1
2174 1 13.59531328144092 15.396648036015389 3.952858290536809 0 0 1
1110 1 15.181619879116042 17.96173579923502 7.895454846392785 0 0 1
3579 1 18.856067756200755 17.03321328477798 5.655699663702803 0 0 0
2423 1 20.65113425920383 21.634206268318685 9.708414190204273 0 0 1
5570 1 17.76442389463797 19.80528215854836 10.826793287041447 0 1 1
5422 1 24.186517781283495 17.299655582354628 15.763412667851448 0 0 0
5324 1 25.59852241803073 18.488670046168007 12.520887501163624 -1 1 1
4468 1 24.44186792324845 16.704302782212114 8.448138419519287 0 1 0
2407 1 28.62766826422845 16.53323085555794 7.66904218466808 0 0 1
1017 1 30.716042217139922 15.64259803065032 9.219227411107086 0 0 0
2038 1 52.071756721029104 16.4988240990058 8.31687636349201 -1 0 1
659 1 51.82055893444151 15.716396222664008 3.5499857223955678 -1 0 0
758 1 53.93657646604902 18.915740383133937 7.24141751624063 -1 0 0
4255 1 5.497285414651836 19.28789091293042 5.212350004727351 0 1 0
998 1 4.329613234690835 20.381359406308277 8.389290646226751 1 0 2
3588 1 7.340143802031175 23.084018315332827 6.139229432603402 1 1 0
1844 1 6.503186151203249 22.697633953096194 3.640758645426597 1 0 0