
# Create simulation box of size ~50 x 30 x 30 Angstrom
#
#variable	    lattice_constant equal 6.36339
#lattice		    diamond ${lattice_constant}
region all block 0 ${LEN} 0 ${WIDTH} 0 ${WIDTH} units box
region all block 0 57 0 ${WIDTH} 0 ${WIDTH} units box
region all block 0 57 0 57 0 ${WIDTH} units box
region all block 0 57 0 57 0 57 units box
create_box 1 all
Created orthogonal box = (0.0000000 0.0000000 0.0000000) to (57.000000 57.000000 57.000000)
  1 by 2 by 3 MPI processor grid

# fill box with randomly distributed atoms
#
create_atoms 1 random 5832 3782 all
Created 5832 atoms
  create_atoms CPU = 0.000 seconds
mass 1 18.015
group water region all
5832 atoms in group water

# Define potential
#
pair_style sw
pair_coeff * * ML.sw mW
Reading sw potential file ML.sw with DATE: 2019-02-27

# Run minimization
#
minimize 1.0e-8 1.0e-8 10000 1000
WARNING: Using 'neigh_modify every 1 delay 0 check yes' setting during minimization (../min.cpp:187)
Neighbor list info ...
  update every 1 steps, delay 0 steps, check yes
  max neighbors/atom: 2000, page size: 100000
  master list distance cutoff = 6.0032907
  ghost atom cutoff = 6.0032907
  binsize = 3.0016454, bins = 19 19 19
  1 neighbor lists, perpetual/occasional/extra = 1 0 0
  (1) pair sw, perpetual
      attributes: full, newton on
      pair build: full/bin/atomonly
      stencil: full/bin/3d
      bin: standard
Per MPI rank memory allocation (min/avg/max) = 4.268 | 4.274 | 4.276 Mbytes
Step Temp E_pair E_mol TotEng Press 
       0            0    8468761.7            0    8468761.7    4349821.1 
     689            0   -62345.546            0   -62345.546   -901.91283 
Loop time of 1.50878 on 6 procs for 689 steps with 5832 atoms

99.6% CPU use with 6 MPI tasks x no OpenMP threads

Minimization stats:
  Stopping criterion = max force evaluations
  Energy initial, next-to-last, final = 
      8468761.69917001  -62344.7116255078   -62345.546356019
  Force two-norm initial, final = 1.3697435e+08 8.7292747
  Force max component initial, final = 89107039.0 2.2771047
  Final line search alpha, max atom move = 0.042406301 0.096563587
  Iterations, force evaluations = 689 1000

MPI task timing breakdown:
Section |  min time  |  avg time  |  max time  |%varavg| %total
---------------------------------------------------------------
Pair    | 1.0584     | 1.2698     | 1.3915     |   9.0 | 84.16
Neigh   | 0.03939    | 0.04161    | 0.043946   |   0.8 |  2.76
Comm    | 0.046552   | 0.16992    | 0.38369    |  25.0 | 11.26
Output  | 0          | 0          | 0          |   0.0 |  0.00
Modify  | 0          | 0          | 0          |   0.0 |  0.00
Other   |            | 0.02742    |            |       |  1.82

Nlocal:        972.000 ave         990 max         925 min
Histogram: 1 0 0 0 0 0 0 1 2 2
Nghost:        1748.83 ave        1787 max        1692 min
Histogram: 1 0 0 1 0 0 1 1 1 1
Neighs:        0.00000 ave           0 max           0 min
Histogram: 6 0 0 0 0 0 0 0 0 0
FullNghs:      26517.3 ave       27301 max       24175 min
Histogram: 1 0 0 0 0 0 0 0 3 2

Total # of neighbors = 159104
Ave neighs/atom = 27.281207
Neighbor list builds = 31
Dangerous builds = 0

# Add velocity/set timestep
#
velocity all create ${TEMP} 120598 rot yes dist gaussian
velocity all create 289 120598 rot yes dist gaussian
timestep 10.0

# Define output
#
compute 1 all msd
thermo 50
thermo_style custom step temp press vol etotal ke pe c_1[4]

# Neighbor lists
#
neigh_modify delay 0 every 1 check yes

# Set fixes
#
fix 1 all momentum 10 linear 1 1 1 rescale
fix 2 all nph iso ${PRES} ${PRES} ${PCOUPL}
fix 2 all nph iso 1 ${PRES} ${PCOUPL}
fix 2 all nph iso 1 1 ${PCOUPL}
fix 2 all nph iso 1 1 10000.0
fix 3 all temp/csvr ${TEMP} ${TEMP} ${TCOUPL} 837492
fix 3 all temp/csvr 289 ${TEMP} ${TCOUPL} 837492
fix 3 all temp/csvr 289 289 ${TCOUPL} 837492
fix 3 all temp/csvr 289 289 5000.0 837492

# Run 1 ns equilibration
#
dump 1 all atom 1000 eq.water.${NAME}.dump
dump 1 all atom 1000 eq.water.icewater_289K_1atm_LG.dump
run 100000
Per MPI rank memory allocation (min/avg/max) = 3.519 | 3.524 | 3.526 Mbytes
Step Temp Press Volume TotEng KinEng PotEng c_1[4] 
     689          289    337.97806       185193   -57322.407    5023.1389   -62345.546 1.1796321e-33 
     700    120.45649     -536.013    185214.77   -57192.775    2093.6668   -59286.442   0.12242091 
     750    155.08038   -612.18478    184819.74   -56938.651    2695.4681   -59634.119   0.43643296 
     800     168.2544   -337.92731    183728.82   -56728.747    2924.4471   -59653.194   0.78750588 
     850    177.99114   -106.44504    182420.24   -56520.291    3093.6825   -59613.973    1.1802493 
     900     187.5554    117.95385    181222.48     -56334.4    3259.9197   -59594.319     1.549235 
     950    193.20562    -92.58057    180350.26   -56173.833    3358.1268    -59531.96    1.9537406 
    1000    203.83692    320.49881    179708.34   -55991.498    3542.9106   -59534.408    2.3549485 
    1050    211.83377   -2.0452898    179383.13   -55832.208    3681.9046   -59514.112    2.6673223 
    1100    210.53178   -216.61464     179122.1   -55733.355    3659.2747   -59392.629    2.9384423 
    1150    215.66896   -100.21521    178725.41   -55607.702    3748.5644   -59356.267     3.260101 
    1200    223.80872    137.67492     178358.3   -55508.474    3890.0425   -59398.516    3.6762415 
    1250    224.27192   -57.034021    178138.49   -55418.423    3898.0935   -59316.517    4.1182069 
    1300    231.77204   -417.55587     177846.2   -55292.554    4028.4538   -59321.008    4.6170974 
    1350    230.03092    175.80935    177375.15   -55207.832    3998.1913   -59206.023    4.9749448 
    1400    233.27962    324.27594    176976.92   -55089.417    4054.6571   -59144.074    5.3661136 
    1450    233.19678    214.66027    176827.71   -55002.399    4053.2173   -59055.616    5.8056833 
    1500    234.44312    -31.57305    176873.05   -54935.659    4074.8801   -59010.539    6.2656807 
    1550    234.85554   -158.53478    176901.45   -54854.582    4082.0485   -58936.631    6.7627458 
    1600    240.56782    39.929262    176767.47   -54788.928    4181.3342   -58970.262    7.2442253 
    1650    244.34715   -58.874218    176669.86   -54701.901    4247.0231   -58948.925    7.7949003 
    1700    242.44676    213.60628    176555.41   -54614.607    4213.9922   -58828.599    8.2587118 
    1750    245.91563   -298.49203    176578.12   -54525.227    4274.2851   -58799.512    8.7463251 
    1800    246.02854   -414.19172    176588.55   -54443.943    4276.2475   -58720.191    9.2305029 
    1850    249.99865   -41.009009    176394.24   -54385.399    4345.2523   -58730.652    9.7698757 
    1900    246.69395   -100.71609    176126.42    -54338.54    4287.8131   -58626.353    10.432804 
    1950      246.942    313.56698    175845.67     -54268.1    4292.1244   -58560.224    11.039501 
    2000    246.65595    197.16042    175728.88   -54223.389    4287.1526   -58510.541    11.557719 
    2050    251.69093     107.4856     175682.5     -54133.6     4374.666   -58508.266     12.09356 
    2100    252.45258    95.826434    175682.56   -54055.494    4387.9045   -58443.398    12.649579 
    2150    254.74944    310.91163    175793.32   -53976.824    4427.8263    -58404.65     13.46993 
    2200    252.34277   -243.98091    176047.45   -53957.427    4385.9957   -58343.423    13.999904 
    2250    258.61589   -76.669206     176191.8   -53893.185    4495.0295   -58388.215     14.67315 
    2300    253.38832    141.35242    176304.11       -53844    4404.1686   -58248.169    15.432288 
    2350    258.21533    -306.9084    176407.47   -53780.882    4488.0674   -58268.949    16.191324 
    2400    255.26004    174.37123    176302.54   -53721.713    4436.7011   -58158.415    17.120499 
    2450    261.70683   -22.685538    176183.73   -53668.176    4548.7535   -58216.929    17.982674 
    2500     260.3506   -248.53084    176061.04   -53638.726    4525.1807   -58163.907    18.588575 
    2550    256.63062   -129.00283    175844.16   -53570.191    4460.5233   -58030.714    19.171901 
    2600    259.45996    -108.2063    175647.95   -53513.691    4509.7003   -58023.392    19.600992 
    2650    262.44123    170.44271    175385.93   -53474.557    4561.5181   -58036.075    20.223763 
    2700    263.06321    48.254998    175201.38   -53383.273    4572.3288   -57955.602    20.891425 
    2750    268.16175    194.18919    175121.84   -53353.584    4660.9472   -58014.531    21.706424 
    2800    263.62007    234.28472     175211.5   -53295.138    4582.0076   -57877.146    22.605032 
    2850     268.6133   -554.10191    175448.42   -53219.686    4668.7955   -57888.482    23.446471 
    2900    264.92492   -229.14397    175436.06   -53168.768    4604.6875   -57773.456    24.236752 
    2950    265.66659    34.651561    175254.23   -53129.687    4617.5784   -57747.265    25.054183 
    3000    265.71835   0.31056838    175025.84   -53097.319    4618.4781   -57715.797    25.782922 
    3050    269.51157    218.96494    174795.31    -53058.03    4684.4085   -57742.439    26.689311 
    3100    267.84159   -114.19628    174645.06    -53048.35    4655.3824   -57703.733    27.689295 
    3150    270.29882     145.7558    174426.92   -53057.483    4698.0917   -57755.575    28.514504 
    3200    266.54411   -129.10367    174272.07   -53047.089    4632.8307    -57679.92    29.298193 
    3250    265.46426   -219.86562    174200.17   -52983.153    4614.0618   -57597.215    30.188265 
    3300    270.14162     137.7024    174253.73   -52955.418    4695.3594   -57650.777    31.121946 
    3350    265.81286   -28.771791    174561.26   -52966.454    4620.1209   -57586.575    32.071227 
    3400    272.02232    16.094069    174880.54   -52898.471     4728.048   -57626.519    33.084528 
    3450    273.40467   -113.30359    175138.54   -52873.494    4752.0749   -57625.569    33.991342 
    3500    274.09064   -382.01523    175230.34   -52861.536    4763.9977   -57625.534    34.860965 
    3550    272.24999    57.437306    175137.11   -52837.105    4732.0052    -57569.11    35.756287 
    3600    274.07182    198.86704    175129.33   -52823.201    4763.6706   -57586.872    36.694162 
    3650    275.06267     94.06795    175310.97   -52830.312    4780.8927   -57611.205    37.511826 
    3700    273.51269   -301.80374    175610.46   -52800.197    4753.9523    -57554.15    38.402794 
    3750    271.00217   -199.76633    175700.02   -52737.506    4710.3167   -57447.823    39.196703 
    3800    272.62288   -292.17105    175474.25   -52684.012    4738.4865   -57422.499    40.296723 
    3850    278.37753    136.45488    175008.75   -52647.075    4838.5087   -57485.584     41.59951 
    3900    278.70991     43.93597    174609.76   -52605.056    4844.2858   -57449.342    42.546759 
    3950    276.86037    295.57612    174284.41   -52600.302    4812.1387   -57412.441    43.854895 
    4000    281.36126    179.51087    174144.04   -52579.688    4890.3691   -57470.057    45.033748 
    4050      277.957    254.91806    174310.84   -52619.879    4831.1994   -57451.078    46.018337 
    4100    274.54856   -129.21179    174722.73   -52619.404    4771.9569   -57391.361    46.942764 
    4150    271.23315    -319.9783    175011.68    -52643.93    4714.3315   -57358.262    47.684756 
    4200    275.48527   -181.56996    174963.18   -52593.423     4788.238   -57381.661    48.789707 
    4250    278.26868   -217.89234    174735.27   -52597.731    4836.6167   -57434.348    49.767294 
    4300    272.21198    251.76185    174438.21   -52578.363    4731.3446   -57309.707    50.569189 
    4350    275.65418    14.341984    174221.04   -52531.589    4791.1738   -57322.763     51.66375 
    4400    281.77636    166.16729    173975.61   -52470.682    4897.5841   -57368.267    52.670651 
    4450    279.20459    325.35824     173926.2    -52419.14    4852.8838   -57272.024    53.522778 
    4500    280.95756    -25.73015     174188.7   -52396.396    4883.3524   -57279.748    54.931807 
    4550    282.17982   -248.32223    174543.12   -52345.023    4904.5967    -57249.62    56.217025 
    4600    287.71384    56.663361    174804.75   -52327.588     5000.784   -57328.372    57.675935 
    4650    279.96624   -274.24132     175065.8   -52338.416    4866.1221   -57204.538     58.65249 
    4700    279.14387    111.96249     175147.2   -52340.976    4851.8285   -57192.805    59.995206 
    4750    278.27248   -250.17922    175119.06   -52337.333    4836.6827   -57174.015    61.162785 
    4800    282.21716    -206.5797     174960.9   -52319.577    4905.2456   -57224.822    62.323037 
    4850     281.8784    234.74498    174758.83   -52341.086    4899.3575   -57240.444    63.345835 
    4900    281.87906    142.51328    174610.46   -52313.302     4899.369   -57212.671    64.538128 
    4950    286.22896   -1.6422559    174589.09   -52274.413    4974.9752   -57249.389    65.701578 
    5000     279.0981    154.06892    174616.05    -52266.86    4851.0329   -57117.893    66.929465 
    5050    286.93841    32.183076    174559.16     -52249.5    4987.3061   -57236.806    68.056342 
    5100     285.0971   -203.68769    174430.09   -52243.347    4955.3022   -57198.649    69.291369 
    5150    278.61426    168.96299    174234.53   -52209.776    4842.6233   -57052.399    70.453884 
    5200    285.17698    176.33801    174315.77   -52217.246    4956.6906   -57173.936    71.771958 
    5250    279.84261    63.646783    174602.64   -52182.234    4863.9733   -57046.208    73.067668 
    5300    282.42986   -255.52006    174816.34   -52166.044    4908.9427   -57074.987    74.249281 
    5350     281.9674    47.698961    174966.95   -52141.263    4900.9045   -57042.167    75.609071 
    5400    288.90192   -496.72185    175078.18   -52147.372    5021.4341   -57168.806    77.105951 
    5450    280.12491    -16.22004    174982.61   -52174.215      4868.88   -57043.095    78.173767 
    5500    285.45494    228.99425    174869.29   -52132.711    4961.5218   -57094.233    79.260825 
    5550    291.65543    204.47278    174897.23   -52117.889    5069.2932   -57187.182    80.370965 
    5600    285.58817    239.08321    175030.93   -52106.794    4963.8376   -57070.632    81.494401 
    5650     286.3003   -277.18493    175129.86   -52115.951    4976.2151   -57092.166    83.034616 
    5700    286.04726   -157.52155    175082.57   -52090.337     4971.817   -57062.154    84.326303 
    5750    287.70388    98.712158    174919.97    -52096.64    5000.6109   -57097.251    85.514811 
    5800    284.53768   -43.466999    174797.28   -52098.686    4945.5788   -57044.265    86.781205 
    5850    288.39529    51.189357    174662.14   -52091.038    5012.6284   -57103.666    88.069936 
    5900    288.13544    385.76797    174555.97    -52062.23    5008.1119   -57070.342    89.286418 
    5950    287.58231    116.39506    174604.23   -52014.334    4998.4979   -57012.832    90.504377 
    6000     292.9747    196.78967    174749.43   -52000.788    5092.2236   -57093.011    92.240337 
    6050    286.18073    86.555198    174968.53   -51997.034    4974.1369   -56971.171    93.501859 
    6100    289.05906   -297.03586    175126.99   -52009.293    5024.1653   -57033.458    95.138805 
    6150    291.21928    104.81393    175238.72   -51980.488    5061.7124   -57042.201    96.362884 
    6200    284.89334   -275.11465     175468.3   -51962.455    4951.7606   -56914.215    97.829588 
    6250    288.52112   -672.12699    175423.88   -51981.192    5014.8154   -56996.008    99.558739 
    6300    289.39455    112.36904    174939.57   -51956.209    5029.9965   -56986.205    100.81459 
    6350     288.4198    204.83776    174390.79   -51960.308    5013.0544   -56973.362    102.08745 
    6400    290.64647    463.67681    174091.71   -51917.672    5051.7564   -56969.428     103.1731 
    6450    287.24698    43.060934    174021.59   -51954.068    4992.6694   -56946.737    104.59916 
    6500    285.12329    449.50838    174229.31   -51934.338    4955.7574   -56890.096    106.04835 
    6550    290.22889   -153.23353     174779.1   -51936.963    5044.4983   -56981.461    107.26508 
    6600    285.13649   -367.17037    175257.85   -51897.117    4955.9869   -56853.104    108.79863 
    6650    291.60783   -255.84891    175456.37   -51896.492    5068.4659   -56964.958    110.70513 
    6700    288.01554    26.062984    175476.87   -51928.697    5006.0278   -56934.724    112.17055 
    6750    287.05537   -132.45425    175486.17   -51949.616    4989.3391   -56938.955    113.07257 
    6800    287.84792    2.2092468    175279.13   -51938.897    5003.1145   -56942.011    114.89663 
    6850    292.66204    105.03542    175016.99   -51910.898    5086.7891   -56997.687    116.24076 
    6900    289.48283    -8.957021    174882.96   -51881.459     5031.531    -56912.99    117.71061 
    6950    290.24615    173.26353    174773.31   -51847.983    5044.7983   -56892.782    119.10167 
    7000    290.88673    -255.6231    174559.71   -51876.905    5055.9323   -56932.837    120.27664 
    7050    288.56182    196.02604    174145.43   -51886.647    5015.5228    -56902.17    121.32331 
    7100    290.98076    275.01258    173957.74   -51810.036    5057.5666   -56867.602    122.42716 
    7150     290.8001    7.9917788    174010.38   -51830.442    5054.4267   -56884.869    123.60194 
    7200    291.88284    376.66874    174066.14   -51806.491    5073.2459   -56879.736    124.59706 
    7250    288.51774    121.31331    174211.78   -51844.083    5014.7567   -56858.839    125.76118 
    7300    283.17386     14.99304    174346.92    -51901.38    4921.8741   -56823.254    127.09042 
    7350    286.84271    -170.3772    174427.34   -51930.826    4985.6429   -56916.469    128.51191 
    7400    292.72344   -44.337434    174374.29    -51903.26    5087.8564   -56991.116    129.57473 
    7450    289.31136   -8.4332071    174271.28   -51951.651    5028.5507   -56980.201    130.45223 
    7500    287.97653     87.50157    174230.47   -51942.668    5005.3499   -56948.018    131.27999 
    7550    288.43441    289.95955     174301.8   -51976.821    5013.3082   -56990.129    132.12044 
    7600    290.66955   -144.05081    174456.57   -51963.941    5052.1574   -57016.098    132.82745 
    7650     289.7479   -85.829643     174615.7   -51941.319    5036.1381   -56977.457    133.74228 
    7700    291.64176   -300.94469    174733.44   -51935.465    5069.0556   -57004.521    134.49888 
    7750    292.19546     95.45723    174744.38   -51896.278    5078.6795   -56974.957    135.57275 
    7800    286.78205    83.270274    174712.17   -51891.466    4984.5885   -56876.055    137.04692 
    7850      290.501    280.14611     174705.1   -51878.096     5049.228   -56927.324    138.19051 
    7900     299.6174    20.679129    174800.88   -51867.507     5207.681   -57075.188    139.66157 
    7950    295.79897   -370.51748    174936.98   -51825.761    5141.3124   -56967.074    141.27177 
    8000    289.52784    320.99418    174948.96   -51842.366    5032.3133    -56874.68    142.53439 
    8050    289.43599    218.50504    174988.25   -51843.511    5030.7169   -56874.228    143.64749 
    8100    294.85267   -248.88673    175039.41   -51835.951    5124.8647   -56960.816    144.82779 
    8150    292.76354   -366.26353    174936.89   -51849.701    5088.5534   -56938.254    146.27399 
    8200     291.1554    421.83225    174676.77   -51875.712    5060.6021   -56936.314    147.91057 
    8250    288.69638   -112.00567    174568.56   -51913.494    5017.8617   -56931.356    148.94073 
    8300    295.29141    60.906631    174494.39   -51908.049    5132.4904   -57040.539    149.99582 
    8350    291.78685   -186.49866    174509.44   -51897.154    5071.5774   -56968.732    151.41554 
    8400    291.26325   -34.857795    174577.99   -51889.302    5062.4766   -56951.779    152.60224 
    8450    292.31823    44.958186    174522.62   -51914.834    5080.8133   -56995.647    153.79266 
    8500     290.8646    57.703452    174414.99   -51941.929    5055.5478   -56997.477    154.89817 
    8550    286.39195   -96.305868    174456.63   -51894.365    4977.8081   -56872.173     156.2093 
    8600    287.66628   -117.53992    174542.22   -51894.478    4999.9573   -56894.435    157.86662 
    8650     286.8459   -292.66296     174518.3   -51897.462    4985.6982    -56883.16    159.46388 
    8700    292.64406    77.994196    174361.33   -51882.301    5086.4767   -56968.777    160.93906 
    8750    294.06039    273.99559    174243.44   -51922.757    5111.0941   -57033.851    162.37983 
    8800    292.89237    119.72713    174223.37   -51938.816    5090.7926   -57029.608    163.99657 
    8850    292.38355    199.54312     174332.5   -51976.163    5081.9487   -57058.112    165.25042 
    8900    289.65897   -57.456689    174519.97   -51946.615    5034.5925   -56981.207    166.92785 
    8950     291.5393   -168.33652    174730.64   -51951.455    5067.2747    -57018.73    168.98143 
    9000    287.65288   -95.226707    174869.83   -51948.609    4999.7245   -56948.333    170.94842 
    9050    288.34229    -315.9638    174840.68   -51966.722    5011.7071   -56978.429    172.20905 
    9100    284.81342    54.316832    174672.46   -51981.441    4950.3715   -56931.813    173.27601 
    9150    291.72048    198.14608    174569.05   -51968.599    5070.4239   -57039.023    174.82226 
    9200    292.35436    60.258824    174588.01   -51940.877    5081.4414   -57022.318    176.35901 
    9250     288.4695    6.2546799    174617.87   -51924.857    5013.9182   -56938.775    178.28503 
    9300     291.6201    218.64394    174745.49   -51907.386    5068.6792   -56976.065    180.14232 
    9350    290.37427    123.18354    174995.81   -51866.659    5047.0252   -56913.685    181.77875 
    9400    292.94217   -253.21724    175272.06   -51857.739    5091.6581   -56949.397     183.1398 
    9450    285.53518   -4.4783928    175445.08   -51836.812    4962.9165   -56799.728    184.95493 
    9500    290.87232   -245.68553    175481.74   -51808.873    5055.6818   -56864.554    186.30347 
    9550    289.53764   -232.99062    175350.53   -51801.286    5032.4837    -56833.77    188.04755 
    9600    297.78681   -223.42048       175162   -51787.812    5175.8633   -56963.675    189.87348 
    9650    291.79333   -119.56144    174959.32   -51784.206      5071.69   -56855.896    191.18301 
    9700    293.05622    278.88804     174768.9   -51773.447    5093.6404   -56867.087    192.11964 
    9750    295.59825    20.609803    174767.23   -51801.912    5137.8238   -56939.735    192.69102 
    9800    297.01531    120.18799    174896.86   -51801.797    5162.4539   -56964.251    193.84805 
    9850    297.27343   -12.687121    175170.26   -51811.796    5166.9403   -56978.736    194.94809 
    9900    290.71155   -448.98361    175469.19   -51773.929    5052.8875   -56826.817    195.53918 
    9950    288.30423   -216.20413    175476.25   -51796.873    5011.0457   -56807.919    196.95067 
   10000    291.87432    84.208692     175187.9   -51826.496    5073.0978   -56899.594    197.52172 
   10050     292.9263   -140.47853    174757.19   -51852.366    5091.3823   -56943.748    198.30392 
   10100    291.98059    706.95027     174251.3    -51871.02    5074.9449   -56945.965    199.43848 
   10150    293.09305    215.04524    174233.24   -51859.618    5094.2806   -56953.899    200.94802 
   10200    291.30853    167.38071    174506.49   -51869.841    5063.2637   -56933.104    202.18636 
   10250    288.74336   -187.94036    174814.57   -51873.036    5018.6782   -56891.714    203.45465 
   10300    295.85906   -236.54699    174966.21   -51837.688    5142.3568   -56980.045    204.31786 
   10350    290.75246   -199.51941    175015.13   -51823.574    5053.5985   -56877.173    205.75718 
   10400    287.38369   -34.559921    174887.47   -51837.517    4995.0456   -56832.563    207.44073 
   10450     289.2389   -84.409712    174617.11   -51889.832    5027.2913   -56917.123    209.16891 
   10500    291.15808   -0.1621417    174388.96   -51884.474    5060.6487   -56945.122    210.27148 
   10550    291.79023    211.49305    174295.05   -51845.258    5071.6362   -56916.894    212.06499 
   10600    287.29701    47.875696    174382.91   -51845.331     4993.539    -56838.87    213.24902 
   10650    290.82767     429.5474    174479.04   -51847.528    5054.9058   -56902.434     215.1153 
   10700    293.63642    15.433533    174796.49   -51861.641     5103.725   -56965.366    216.73691 
   10750    294.89125    166.96425    175024.45   -51852.064    5125.5353     -56977.6    218.77348 
   10800     291.0319   -154.56315    175093.46   -51868.955    5058.4555   -56927.411    220.58178 
   10850    290.39212   -99.045359     174972.2    -51859.52    5047.3355   -56906.855    222.01048 
   10900     288.5624    138.12448    174648.19   -51868.436     5015.533   -56883.969    223.25062 
   10950    292.26271     284.5746    174302.45   -51816.145    5079.8484   -56895.993    224.16978 
   11000    291.67276    250.41433    174106.84   -51786.533    5069.5944   -56856.128    225.74541 
   11050     289.1404    14.272971    174103.88   -51845.584    5025.5793   -56871.163    227.49224 
   11100    290.83592   -34.178738    174284.55   -51829.784    5055.0493   -56884.833    228.66313 
   11150     290.2756   -174.28781    174555.84    -51811.47    5045.3103    -56856.78    230.70646 
   11200    289.47461   -147.10656    174690.05   -51811.073    5031.3882   -56842.461    231.83174 
   11250    294.32248   -39.053246    174812.19   -51816.428    5115.6495   -56932.078    233.29627 
   11300     291.0835    167.87179    174917.24   -51802.693    5059.3523   -56862.046    234.78894 
   11350    293.99776    119.04716    175015.63   -51857.216    5110.0055   -56967.221    235.59107 
   11400    292.86339    113.74005    175143.31   -51856.726    5090.2889   -56947.015    237.23193 
   11450     291.6916   -44.787272    175295.39   -51842.522    5069.9218   -56912.444    238.82967 
   11500    293.49909   -128.66294    175294.01   -51843.295     5101.338   -56944.634     239.4855 
   11550    295.38491    10.657313    175045.64   -51888.538    5134.1157   -57022.653    240.63754 
   11600    292.94416    165.98898    174773.16   -51885.462    5091.6928   -56977.155    241.52628 
   11650    290.71161    236.44487    174569.65    -51905.15    5052.8885   -56958.038     242.1945 
   11700     292.9748    375.39209    174467.65   -51917.835    5092.2254    -57010.06     243.4125 
   11750     290.5555    -2.617079    174446.95    -51935.67    5050.1752   -56985.845    243.85715 
   11800    288.95997    -1.266222    174353.91    -51983.39    5022.4432   -57005.833    244.26911 
   11850    285.41618   -17.895401    174304.67   -51965.273    4960.8481   -56926.121     245.4397 
   11900    287.80658    73.012529    174355.19   -51953.027    5002.3959   -56955.423    246.63513 
   11950     285.5728   -128.99548    174459.07   -51954.556    4963.5703   -56918.127    247.89361 
   12000    290.35983   -26.325452     174583.4   -51965.548    5046.7743   -57012.322    249.54898 
   12050    288.78411   -117.51069    174808.37    -51979.45    5019.3865   -56998.837    250.89689 
   12100     289.8799    -295.0511    174970.21   -51976.533    5038.4324   -57014.966    252.54672 
   12150    289.46362    212.10177    174962.36   -51928.009    5031.1971   -56959.207    253.02147 
   12200    293.28213   -257.50013    174937.06   -51890.222    5097.5671   -56987.789    253.87184 
   12250    290.36334    726.00565    174912.82    -51912.29    5046.8352   -56959.126    255.05444 
   12300    288.81625   -221.77336    175171.02   -51954.917    5019.9451   -56974.862    256.92524 
   12350    288.40417   -316.75702    175336.07   -51994.267    5012.7826   -57007.049    258.08617 
   12400    294.11812   -43.607522    175288.65   -51971.264    5112.0975   -57083.361    259.05731 
   12450    286.91264   -45.615498    175292.78   -52032.038    4986.8583   -57018.897    259.92223 
   12500    289.22961    58.885889    175243.57   -52036.042    5027.1298   -57063.172     261.3858 
   12550    284.28865    295.58406    175156.78   -52049.844    4941.2504   -56991.094    262.42137 
   12600    286.22387   -133.37347    175175.14   -52020.868    4974.8866   -56995.755    263.51225 
   12650    285.60143    141.45509     175129.5   -52056.725     4964.068   -57020.793       265.03 
   12700    285.77685    237.48128    175034.84   -52062.678    4967.1169   -57029.795     266.2085 
   12750    286.74611    15.740263    174988.06   -52066.893    4983.9639   -57050.857    267.90086 
   12800    287.58236    171.31114    175011.67   -52012.334    4998.4987   -57010.833    268.95659 
   12850    289.65898    34.220476    175113.62   -52005.096    5034.5927   -57039.688    270.14493 
   12900    288.37209   -289.10508    175149.55   -51993.375    5012.2251     -57005.6    271.74688 
   12950    286.90257   -66.468869    174985.59   -51985.317    4986.6833       -56972    272.66339 
   13000    286.44648    300.73947    174756.81   -51962.074     4978.756    -56940.83    274.16345 
   13050    286.79163    39.699978    174572.33   -51960.885     4984.755    -56945.64    275.01323 
   13100    290.04589    325.90628    174445.06   -51960.288    5041.3176   -57001.606    275.84198 
   13150    290.90042   -31.138558    174558.92   -51936.375    5056.1703   -56992.546    277.61391 
   13200    292.35736   -211.22252    174672.62    -51935.73    5081.4935   -57017.223    278.88213 
   13250    290.13179    147.41605    174557.29    -51927.61    5042.8106   -56970.421    280.05623 
   13300    287.39509    292.38236    174418.48   -51952.153    4995.2438   -56947.397     281.6624 
   13350     291.7578    432.27133    174380.41   -51948.845    5071.0724   -57019.917    282.55769 
   13400    289.91795    224.68355    174691.74   -51964.009    5039.0938   -57003.103    284.41089 
   13450    287.51135   -14.511101    175167.03   -51955.472    4997.2645   -56952.736    286.34419 
   13500    288.75511     118.9971    175549.78   -51976.451    5018.8824   -56995.333    288.02894 
   13550    293.45934   -505.19119    175716.98   -51960.022    5100.6471   -57060.669    289.11402 
   13600    289.45824   -38.603398    175483.32   -51969.668    5031.1037   -57000.772     289.5857 
   13650    288.38657    345.79011    175085.48   -51949.833    5012.4768    -56962.31    290.54841 
   13700    290.92305    178.54855    174836.07   -51929.271    5056.5636   -56985.835    291.54268 
   13750    291.38486    165.10638     174820.9   -51907.492    5064.5903   -56972.082    293.09839 
   13800    289.94829   -73.269711    174812.71   -51905.958    5039.6212   -56945.579    294.25356 
   13850    291.07763    43.546359    174674.43   -51948.457    5059.2504   -57007.707    295.02108 
   13900    289.71576   -140.66926    174542.25   -51899.856    5035.5796   -56935.436    296.18775 
   13950    290.64704   -100.50314    174486.15   -51896.269    5051.7663   -56948.036    297.17572 
   14000    288.18106    158.51027    174568.87   -51896.566    5008.9049    -56905.47    298.16484 
   14050    287.40451    40.159668    174798.38   -51939.778    4995.4075   -56935.186    299.74001 
   14100    288.76025   -300.45273    175045.31    -51920.03    5018.9717   -56939.002    301.50148 
   14150    287.40916   -30.762827    175123.22    -51902.76    4995.4884   -56898.249    303.70477 
   14200    283.70987    197.99773    175182.04   -51900.843    4931.1906   -56832.034    304.78895 
   14250    294.27624   -28.990567    175163.28   -51910.065    5114.8457   -57024.911    306.29527 
   14300    292.45807   -45.070919    175101.52   -51926.754     5083.244   -57009.998    307.82183 
   14350    292.69982   -185.05908     175005.4   -51952.009    5087.4458   -57039.455    309.17724 
   14400     290.3783    306.74264    174909.51   -51932.742    5047.0953   -56979.837    310.18053 
   14450    289.42589    318.39872    175042.77   -51906.509    5030.5413    -56937.05     311.4996 
   14500    293.74716   -138.48383    175231.87   -51914.005    5105.6498   -57019.655     313.7048 
   14550    290.70774   -117.83766    175328.25   -51910.486    5052.8213   -56963.307    315.07137 
   14600    291.79926   -217.14148    175385.38   -51920.625    5071.7931   -56992.418    316.38551 
   14650    292.39807    -127.7018    175440.09   -51913.532    5082.2011   -56995.734    317.52033 
   14700    287.83165   -30.610863    175429.24   -51931.705    5002.8317   -56934.536    318.79588 
   14750    288.07175   -311.92494    175331.33   -51924.053     5007.005   -56931.058    319.58083 
   14800    289.31877    38.175529    175074.49   -51915.034    5028.6794   -56943.714    320.22587 
   14850    289.61031   -62.380686    174716.35   -51930.471    5033.7467   -56964.218    321.01131 
   14900     291.1393   -67.913146    174393.88   -51969.064    5060.3223   -57029.386    321.02178 
   14950    288.31346    235.54111    174193.07   -51990.752    5011.2061   -57001.958    321.52469 
   15000     291.4419   -54.693702    174207.11   -51998.904    5065.5818   -57064.485    322.64062 
   15050     289.9842    257.32872    174309.33   -52010.948    5040.2454   -57051.193    323.91573 
   15100    289.39908    377.36359    174507.16   -52014.009    5030.0753   -57044.085    325.39218 
   15150    283.29853   -122.87651    174819.75   -51996.009    4924.0411    -56920.05    327.12443 
   15200    283.47764   -237.60079    175094.73   -51974.956    4927.1541    -56902.11    328.53245 
   15250    287.32755    60.738982    175263.79   -52013.528    4994.0698   -57007.597    328.98958 
   15300    290.11483   -48.141891    175353.19   -51993.696    5042.5159   -57036.212    329.62871 
   15350    285.42791   -261.27126    175327.52   -51942.495     4961.052   -56903.547    330.23089 
   15400    288.73693   -436.83289    175157.73   -51952.219    5018.5664   -56970.785    331.51307 
   15450    289.24268    80.633741    174796.68   -51983.351     5027.357   -57010.708    332.41484 
   15500    288.14344    285.63697    174370.86   -51947.724    5008.2509   -56955.975    333.27577 
   15550    290.92105    761.29712    174070.23   -51963.124    5056.5288   -57019.652    334.33841 
   15600    289.56183    204.00739    174081.45   -51983.783    5032.9041   -57016.687    335.36038 
   15650    289.53532    123.52311    174290.91   -52022.756    5032.4434   -57055.199    337.13882 
   15700      284.445    164.27202    174549.69   -52036.268    4943.9679   -56980.236    338.31945 
   15750    285.54873   -250.86667    174827.38   -52038.767    4963.1519   -57001.919    340.36034 
   15800    288.94933    18.821041     174920.9   -52076.567    5022.2582   -57098.825    341.41227 
   15850    284.21769   -48.312865     175003.5   -52096.519    4940.0171   -57036.537    343.19434 
   15900    285.21612    -158.2293    174857.44   -52114.081    4957.3708   -57071.451    343.81587 
   15950    290.27709    457.50977    174571.36   -52116.079    5045.3361   -57161.415    345.10797 
   16000    286.56379    385.02521    174572.51   -52087.681    4980.7948   -57068.476     346.4779 
   16050    288.00143   -258.89262     174775.7   -52136.341    5005.7825   -57142.123    347.70994 
   16100    283.81731    -122.5919    174825.85   -52182.024     4933.058   -57115.082     348.7543 
   16150    283.35102    393.60649    174762.41   -52244.457    4924.9534    -57169.41    349.56294 
   16200    283.29268    12.194474    174783.96   -52241.316    4923.9393   -57165.255    351.24234 
   16250    283.95129    165.20168    174812.03   -52227.878    4935.3868   -57163.264    352.10028 
   16300    286.87218   -33.638886    174839.06   -52185.182     4986.155   -57171.337    353.47873 
   16350    283.27685   -178.53232    174735.09   -52136.637    4923.6642   -57060.301    354.49207 
   16400    284.44976    186.74788    174547.99   -52102.386    4944.0507   -57046.437    354.67137 
   16450    285.35341   -356.60997    174441.11   -52101.211    4959.7571   -57060.968    355.17435 
   16500    282.06943    42.551529    174295.16   -52105.403     4902.678   -57008.081    356.29521 
   16550    284.09365    361.79391    174253.22   -52089.111    4937.8611   -57026.972    357.28598 
   16600    283.04176   -104.31869    174298.35   -52088.431    4919.5782   -57008.009    359.19089 
   16650    284.78442    103.71926    174269.93   -52067.519    4949.8674   -57017.386    360.45909 
   16700    288.61451   -195.27172     174249.2   -52066.475    5016.4387   -57082.913    360.77808 
   16750    287.83617    160.46523    174332.92   -52069.953    5002.9102   -57072.863    362.44389 
   16800    286.89235    198.42553    174523.28   -52077.097    4986.5056   -57063.602     363.1084 
   16850    287.33329   -104.25771    174761.61   -52030.735    4994.1697   -57024.904    364.82328 
   16900    285.60069   -225.80929    174885.31   -51987.116    4964.0551   -56951.171    365.99973 
   16950    290.47913   -89.851851    174973.34   -51979.292    5048.8478    -57028.14     366.9325 
   17000    288.13624    -31.34916    175111.04   -51957.518    5008.1259   -56965.644    368.55223 
   17050    286.29111   -258.51081    175093.84    -51969.43    4976.0554   -56945.485    369.81593 
   17100    289.08497   -143.66353    174903.77    -51967.01    5024.6157   -56991.626    370.82776 
   17150    285.42336    147.94376    174624.35   -51954.039    4960.9729   -56915.012    370.74283 
   17200    287.61801   -91.007081    174457.75   -51984.161    4999.1184   -56983.279    371.04335 
   17250    290.02331    53.455794    174417.39   -52002.676    5040.9252   -57043.602    372.19514 
   17300    288.74419   -93.118675    174433.15   -52036.018    5018.6927   -57054.711    372.80906 
   17350    286.82747    441.17335    174588.85   -52022.073    4985.3778   -57007.451    374.41368 
   17400    283.69214   -141.12814    175102.82   -51991.293    4930.8825   -56922.175    376.56728 
   17450    286.43667   -228.18418    175562.08   -51972.175    4978.5854   -56950.761    377.78853 
   17500    289.15295    -335.7271    175804.13    -51948.92    5025.7972   -56974.718    378.73496 
   17550    288.09567   -251.63863    175733.23   -51940.801    5007.4206   -56948.221    379.50631 
   17600    290.55835    155.97938    175453.33   -51948.461    5050.2247   -56998.686    380.35296 
   17650    287.19771   -91.935457       175231    -51951.06    4991.8131   -56942.873    380.80055 
   17700    289.78631   -247.28596     174983.3   -51962.057    5036.8059   -56998.863    381.44812 
   17750    289.99724    75.781494    174612.99   -51975.534     5040.472   -57016.006    381.95398 
   17800    292.71174    471.39072    174157.29   -51962.652    5087.6531   -57050.305    383.08236 
   17850    288.40295    423.25245    173869.61    -51956.74    5012.7616   -56969.502    383.20479 
   17900     287.2402   -156.95257    173805.34   -51952.387    4992.5516   -56944.938    384.70824 
   17950    292.01393   -197.05884    173812.29   -51987.723    5075.5244   -57063.247    386.57517 
   18000    291.03705     94.67065    173936.87   -52028.079     5058.545   -57086.624    388.35446 
   18050    289.97922   -326.25697    174193.89   -52029.122    5040.1587    -57069.28    390.24146 
   18100    287.30565   -90.501867    174283.72    -52031.03    4993.6893    -57024.72    391.66004 
   18150     287.8308    70.380276    174287.97   -52067.453    5002.8169    -57070.27    393.58791 
   18200    285.27842   -324.26263    174289.71   -52081.773    4958.4537   -57040.226    394.64652 
   18250    285.46187    327.66752     174247.5   -52077.244    4961.6423   -57038.887    395.83432 
   18300    284.37549     139.0672    174364.11   -52070.271    4942.7598   -57013.031    396.92583 
   18350    291.14251   -35.958664    174502.13   -52075.933    5060.3781   -57136.312    399.02509 
   18400    287.80788     4.252964     174623.6   -52111.034    5002.4185   -57113.452    401.12833 
   18450    285.45203    8.2638712    174697.74   -52135.372    4961.4713   -57096.844    402.43481 
   18500    287.07496    110.86951    174851.91   -52140.845    4989.6796   -57130.525    404.20764 
   18550    287.59064   -251.13377    175067.76   -52133.363    4998.6426   -57132.006    405.33892 
   18600    283.01743    43.414306    175106.84   -52164.391    4919.1553   -57083.546    406.76511 
   18650    280.27445   -260.87388    175121.26   -52148.811    4871.4792    -57020.29    408.46174 
   18700    281.24172   -121.88494    174903.13   -52190.172    4888.2914   -57078.464    410.15521 
   18750    280.18159    479.61421    174481.91   -52183.568    4869.8652   -57053.433      410.719 
   18800    284.53491    42.132063    174223.05   -52189.875    4945.5306   -57135.405    412.03562 
   18850    286.38093    131.73003    174029.47   -52194.486    4977.6166   -57172.103    413.40952 
   18900    284.90189    130.51964    174046.91   -52225.224    4951.9093   -57177.133    414.79215 
   18950     283.9651    2.3107144    174326.55   -52231.267    4935.6268   -57166.894    416.52652 
   19000    283.44355   -23.074834    174559.06   -52229.193    4926.5617   -57155.755    418.38991 
   19050    284.07066    116.46849    174606.39   -52207.535    4937.4616   -57144.996     419.9405 
   19100    283.89876    243.79602    174621.99   -52222.885    4934.4737   -57157.359    420.43759 
   19150    280.33747    48.289378    174729.88    -52194.21    4872.5746   -57066.785    421.99593 
   19200    287.15041   -179.83772    174900.13    -52176.32     4990.991   -57167.311    423.46429 
   19250    291.02563    27.338446    175027.83   -52162.547    5058.3466   -57220.893    424.79577 
   19300    287.72889   -307.72305    175110.77   -52144.053    5001.0455   -57145.098    426.52642 
   19350    287.42691    115.24463    175018.07   -52107.567    4995.7968   -57103.364    427.73123 
   19400    284.64894   -221.22765    174936.29   -52091.834    4947.5127   -57039.347    429.35922 
   19450    285.78941   -338.99636    174849.96   -52035.341    4967.3352   -57002.676    430.96087 
   19500    288.38613    136.65543    174636.97   -52023.099    5012.4692   -57035.568    431.72008 
   19550    289.35772    213.66239    174478.58   -52048.801    5029.3565   -57078.158    432.45021 
   19600     289.2164    187.66092    174427.67   -52095.404    5026.9002   -57122.304    432.42227 
   19650     280.8461   -225.13342    174516.36   -52091.476     4881.415   -56972.891    432.67296 
   19700    288.37706    107.64507    174603.54   -52069.187    5012.3114   -57081.499    434.28699 
   19750     286.8724    183.77054    174687.55   -52102.511    4986.1589    -57088.67    434.00018 
   19800    286.81024   -269.52876    174902.42   -52076.877    4985.0785   -57061.955    435.15817 
   19850    279.88429   -216.17659    175001.95   -52071.156    4864.6978   -56935.854     436.3907 
   19900    281.18735    291.24324    174891.21   -52041.959    4887.3465   -56929.306    437.16994 
   19950    289.03187    53.472046    174879.65   -52062.495    5023.6928   -57086.188    438.32544 
   20000    285.49807    219.05175    174921.63   -52032.185    4962.2715   -56994.456    439.40315 
   20050    287.79962   -382.78079    175107.86   -52001.356    5002.2749   -57003.631    441.07422 
   20100    290.38579    143.64131    175059.12   -51982.854    5047.2255   -57030.079    442.65664 
   20150    293.64126    -45.63157    174895.98   -51979.365    5103.8091   -57083.174    443.63136 
   20200    288.31409    252.40931    174796.17   -52019.591     5011.217   -57030.808    444.99491 
   20250    288.57282    3.3916444    174832.63   -52024.484    5015.7141   -57040.198    446.23628 
   20300    289.90756    280.36459    174816.71   -52024.881    5038.9133   -57063.795    447.06591 
   20350     291.3837    92.370252    174832.28    -52023.49    5064.5703    -57088.06    448.28487 
   20400    286.67084    3.7895006    174851.69   -52042.007    4982.6555   -57024.662    448.62998 
   20450    290.94504   -89.534981    174837.74   -52025.931    5056.9457   -57082.877    450.20477 
   20500    288.07406     107.7616    174864.25    -52040.62    5007.0451   -57047.666    451.08315 
   20550     292.1743   -220.62263     174949.2   -52031.063    5078.3117   -57109.375    451.89162 
   20600    288.30609    319.01092    174917.81   -52009.496     5011.078   -57020.574    452.54787 
   20650     288.9901    55.540525    175033.14    -52029.14    5022.9669   -57052.107    454.29135 
   20700    289.28461    137.47734    175269.49   -52042.417    5028.0856   -57070.502    456.14636 
   20750    290.80708     12.43464    175553.46   -52069.199    5054.5479   -57123.747     457.1589 
   20800     290.1631    98.715249    175826.52   -52109.535    5043.3548    -57152.89    458.93893 
   20850    291.01464   -299.45249    176051.21   -52074.876    5058.1555   -57133.031    460.18439 
   20900    287.66611   -225.31301     175938.6   -52121.901    4999.9544   -57121.855    461.69314 
   20950    287.88159    4.4217159    175515.04   -52116.235    5003.6997   -57119.935    462.09318 
   21000    293.53049   -73.479598     174971.8   -52083.288    5101.8838   -57185.172    463.24257 
   21050    289.36435    311.95156    174417.54    -52071.53    5029.4716   -57101.001    464.24707 
   21100    292.45651    -142.9343    174216.55   -52087.122    5083.2169   -57170.339    465.26516 
   21150    286.99925    258.70651     174124.3   -52106.558    4988.3637   -57094.922    466.24825 
   21200    289.37819    158.88917    174215.52    -52082.19    5029.7122   -57111.902    467.70199 
   21250     289.8743    22.105653    174539.71   -52101.394    5038.3352   -57139.729     470.0694 
   21300    285.54969   -443.63774    174902.12   -52096.171    4963.1687    -57059.34    472.43168 
   21350    281.77684    170.73172    175092.45    -52096.34    4897.5925   -56993.932    474.31773 
   21400    287.49017   -151.79692    175346.58   -52054.076    4996.8963   -57050.973     476.0206 
   21450    287.19604    -264.8962    175464.29   -52074.722    4991.7841   -57066.506    477.39051 
   21500    285.46831    29.644509    175342.46   -52050.992    4961.7542   -57012.746    478.20125 
   21550    290.02267   0.60115302    175089.48   -52048.114    5040.9141   -57089.028    479.16083 
   21600    286.92173    152.97186    174904.42   -52066.806    4987.0162   -57053.823    480.21711 
   21650    283.62588    -8.994557    174895.74   -52073.503    4929.7307   -57003.234    481.79197 
   21700    291.92918   -177.90113     174887.6   -52088.188    5074.0513    -57162.24    482.39688 
   21750    279.63937   -102.23738     174829.8   -52070.907    4860.4408   -56931.348    484.12413 
   21800     288.3121    67.247158    174639.57   -52070.182    5011.1825   -57081.365    485.71396 
   21850     289.4749    113.88126    174468.13   -52048.314    5031.3932   -57079.707    486.93252 
   21900    286.09219    39.998125    174239.94   -52057.281    4972.5979   -57029.879    487.75918 
   21950    286.75726    66.805133    174210.21   -52051.814    4984.1575   -57035.971    488.97237 
   22000    283.81541    298.28685    174414.77   -52063.064     4933.025   -56996.089    490.53862 
   22050    287.68819     122.0639    174746.53    -52042.54    5000.3382   -57042.878    492.32232 
   22100    282.96404   -97.941723    175147.17   -52037.755    4918.2272   -56955.983    494.56215 
   22150    288.27858   -436.83527    175357.27   -52000.622    5010.5998   -57011.222    495.19132 
   22200      283.996   -391.62799    175166.27   -52002.954    4936.1639   -56939.118    496.28767 
   22250    287.41353    5.4235485    174784.87   -51965.639    4995.5643   -56961.203    497.34926 
   22300    293.59371    137.28742    174504.34   -51963.885    5102.9826   -57066.868     497.9938 
   22350     287.9083    499.47758    174587.87   -51935.242    5004.1639   -56939.405    498.89866 
   22400    289.79593   -149.06928    175073.11   -51961.186     5036.973   -56998.159     501.4643 
   22450    290.11153    -172.1928    175555.77   -51922.585    5042.4585   -56965.043     504.0887 
   22500    289.92102    -382.7872    175855.05   -51906.839    5039.1472   -56945.986    506.49272 
   22550    293.46733   -131.87608    175896.63   -51912.533    5100.7861   -57013.319    507.13588 
   22600     290.3761   -78.644721    175828.33    -51926.33    5047.0571   -56973.387    508.60728 
   22650    295.15358   -344.79416    175802.01   -51940.572    5130.0948   -57070.667     509.2376 
   22700    293.55129    16.329707    175675.19   -51920.556    5102.2453   -57022.801    509.97135 
   22750    289.15964   -522.53941    175448.08   -51910.623    5025.9136   -56936.537     510.4528 
   22800    291.06025   -212.29381    175035.52   -51909.591    5058.9483    -56968.54    511.79637 
   22850    292.04152    115.55772    174677.02    -51866.45    5076.0038   -56942.453    512.85452 
   22900    289.70165    477.81013    174415.15   -51854.714    5035.3343   -56890.048    513.54816 
   22950    289.61102    142.39281    174416.98   -51797.909    5033.7591   -56831.668     514.9121 
   23000    291.40782    8.2840167    174641.04   -51809.942    5064.9894   -56874.932    516.95439 
   23050    289.24069      96.7981    174851.29    -51841.77    5027.3224   -56869.093    518.38354 
   23100    288.78059    61.560574    174926.77   -51814.976    5019.3253   -56834.301    520.86466 
   23150    291.07791   -365.77188    175024.08   -51815.424    5059.2553   -56874.679     523.2999 
   23200    292.82707    95.191635    175073.28   -51815.198    5089.6576   -56904.855    524.05194 
   23250    293.20301   -61.722201    175162.87   -51828.501    5096.1918   -56924.693     525.8723 
   23300    291.57993    -348.1616    175150.17   -51825.347     5067.981   -56893.328    527.79226 
   23350    292.89449   -103.47984    174953.99    -51825.62    5090.8295    -56916.45    528.56234 
   23400     288.2611    209.31486    174702.81     -51857.5     5010.296   -56867.796    529.22362 
   23450    286.28497   -102.19401    174566.69    -51890.75    4975.9487   -56866.699    531.33208 
   23500     289.8387   -229.07338    174336.89    -51902.21    5037.7163   -56939.926    531.90067 
   23550    293.09741    210.66693    174058.88    -51891.43    5094.3564   -56985.787    532.57392 
   23600    294.35289    498.54251     174025.1   -51908.087    5116.1781   -57024.265    533.77262 
   23650    287.11677    426.79097    174327.96   -51926.929    4990.4063   -56917.335    535.35721 
   23700    294.16135   -478.80598    174917.17   -51910.175    5112.8488   -57023.024     537.5012 
   23750    287.63237   -152.58165    175272.37   -51876.511    4999.3679   -56875.879    538.45535 
   23800    286.60331    244.02674    175514.86   -51875.448    4981.4818    -56856.93    540.23816 
   23850    288.52648    -535.4614    175797.97   -51890.036    5014.9087   -56904.944    541.18104 
   23900    290.21341   -296.24295    175699.93   -51876.232    5044.2292   -56920.461    542.00618 
   23950    291.39674   -43.893891    175346.53    -51892.82    5064.7969   -56957.617    542.70709 
   24000    287.95074   -92.036322    174892.91   -51889.421    5004.9015   -56894.322    542.64136 
   24050     292.2019    87.796145     174471.5    -51905.59    5078.7914   -56984.381     542.8805 
   24100    294.80905    528.50069    174150.22   -51908.513    5124.1065    -57032.62    543.63652 
   24150    289.86057    321.74777    174207.43   -51973.436    5038.0966   -57011.533     544.9671 
   24200    287.36127   -91.411046    174484.17   -51951.942    4994.6559   -56946.598    546.74197 
   24250     287.4842   -340.54871    174625.14   -51936.835    4996.7926   -56933.628    549.17632 
   24300    290.27601    328.30814    174570.02   -51914.704    5045.3173   -56960.022    550.55362 
   24350    294.01003   -88.098414    174520.86   -51880.489    5110.2188   -56990.708    551.71682 
   24400    291.66671    37.776456    174512.24   -51854.948    5069.4893   -56924.438    552.28858 
   24450    290.35616   -218.83418    174550.63    -51869.17    5046.7104   -56915.881    553.92274 
   24500    293.34781   -41.584018    174513.92   -51852.317    5098.7086   -56951.025    555.25132 
   24550    292.04409    69.456849    174534.71   -51851.107    5076.0486   -56927.155    556.34017 
   24600    294.73699    322.50156    174624.56   -51874.317    5122.8541   -56997.171    557.98614 
   24650    293.09019   -267.15406     174824.2   -51902.998     5094.231   -56997.229    559.90437 
   24700    293.25655    -26.86524    175034.28   -51898.947    5097.1224   -56996.069    560.93151 
   24750    286.99228    380.31637    175218.01   -51858.074    4988.2425   -56846.317    562.36126 
   24800    291.71914   -284.60445    175464.08   -51847.987    5070.4005   -56918.387    563.37448 
   24850    288.42537   -265.29035    175487.34   -51875.409    5013.1511    -56888.56    564.27241 
   24900    291.12771   -76.240024     175343.9   -51867.284    5060.1209   -56927.405    565.42354 
   24950    289.02321   -80.206561    175173.11   -51862.327    5023.5423   -56885.869    566.74467 
   25000    296.17102    405.51777    174948.04   -51895.172    5147.7792   -57042.951    568.60024 
   25050    290.81351    329.26036    174856.43   -51881.164    5054.6597   -56935.824    570.18652 
   25100    286.20509   -46.142791    174914.74   -51910.609    4974.5602   -56885.169    571.33706 
   25150    291.54926     234.3755    174889.63   -51908.569    5067.4479   -56976.017    573.68034 
   25200    290.91692    -137.0145    174925.27    -51903.68    5056.4571   -56960.137    575.02267 
   25250    292.85192    94.555282     174954.2   -51897.762    5090.0895   -56987.851    577.32578 
   25300    289.16019   -349.64645    174998.32   -51886.773    5025.9232   -56912.696    579.01027 
   25350    293.01064    84.158486    174787.13   -51875.098    5092.8483   -56967.946    579.15915 
   25400    291.07662   -155.44781    174687.68   -51834.051    5059.2329   -56893.284    580.14552 
   25450    289.44306    18.008944    174677.16   -51782.419    5030.8398   -56813.258    581.32284 
   25500    290.24189   -243.50552     174707.9   -51779.688    5044.7243   -56824.413    582.07231 
   25550    295.64427    97.824255    174627.09   -51745.031    5138.6236   -56883.655    583.59388 
   25600    293.74982    276.51789    174583.01   -51784.194     5105.696    -56889.89    585.94915 
   25650    286.73525   -55.631951    174735.12   -51792.315     4983.775    -56776.09    588.19324 
   25700    298.04398    245.93471    174858.89   -51808.168    5180.3332   -56988.501    590.19559 
   25750    289.96667   -477.17884    174954.21   -51802.171    5039.9407   -56842.112    592.29139 
   25800    295.78139   -116.53248    174835.86   -51817.858     5141.007   -56958.865    593.37886 
   25850    290.56161    518.20461    174636.74   -51829.616    5050.2815   -56879.897    595.32075 
   25900    290.17219    157.94909    174670.34   -51893.409    5043.5129   -56936.922     596.9624 
   25950    291.50204    68.137979     174791.5   -51908.651    5066.6272   -56975.278    599.07205 
   26000    291.23585   -78.023752    174884.32    -51948.89    5062.0004   -57010.891    600.33054 
   26050    283.42739   -15.552675    174952.08   -51968.143    4926.2807   -56894.423    602.31197 
   26100    288.09979   -123.31631    175115.54   -51946.462    5007.4922   -56953.954    603.30245 
   26150    290.11826   -94.613898    175165.32   -51943.394    5042.5754   -56985.969    604.66337 
   26200    286.54514   -63.176645    175128.06   -51946.126    4980.4706   -56926.596    605.58668 
   26250    289.45041   -95.654379    175046.94   -51959.098    5030.9675   -56990.065    606.86935 
   26300     291.0528    197.15901    174885.48   -51989.807    5058.8188   -57048.626     607.7908 
   26350    291.13628      2.20789    174938.63   -51970.827    5060.2697   -57031.097    608.04707 
   26400    291.12388   -53.580828    175169.66   -51949.698    5060.0543   -57009.752     609.1656 
   26450    287.50498   -125.08858    175352.67   -51944.325    4997.1538   -56941.479    610.85407 
   26500    291.06212   -141.56959    175283.28   -51943.328    5058.9809   -57002.309    611.33035 
   26550    286.50563   -93.851849    175094.51   -51909.559     4979.784   -56889.343    611.93195 
   26600    284.71725    447.23006     174942.4   -51924.506    4948.6999   -56873.206    612.76438 
   26650    288.47665    132.84013    174900.54   -51920.796    5014.0425   -56934.839    613.37165 
   26700     290.8317    64.869832    174854.84   -51947.003    5054.9758   -57001.979    614.94728 
   26750    289.64626    52.686257    174804.71   -52016.346    5034.3715   -57050.718    615.82574 
   26800    291.69156     -27.1992    174839.84   -52004.811    5069.9212   -57074.732    617.14902 
   26850    282.88177    134.00699    174922.82   -51997.233    4916.7973    -56914.03    618.81554 
   26900    286.35558     39.79176    175036.68   -51985.822    4977.1759   -56962.997    620.11104 
   26950    284.49022     29.05666    175016.22   -52003.031    4944.7539   -56947.785    621.78297 
   27000    290.05995   -59.208812    174932.12   -52014.305     5041.562   -57055.867    621.27051 
   27050    284.21653     -246.965    174911.43   -52012.556    4939.9969   -56952.553     622.4553 
   27100    288.19445    174.77687    174884.98   -52022.032    5009.1375   -57031.169    623.55626 
   27150    288.92493   -177.33888    174959.98   -51990.023    5021.8341   -57011.857     625.6272 
   27200    290.85316   -65.939456    174934.81   -52026.498    5055.3488   -57081.847    627.09865 
   27250    287.31962   -214.98898    174913.68   -52025.963    4993.9321   -57019.895     628.4283 
   27300    286.51554    -42.43559    174930.16   -52012.293    4979.9563   -56992.249    629.28301 
   27350     291.9726   -55.373921    175057.12   -51972.628     5074.806   -57047.434    631.41283 
   27400    285.11382   -163.84171    175139.54    -51977.04    4955.5928   -56932.633     633.5388 
   27450    286.31462    -33.98378    175046.17   -51995.764     4976.464   -56972.228    633.91923 
   27500    292.15726   -359.05826    174906.51   -52009.778    5078.0155   -57087.794    635.36037 
   27550    288.65961    229.89404    174695.02   -51984.265    5017.2226   -57001.487    636.62921 
   27600    287.27994   -29.285037    174531.02    -52011.47    4993.2423   -57004.713    637.08016 
   27650    288.31611    123.70397    174291.65   -52020.295    5011.2521   -57031.547    638.04478 
   27700    287.71904    64.124788     174208.9   -52010.222    5000.8743   -57011.096    638.70093 
   27750    290.80416    -205.9843    174214.18   -52005.507    5054.4971   -57060.004    639.85462 
   27800    287.79085    520.37753    174100.73   -52030.935    5002.1225   -57033.058    641.02384 
   27850    285.62155   -60.729563    174162.94   -52041.313    4964.4177    -57005.73    641.75499 
   27900    287.48095    287.93379    174263.33   -51979.404    4996.7361   -56976.141    643.08134 
   27950    286.68987   -48.334145    174564.18   -51994.693    4982.9864    -56977.68    645.20441 
   28000    287.67465    -113.7973    174880.26   -51976.793    5000.1029   -56976.896    647.43556 
   28050    289.73248    209.36107     175067.7   -51934.391    5035.8701   -56970.261    648.38719 
   28100    290.20923   -273.96857    175368.51   -51946.812    5044.1566   -56990.968    650.03665 
   28150    292.01129   -99.231241    175611.56   -51942.771    5075.4785   -57018.249    651.76784 
   28200    291.26912   -337.50516    175727.54   -51941.005    5062.5787   -57003.584    653.48126 
   28250    288.57312   -202.91668    175608.93   -51921.025    5015.7192   -56936.745     655.0189 
   28300    292.05141    3.3771072    175289.32   -51943.725    5076.1758   -57019.901    655.36523 
   28350    290.34205    194.84678    174858.68   -51978.481    5046.4653   -57024.946    656.57445 
   28400    292.97806    96.543536    174500.81   -51933.686     5092.282   -57025.967     657.2977 
   28450     291.9589    255.31041    174271.76   -51961.139    5074.5678   -57035.707     658.8923 
   28500    292.49563    420.52955     174252.9    -51932.37    5083.8967   -57016.267    659.96935 
   28550    289.65654   -16.213505    174525.67   -51935.591    5034.5502   -56970.141    661.67016 
   28600    291.40366   -45.535616    174801.62   -51954.668    5064.9171   -57019.585    663.74069 
   28650    283.67364   -224.65325    175019.18   -51939.505    4930.5609   -56870.066     665.7828 
   28700    291.25517    210.75438    175099.32   -51939.421    5062.3363   -57001.757    667.90569 
   28750    290.05575   -111.84588    175154.49    -51971.24     5041.489   -57012.729    669.34068 
   28800      291.386    124.12236    175071.38   -51960.306    5064.6102   -57024.916    671.32647 
   28850    290.31626    127.61429    174871.92   -51950.791     5046.017   -56996.808    671.03342 
   28900     285.7006    -92.40315    174672.39   -52000.692    4965.7917   -56966.484    671.67962 
   28950    285.97988   -156.66647    174369.12    -52001.59    4970.6458   -56972.235    672.49386 
   29000    287.12137    530.21376    174003.54    -52004.28    4990.4862   -56994.766     672.7515 
   29050    289.61426    19.194395    173976.09   -51975.113    5033.8153   -57008.928    674.08822 
   29100    289.25423     94.99811    174027.37   -51959.586    5027.5576   -56987.144    675.09894 
   29150    294.14646   -1.8036531    174091.18   -51978.019    5112.5901   -57090.609    675.66124 
   29200    290.40529    37.409053    174239.85   -51996.177    5047.5644   -57043.742     677.6621 
   29250    283.41227   -107.66961     174406.8   -51986.758     4926.018   -56912.776    680.13422 
   29300    288.56766   -33.502308    174432.83    -52006.24    5015.6243   -57021.864     681.4328 
   29350    285.98995    17.096773    174464.48   -52020.287     4970.821   -56991.108    682.32987 
   29400    286.73208   -27.410938    174533.12   -52012.465      4983.72   -56996.185    683.31793 
   29450    286.31193    55.372217    174543.73   -52035.306    4976.4173   -57011.723    684.04621 
   29500    286.69431   -262.89529     174605.1   -52004.244    4983.0635   -56987.307    685.59448 
   29550    286.29171    226.21523    174610.39   -52043.088    4976.0658   -57019.154    687.70052 
   29600    283.67191   -249.88923    174664.63   -52061.921    4930.5308   -56992.451    688.88858 
   29650    282.92407   -173.04006    174713.68   -52076.212    4917.5325   -56993.744    690.37767 
   29700    289.51757   -77.974395    174615.24   -52079.073    5032.1348   -57111.208    691.74224 
   29750    289.50481   -101.90689    174464.28   -52096.384     5031.913   -57128.297    691.97341 
   29800    283.79772      85.6092    174195.85   -52112.077    4932.7176   -57044.795    692.71585 
   29850    291.93812    31.893428    173906.73    -52116.72    5074.2066   -57190.927    692.91912 
   29900    282.55714    249.83905    173811.38    -52131.18    4911.1549   -57042.335    693.85101 
   29950    280.89507   -32.449641    174019.78   -52153.655    4882.2662   -57035.921    695.14498 
   30000    281.10588    15.758295    174229.63   -52144.501    4885.9304   -57030.431    696.93634 
   30050    291.03419     40.72091    174328.02   -52136.281    5058.4954   -57194.776    698.77301 
   30100    290.21592   -360.82227     174397.8   -52094.104    5044.2729   -57138.376    700.82408 
   30150    290.01915    338.38064    174363.75   -52088.739    5040.8528   -57129.592    701.40947 
   30200    289.73587    266.01006    174454.83   -52058.752    5035.9292   -57094.681    703.44599 
   30250    284.54632    133.74611    174580.92   -52052.321     4945.729    -56998.05    705.16801 
   30300    284.68463   -323.37036    174637.27   -52040.339    4948.1329   -56988.472    706.24927 
   30350    289.72252   -37.753349    174434.02   -52017.982    5035.6971    -57053.68    706.72289 
   30400    292.22036    202.28702    174363.49   -51990.394    5079.1123   -57069.507    707.75175 
   30450     288.0417   -384.43749    174591.33   -51989.252    5006.4826   -56995.735    709.12938 
   30500    286.34847   -154.92612    174866.89   -51950.659    4977.0524   -56927.712    711.01018 
   30550    289.92968    -579.3611    175021.94   -51938.467    5039.2977   -56977.765    712.38329 
   30600    289.92579    144.53921    174809.17   -51937.234    5039.2301   -56976.464    713.05816 
   30650    288.16468    20.808447    174638.99   -51921.792    5008.6201   -56930.412    713.53022 
   30700    290.06778    72.643585    174570.02   -51909.373    5041.6982   -56951.071    714.95768 
   30750    288.94492    193.13532    174597.11   -51916.333    5022.1815   -56938.514    716.04234 
   30800    289.95831    157.13822    174727.24   -51916.948    5039.7953   -56956.743     718.0062 
   30850    287.92422   -155.62975    174915.65   -51935.208    5004.4406   -56939.649    720.69466 
   30900    292.98674   -0.9952474    175010.31   -51943.308    5092.4328   -57035.741    722.77574 
   30950    288.33634   -40.077081    174966.45   -52002.081    5011.6038   -57013.685    723.62574 
   31000    288.09089   -233.03431    174725.57   -52007.286    5007.3375   -57014.623    724.74383 
   31050    288.47188    229.32409    174379.84   -52034.753    5013.9596   -57048.712    724.83983 
   31100    286.93902    290.19686     174117.8   -52076.562    4987.3167   -57063.879    724.87942 
   31150    286.17284     201.8366    173953.63   -52039.207    4973.9998   -57013.206    726.08703 
   31200    287.92796    367.62445    173984.57   -52005.323    5004.5056   -57009.828    727.70296 
   31250    288.20265    20.252827    174174.39   -51975.128      5009.28   -56984.408    729.95338 
   31300    289.87074   -23.985614    174408.43   -51942.143    5038.2734   -56980.416    731.37544 
   31350    286.25902   -300.03798    174670.12   -51927.505    4975.4976   -56903.003    733.57907 
   31400    290.84239   -303.34342    174736.42    -51921.48    5055.1616   -56976.641    734.92097 
   31450    295.19868    22.702853    174583.85   -51918.862    5130.8788    -57049.74    735.34154 
   31500    288.40562    69.333561    174388.31   -51881.343    5012.8078   -56894.151    735.73687 
   31550    291.94361   -120.18558    174264.13   -51883.779    5074.3021   -56958.081    736.95344 
   31600    294.24067   -254.28708    174169.75    -51901.95    5114.2276   -57016.177    736.97261 
   31650    287.05806     73.34705    173926.75   -51901.128    4989.3859   -56890.514    738.41673 
   31700    289.17143     367.9772    173646.03   -51932.337    5026.1185   -56958.456    738.99817 
   31750    292.06685    62.834498    173636.95   -51911.474    5076.4441   -56987.919    739.53201 
   31800    292.51739    206.88442    173870.24   -51885.843     5084.275   -56970.118    741.78733 
   31850      287.951    133.28311    174339.18   -51905.068    5004.9062   -56909.974    744.63161 
   31900    289.39623    106.41737     174834.7   -51902.153    5030.0258   -56932.178    746.53049 
   31950    286.98158    89.411448     175146.9   -51902.879    4988.0564   -56890.936    749.15405 
   32000    284.79883   -138.73402    175335.32   -51919.292     4950.118    -56869.41    750.49636 
   32050    288.65169   -253.99866    175368.06   -51912.318    5017.0848   -56929.403    750.80447 
   32100    286.65837   -305.32444    175262.68   -51908.044    4982.4387   -56890.483    751.92913 
   32150    287.29331    190.25435    175192.41   -51962.334    4993.4747   -56955.809    753.27801 
   32200    287.76356   -240.85609    175081.84   -51995.209    5001.6483   -56996.858    754.32632 
   32250    286.87322   -80.292787    174802.06    -51969.16     4986.173   -56955.333    754.52632 
   32300    289.69323    162.40242    174515.56   -51944.286     5035.188   -56979.475    754.62718 
   32350    293.50566   -250.35306    174295.59   -51923.322    5101.4523   -57024.775    754.78298 
   32400     287.5697   -197.61823    174125.62   -51879.124    4998.2787   -56877.403    755.15808 
   32450    289.87707    402.88959    173992.93   -51928.656    5038.3834   -56967.039      755.611 
   32500    292.46084    11.115905    174094.56   -51931.668    5083.2921    -57014.96    758.10651 
   32550    288.29591    143.74067    174239.29    -51908.84    5010.9011   -56919.741    759.91008 
   32600    294.69394   -52.216725    174388.13   -51884.868    5122.1058   -57006.974    761.78766 
   32650    289.49971   -60.054618    174467.21   -51897.895    5031.8244    -56929.72    763.98714 
   32700    291.40849   -118.35712    174551.77   -51909.876    5065.0011   -56974.877     763.8462 
   32750     291.8651    50.335776    174672.51   -51920.777    5072.9374   -56993.714    765.06124 
   32800    289.05497    2.9880276    174926.24   -51946.018    5024.0944   -56970.112    766.07122 
   32850    287.42746   -122.91132    175189.79   -51958.765    4995.8064   -56954.571    769.33934 
   32900    292.67207   -428.04351    175340.38   -51903.297    5086.9634   -56990.261    771.69642 
   32950    290.11149    43.844997    175389.51   -51894.212    5042.4579    -56936.67    773.44784 
   33000    289.85891   -300.42259    175356.53   -51929.137    5038.0677   -56967.205    774.96263 
   33050    288.95214    162.91433    175226.92   -51956.818     5022.307   -56979.125    776.25485 
   33100    288.69299   -170.72037    175082.94   -51914.256    5017.8027   -56932.058    776.25215 
   33150    289.28325     47.78998    174674.97   -51908.429    5028.0621   -56936.491    776.16401 
   33200    287.27489    307.19059    174355.66    -51894.01    4993.1546   -56887.165    776.15937 
   33250    285.41325   -107.95341    174338.95   -51894.152    4960.7973    -56854.95    778.30537 
   33300    289.23434    86.057836    174273.99   -51901.975    5027.2119   -56929.186    778.76523 
   33350    290.34609    129.79342    174241.39   -51906.721    5046.5353   -56953.257    779.95366 
   33400     287.1491   -143.49206     174311.5   -51908.659    4990.9682   -56899.627    781.26504 
   33450    286.28199   -121.26917    174349.38    -51894.94    4975.8968   -56870.837    782.59092 
   33500    292.59355    87.838349    174315.54    -51874.95    5085.5988   -56960.549    783.66099 
   33550    289.50238    115.99853     174320.3   -51866.944    5031.8708   -56898.815    785.49232 
   33600    289.21877    219.90751    174392.16   -51881.271    5026.9413   -56908.212    786.54194 
   33650    293.51271    64.337244    174585.64   -51877.996    5101.5747   -56979.571    787.67954 
   33700    290.67518      -105.95    174843.01   -51865.393    5052.2554   -56917.648    790.04585 
   33750    290.61877    91.713628    175105.51   -51884.786    5051.2749   -56936.061    792.09976 
   33800    290.09423    58.227764    175410.68   -51880.838    5042.1579   -56922.996    793.27027 
   33850      288.573   -176.22178    175629.19   -51890.346    5015.7172   -56906.063    796.04617 
   33900     288.8036   -205.10633    175710.58   -51866.683    5019.7252   -56886.408    798.50242 
   33950    289.49804    97.483981    175591.07    -51835.23    5031.7954   -56867.025    800.07381 
   34000    293.49432    69.152392    175321.82   -51845.289    5101.2552   -56946.544     800.5943 
   34050    293.51694   -91.680881    175005.08     -51844.5    5101.6483   -56946.149    802.31425 
   34100     294.4559     70.06838    174647.76    -51817.21    5117.9684   -56935.179    802.85945 
   34150    293.18097    200.82245    174383.98    -51784.84    5095.8087   -56880.649    803.98829 
   34200    296.17812    187.05195    174342.75   -51734.044    5147.9025   -56881.947     805.8517 
   34250    296.07823   -37.115675       174463   -51724.233    5146.1663   -56870.399    807.62705 
   34300    294.77133    133.55163    174670.13   -51740.902     5123.451   -56864.352    809.73688 
   34350    290.84205   -397.46439    174856.98   -51755.224    5055.1557    -56810.38    811.26719 
   34400    295.08942    91.971718    174711.92   -51780.285    5128.9798   -56909.265    812.43016 
   34450    290.55426   -210.35438     174548.9   -51804.206    5050.1537    -56854.36    813.99402 
   34500    289.39706    175.82622    174357.84   -51840.996    5030.0403   -56871.037    815.44532 
   34550    292.11055    300.23117    174285.72   -51824.365    5077.2037   -56901.569    816.55327 
   34600    296.19536    223.53374    174471.21   -51847.715    5148.2021   -56995.917    817.99898 
   34650    288.03777   -459.04689    174745.43   -51833.753    5006.4142   -56840.167    820.01184 
   34700      292.423   -115.10871    174799.73   -51879.319    5082.6344   -56961.954    821.65535 
   34750    289.81497    431.35058    174651.82   -51888.794     5037.304   -56926.098    822.71544 
   34800    293.26609   -15.685318    174719.54   -51904.403    5097.2883   -57001.691    823.89946 
   34850    292.36017    165.88096    174759.72   -51899.832    5081.5424   -56981.374    824.77107 
   34900    287.83351    94.399113    174773.03   -51952.858     5002.864   -56955.722    826.49874 
   34950     290.4577    -29.53863    174745.81   -51975.517    5048.4753   -57023.992    827.89452 
   35000    284.27997   -8.9362963    174790.95   -51984.079    4941.0996   -56925.179     829.3044 
   35050    288.40713     -289.446    174842.19   -52004.532    5012.8342   -57017.366     831.9859 
   35100    289.71487    84.345146     174714.6   -51989.739    5035.5642   -57025.304     832.1012 
   35150    285.54187   -7.1368408    174652.36   -52003.122    4963.0328   -56966.155    832.51225 
   35200    289.04043    55.035318    174620.35   -51975.838    5023.8415   -56999.679    833.34072 
   35250    289.21019    265.15034    174566.45   -51968.057    5026.7922   -56994.849    833.97987 
   35300    289.36545    -69.88179    174696.04   -51958.788    5029.4908   -56988.279    835.65702 
   35350    291.16346   -219.23719     174879.9   -51927.897    5060.7422   -56988.639    838.02046 
   35400    288.13947     68.83753    174962.76   -52001.704    5008.1818   -57009.886    839.56764 
   35450    288.64497   -132.19494    174876.19   -52002.056    5016.9681   -57019.024     840.3712 
   35500    284.97542    82.121928    174627.84   -52030.734    4953.1872   -56983.921    841.00114 
   35550     285.2158    77.622603    174402.09   -52018.506    4957.3653   -56975.871    841.86307 
   35600    286.16372    226.98299    174316.37   -52036.621    4973.8411   -57010.462    842.12019 
   35650    288.43929     90.82508    174410.58   -52038.884    5013.3931   -57052.277    844.59481 
   35700    290.34318   -23.832195    174573.47   -52062.822    5046.4848   -57109.307    847.09345 
   35750    289.45279   -260.47829    174692.78   -52053.007    5031.0089   -57084.016    849.58532 
   35800    289.25826    293.90229    174764.62     -52037.2    5027.6278   -57064.828    852.08533 
   35850     286.0985    51.737887     174990.6   -52032.253    4972.7076    -57004.96      853.978 
   35900    288.41329   -336.09492    175316.97   -52050.856    5012.9412   -57063.797     857.5288 
   35950    289.20497    21.907474    175582.17   -52010.996    5026.7014   -57037.697     859.5358 
   36000    292.98119   -8.3335562    175599.84   -51989.825    5092.3364   -57082.161    861.03196 
   36050    288.43067    39.775152    175490.52   -51975.989    5013.2433   -56989.233    862.16326 
   36100     289.9366   -2.7358622    175366.15   -51982.889    5039.4181   -57022.307    862.92139 
   36150    290.63187   -371.13924    175067.43    -52008.93    5051.5026   -57060.432    862.96861 
   36200    291.86295   -33.582387    174652.32   -52003.472       5072.9   -57076.372    863.26691 
   36250    296.10816    64.624808    174444.16   -51974.193    5146.6865   -57120.879    863.17621 
   36300    288.31423    2.4409192    174506.87     -51980.3    5011.2195    -56991.52    865.06196 
   36350    293.15908     2.942845    174565.96   -51972.169    5095.4282   -57067.598    866.30137 
   36400    291.75343   -85.529679    174679.68   -51963.855    5070.9965   -57034.851    868.12977 
   36450    283.84972    292.42573    174922.05   -51948.734    4933.6214   -56882.356    870.28667 
   36500    287.79451   -300.77512    175297.58   -51978.906    5002.1861   -56981.092    872.80232 
   36550    293.53888   -354.71405    175570.79   -51952.512    5102.0297   -57054.541    874.56827 
   36600    289.24876   0.59677463    175500.42   -51942.527    5027.4625   -56969.989    874.81089 
   36650    290.10634    270.01664    175279.37   -51942.279    5042.3683   -56984.647     874.8024 
   36700    288.48908    3.3563498    175140.16   -51964.879    5014.2585   -56979.138    875.92485 
   36750    289.78974    88.351043     174953.3   -51959.167    5036.8654   -56996.032    875.63537 
   36800    287.80648    319.09374    174776.93   -51968.311    5002.3942   -56970.705    877.13375 
   36850    289.71302    41.753836    174694.17   -51983.737     5035.532   -57019.269    877.75274 
   36900    291.23871    15.041322     174559.5       -51980    5062.0502    -57042.05    878.50674 
   36950    290.14763   -151.57887    174579.36   -51998.254    5043.0859    -57041.34    880.41487 
   37000    291.64745   -251.47604     174691.6   -52017.676    5069.1545   -57086.831    882.05224 
   37050    291.59851   -138.57487     174750.4   -52032.576    5068.3038    -57100.88    882.81294 
   37100    295.66592   -53.523924    174803.23   -51976.765    5138.9999   -57115.765    883.54779 
   37150    289.41734   -366.17597    174825.96   -51930.196    5030.3927   -56960.589    885.00308 
   37200    290.71681    38.131902    174665.93   -51939.796    5052.9789   -56992.775    884.76781 
   37250    287.94711    199.44175    174618.96   -51976.054    5004.8385   -56980.893    885.92886 
   37300    289.05366   -188.33323    174738.98   -51984.603    5024.0715   -57008.674    888.90242 
   37350     288.3042    269.26056    174765.23   -52011.744    5011.0451   -57022.789    890.74811 
   37400    290.53251   -126.61287    174900.27   -52026.271    5049.7757   -57076.047    891.93099 
   37450    290.10303   -252.56188    175115.95   -52039.012    5042.3107   -57081.323    893.45409 
   37500    291.77816   -330.18282    175335.17   -52001.678    5071.4265   -57073.105    895.76238 
   37550    284.53285   -332.94656    175286.43   -52002.194    4945.4949   -56947.689    896.78398 
   37600    291.84687     387.0194     175042.3   -51992.669    5072.6207    -57065.29    897.60157 
   37650    291.71076    196.65294    175010.99    -52028.32    5070.2548   -57098.575    898.73217 
   37700    289.77072    42.829528    175167.39    -52014.79    5036.5349   -57051.325     900.3161 
   37750    288.91479   -195.48399    175368.15   -51981.902    5021.6579    -57003.56    902.18519 
   37800     292.1098   -99.003398    175565.04    -51962.45    5077.1907    -57039.64    903.16368 
   37850    288.39707   -494.68168    175609.06   -51968.352    5012.6593   -56981.011    904.00096 
   37900    290.05622    -261.1699    175405.72   -51982.106    5041.4971   -57023.603    904.57384 
   37950    291.24309   -168.34857    174893.54   -51998.705    5062.1263   -57060.831    903.78538 
   38000    290.30356      373.654    174300.45   -51992.751    5045.7962   -57038.548    903.28792 
   38050    290.72436     173.2741    174051.22    -51973.56    5053.1101    -57026.67    903.65733 
   38100    290.60796    307.65262    174148.38   -51955.379    5051.0871   -57006.466    906.29961 
   38150    287.31598   -37.521241    174543.12   -51930.306    4993.8688   -56924.174    908.61003 
[...]
   91550    289.22116   -76.692072    174038.71   -52042.771    5026.9829   -57069.754    2286.6432 
   91600    286.02095   -264.79455    174373.03   -52039.005    4971.3597   -57010.365    2290.4918 
   91650    292.54771   -3.9074311    174682.49   -52039.946     5084.802   -57124.748    2294.4427 
   91700    290.50546   -120.61185    174990.38   -52079.511    5049.3055   -57128.816    2297.2427 
   91750     284.9754    39.330675    175177.05   -52048.424     4953.187   -57001.611    2300.0479 
   91800    288.27382   -147.07022    175171.92   -52055.045     5010.517   -57065.562     2301.618 
   91850    287.34782   -120.12661    175055.25   -52034.966    4994.4222   -57029.388     2301.066 
   91900    286.23346   -173.55177    175006.89   -52047.186    4975.0534   -57022.239    2303.2379 
   91950    287.68518   -235.28666    174960.85       -52018    5000.2858   -57018.286    2302.6945 
   92000    291.61369   -271.63421    174923.67   -52047.571    5068.5677   -57116.138    2302.7976 
   92050      284.691   -69.711134    174776.44   -52022.281    4948.2438   -56970.525    2302.2712 
   92100     288.0964    122.93379    174548.69   -52063.899    5007.4333   -57071.332    2302.5887 
   92150    284.81536    185.07862    174318.09   -52037.746    4950.4053   -56988.151    2302.4071 
   92200    284.18578    297.33971    174173.06   -52037.679    4939.4625   -56977.142    2302.7357 
   92250    290.25664    15.138438    174136.92   -52027.548    5044.9807   -57072.529    2303.8567 
   92300    289.18888    48.646706    174165.68   -52018.188    5026.4218   -57044.609    2304.8269 
   92350    287.49956   -23.145004    174331.75   -51998.359    4997.0595   -56995.418    2307.9477 
   92400    287.34975    80.018795    174586.68   -52006.305    4994.4557    -57000.76    2311.1032 
   92450    289.36379   -175.07417    174866.17   -51973.144    5029.4619   -57002.606    2315.9688 
   92500    284.60924   -116.22009       175066   -51990.788    4946.8227   -56937.611    2319.6433 
   92550    288.50697   -228.38682    175122.37   -52007.145    5014.5695   -57021.715    2321.2615 
   92600    288.77701   -120.30437    175095.42   -51998.956    5019.2631   -57018.219    2321.3144 
   92650    290.30629    375.97426    174998.96   -51999.365    5045.8437   -57045.208    2321.9616 
   92700    286.17867    61.841851    174935.18   -52036.025     4974.101   -57010.126     2323.028 
   92750    284.57677    -283.9758    174962.66    -52038.48    4946.2582   -56984.739    2325.4488 
   92800    285.74145    271.87682    174881.61   -52046.865    4966.5016   -57013.367    2327.6709 
   92850    287.51477   -1.1460032    174943.46   -52036.517    4997.3239   -57033.841    2329.3475 
   92900    288.08753   -124.55429    174980.68   -52019.979    5007.2792   -57027.258    2331.8367 
   92950    286.65571   -98.061759    174891.57   -51985.423    4982.3925   -56967.816    2332.2711 
   93000    287.49255    35.723668    174756.78    -51990.73    4996.9377   -56987.667    2332.9772 
   93050     285.2759    339.36714    174759.23   -51985.185    4958.4099   -56943.595    2334.1861 
   93100     286.7046   -182.41588    174894.12   -51975.927    4983.2423   -56959.169    2335.3067 
   93150     283.6389    30.101908    174825.04   -51991.454    4929.9571   -56921.411     2335.024 
   93200    281.46165    3.4096886    174674.09   -52031.182     4892.114   -56923.296    2335.3845 
   93250    288.60373    143.48329    174598.51   -52059.099    5016.2512    -57075.35     2337.023 
   93300    287.38219   -43.993621    174412.06   -52034.088    4995.0196   -57029.108    2335.7299 
   93350    291.64957     107.9018    174011.52   -52003.314    5069.1914   -57072.506    2333.1542 
   93400    288.41866    81.797318    173799.04   -51996.999    5013.0346   -57010.034    2331.6986 
   93450    290.57931    171.08096    173779.39    -52001.13     5050.589   -57051.719    2332.9274 
   93500    290.15693    81.041398    174025.08   -51991.219    5043.2476   -57034.467    2336.7309 
   93550    287.74161   -291.07276    174388.04   -51979.492    5001.2667   -56980.759    2340.8635 
   93600    288.38219    28.960713    174623.28   -51970.206    5012.4007   -56982.606    2345.4353 
   93650    290.30965   -679.95919    174767.59   -51930.529     5045.902   -56976.431    2347.6179 
   93700    289.33945   -251.41584    174648.29   -51868.334    5029.0389   -56897.373     2348.312 
   93750     291.5941   -84.690429    174415.33   -51887.369    5068.2272   -56955.596    2347.7358 
   93800    291.08055    253.60046    174229.69    -51907.11    5059.3011   -56966.411    2346.8043 
   93850    289.56942    86.850149    174310.89   -51918.173    5033.0361   -56951.209    2348.6846 
   93900    287.26412   -26.697157    174595.27   -51961.796    4992.9674   -56954.763    2352.8561 
   93950    293.52538   -98.540876    174918.47   -51945.431     5101.795   -57047.226    2356.7408 
   94000    290.61003   -103.30762    175143.56   -51933.758     5051.123   -56984.881    2359.4282 
   94050    291.96705   -176.03653       175327   -51945.457    5074.7096   -57020.166     2359.539 
   94100    288.30134   -230.57776    175460.86   -51923.585    5010.9953   -56934.581    2362.3055 
   94150    291.87936   -237.14895    175407.63   -51933.715    5073.1853   -57006.901    2363.6191 
   94200    285.00172   -184.58832    175121.18   -51926.202    4953.6444   -56879.846    2364.4582 
   94250    287.21117    76.425693     174791.1   -51905.522     4992.047   -56897.569    2362.3538 
   94300    294.17883    176.38575    174438.33   -51901.005    5113.1527   -57014.158    2361.0939 
   94350    294.49016    542.04594    174242.82   -51861.314    5118.5639   -56979.878    2360.5185 
   94400    294.21386    70.892408    174214.67    -51859.88    5113.7615   -56973.642    2361.6346 
   94450    289.36273   -6.8588525    174300.94   -51875.295    5029.4436   -56904.739    2363.5792 
   94500     287.2469    98.416989    174449.67    -51884.51     4992.668   -56877.178    2366.6603 
   94550    289.49542   -8.4013609    174590.38   -51895.294    5031.7498   -56927.044    2368.2358 
   94600    289.82538    31.823488    174658.59    -51896.41    5037.4849   -56933.895    2370.7048 
   94650    288.23365    120.04446    174703.97   -51875.373    5009.8189   -56885.192    2372.9149 
   94700     289.5333   -116.91161    174753.41   -51963.161    5032.4083   -56995.569    2374.1307 
   94750     290.5579    3.7279002    174773.08   -51969.595     5050.217   -57019.812    2376.0091 
   94800    288.12653   -234.75709    174813.37   -51981.753     5007.957    -56989.71    2377.1035 
   94850     289.4874    25.698789    174770.77   -52005.396    5031.6104   -57037.006    2377.8705 
   94900      290.128    239.21147    174753.12   -51993.767    5042.7448   -57036.512    2378.0317 
   94950    289.61283    -52.72992    174826.38   -51958.017    5033.7905   -56991.807     2380.954 
   95000    290.58076   -122.01577    174921.67   -51969.978    5050.6142   -57020.592    2383.6482 
   95050    287.62324   -22.289742    175007.55   -51962.001    4999.2093    -56961.21    2385.6545 
   95100    287.46825    7.2176471    175141.11   -51984.622    4996.5154   -56981.138    2387.2858 
   95150     287.1076   -165.56649    175338.15   -51981.695    4990.2468   -56971.941    2390.9165 
   95200    289.39049    141.61214    175423.27   -52007.153    5029.9261    -57037.08    2393.4308 
   95250    283.53183   -514.37698    175446.17   -51975.022    4928.0961   -56903.118     2394.791 
   95300    288.50159    165.74998    175236.52   -51993.073     5014.476   -57007.549    2393.9488 
   95350    287.52203   -5.4317087    175044.59   -51984.263    4997.4501   -56981.713    2393.8108 
   95400     289.2141    165.80191    174910.21   -51974.141    5026.8602   -57001.001    2392.2062 
   95450    288.22108   -196.19932    174796.17   -52028.169    5009.6004    -57037.77    2393.1356 
   95500    287.38273    177.07662    174644.14   -52066.454     4995.029   -57061.483    2393.0443 
   95550    282.94773    37.273579    174640.72   -52085.935    4917.9437   -57003.879    2394.5317 
   95600    286.26349    287.83226    174720.19   -52079.715    4975.5753    -57055.29    2398.1116 
   95650    289.15903    182.98477    174978.69   -52065.612     5025.903   -57091.515    2401.1733 
   95700    290.95054   -231.47604    175260.18   -52108.159    5057.0415     -57165.2    2404.7528 
   95750    286.89246    95.932505    175461.62   -52117.075    4986.5075   -57103.583    2406.7463 
   95800    288.67896   -109.73085    175636.08   -52089.685    5017.5588   -57107.244    2410.4366 
   95850    286.84742   -129.36161    175628.65   -52065.576    4985.7247   -57051.301     2413.449 
   95900    284.63071    -68.32304    175420.29   -52076.983    4947.1957   -57024.178    2413.2983 
   95950    289.93672    241.37281    175127.02   -52105.059    5039.4202   -57144.479    2411.7722 
   96000    285.19196   -193.90494    174931.41   -52144.064     4956.951   -57101.015    2411.1334 
   96050     286.7627    147.98541    174706.39   -52123.261    4984.2521   -57107.513    2411.4214 
   96100    281.05431    429.94538     174627.4   -52080.255     4885.034   -56965.289    2412.3595 
   96150    288.63015   -200.53747    174734.75   -52058.827    5016.7105   -57075.538    2414.8117 
   96200    289.23693   -329.50371    174875.66   -52069.148     5027.257   -57096.405    2417.0744 
   96250    290.33923   -319.70091     174937.5   -52035.785    5046.4162   -57082.201    2418.7716 
   96300    287.06759   -85.701448    174848.67   -52037.492    4989.5515   -57027.043    2419.2809 
   96350    285.05527    310.13119    174678.45   -52011.465    4954.5752    -56966.04    2418.9492 
   96400    286.80727      46.4795    174482.44   -52010.354    4985.0267   -56995.381    2418.0391 
   96450    288.72647    368.36071    174228.68   -51992.365    5018.3846    -57010.75    2415.9368 
   96500    284.16575    104.75192    174275.98   -51989.219    4939.1144   -56928.333    2417.4693 
   96550    286.42085   -191.18521    174525.29   -51973.789    4978.3104   -56952.099    2421.1507 
   96600    288.19989   -127.88556    174662.66   -51989.086    5009.2322   -56998.319    2424.1672 
   96650    290.23621    44.158909    174543.97   -51967.226    5044.6256   -57011.851    2424.7555 
   96700    287.96964   -125.99846    174476.58   -51952.715    5005.2301   -56957.946    2425.1548 
   96750    291.89967    252.62652    174432.47   -51948.874    5073.5383   -57022.413    2425.9818 
   96800    287.53867     425.5328    174412.36   -52017.899    4997.7394   -57015.639    2428.5996 
   96850    287.72043    209.54098    174427.55   -52012.668    5000.8985   -57013.567    2429.3939 
   96900    288.88461      96.4202    174599.19   -52028.159    5021.1333   -57049.292    2432.0259 
   96950    287.05118    40.563333     174830.9   -52018.809    4989.2662   -57008.075    2435.2445 
   97000    290.02183    38.358433    175034.46   -52025.783    5040.8995   -57066.683    2437.8851 
   97050    288.45533   -152.04663    175200.93   -52018.878    5013.6719    -57032.55    2441.2526 
   97100     290.1223   -99.163842     175179.9   -52050.213    5042.6457   -57092.858     2441.292 
   97150    289.48145   -270.85343    175020.17   -52011.827     5031.507   -57043.334    2441.9104 
   97200    291.07232   -315.99796    174708.64   -51999.799    5059.1582   -57058.957    2439.2496 
   97250       283.77   -161.42256    174412.71   -52029.947    4932.2358   -56962.183     2437.764 
   97300    288.87449   -192.75912    174132.29   -52069.862    5020.9574   -57090.819    2435.1416 
   97350    291.40337    158.82875    173771.47   -52103.014    5064.9122   -57167.927    2433.1544 
   97400    281.91237    175.03027    173635.22   -52080.203     4899.948   -56980.151     2433.126 
   97450    284.55297   -87.221594    173740.03   -52121.794    4945.8445   -57067.639    2436.5513 
   97500      285.154    137.92993    173983.62   -52154.657    4956.2912   -57110.948    2440.2057 
   97550    285.61295   -115.81543    174323.42   -52140.302    4964.2681    -57104.57    2445.8122 
   97600    283.04007   -125.60411    174610.35   -52117.659    4919.5488   -57037.208    2450.1598 
   97650    282.32636   -233.37274     174699.3   -52114.857    4907.1437   -57022.001    2452.7696 
   97700    285.23963   -180.66957    174517.99    -52051.28    4957.7795    -57009.06    2453.0006 
   97750    290.72128   -0.4101695    174196.29   -52056.088    5053.0567   -57109.145    2451.8552 
   97800    289.84645    143.96702    173962.37   -52044.709    5037.8512   -57082.561    2453.1951 
   97850      286.772    34.990077    173899.63   -52080.716    4984.4138   -57065.129    2452.2613 
   97900    289.66895    361.85666     173946.7   -52064.774    5034.7659    -57099.54    2452.5745 
   97950    289.51491   -31.450692    174176.96   -52053.962    5032.0887    -57086.05    2456.3674 
   98000      285.505     5.456246    174388.03   -52010.923    4962.3918   -56973.314    2457.8286 
   98050    294.15128   -277.86785    174479.13   -51986.453    5112.6737   -57099.126    2459.7647 
   98100    292.72215    451.47452    174507.72   -51944.356    5087.8339    -57032.19    2461.2382 
   98150    289.92568   -31.787794    174754.83   -51962.228    5039.2282   -57001.457    2464.8178 
   98200    291.64281   -321.15396    175111.36   -51969.406    5069.0738   -57038.479    2469.6126 
   98250    290.53335     230.4445    175266.38   -51955.653    5049.7903   -57005.443    2470.5861 
   98300    290.68922    -104.5069    175310.52   -51936.828    5052.4995   -56989.327    2473.6302 
   98350    286.17089   -207.77954    175234.15   -51938.622    4973.9658   -56912.588    2474.0207 
   98400    290.15758    46.463709    175029.25   -51926.097    5043.2588   -56969.356    2473.8199 
   98450    293.05541   -99.095923    174804.12   -51925.173    5093.6263     -57018.8    2471.8474 
   98500    290.60136   -294.56677    174551.08   -51949.444    5050.9723   -57000.416    2470.3244 
   98550    290.26606   -35.850834    174277.94   -51932.883    5045.1443   -56978.027    2468.7585 
   98600    296.52835    670.65682    174187.02   -51931.493    5153.9899   -57085.483    2469.7129 
   98650     290.8533    193.29005    174473.08    -51915.47    5055.3513   -56970.821    2475.1431 
   98700    287.04603   -190.42329    174980.77   -51912.167    4989.1766   -56901.344    2480.8128 
   98750     286.0936   -300.62172    175517.22   -51928.473    4972.6225   -56901.095    2486.1641 
   98800    289.04681    32.553992    175815.43   -51914.432    5023.9526   -56938.385    2493.5447 
   98850     290.2179   -232.51611    175875.39   -51935.027    5044.3072   -56979.334    2494.5578 
   98900    287.43662      88.2121    175737.15   -51891.687    4995.9656   -56887.653    2494.2178 
   98950    296.42836    379.86782    175472.68   -51860.519     5152.252   -57012.771    2492.8147 
   99000    289.10539   -290.08817    175212.89   -51857.003    5024.9706   -56881.973    2491.3701 
   99050    290.03064   -172.78155    174848.01   -51815.627    5041.0525   -56856.679    2489.3218 
   99100    296.40149    97.164748    174559.16   -51845.894    5151.7849   -56997.678    2487.0972 
   99150    294.51776   -355.37608    174414.62   -51870.647    5119.0437   -56989.691    2487.1583 
   99200    292.04802    337.95608    174347.94   -51930.449    5076.1169   -57006.565    2488.0293 
   99250    291.04517     10.06657     174546.4   -51912.732    5058.6862   -56971.418    2491.5998 
   99300    290.88813    26.051984       174835   -51922.544    5055.9567   -56978.501    2495.7545 
   99350    290.89958   -279.07942    175153.02    -51889.23    5056.1556   -56945.386    2500.5227 
   99400     289.3641   -208.69904    175338.55   -51893.459    5029.4673   -56922.926    2503.8103 
   99450    287.93713    45.768838    175322.29   -51858.739     5004.665   -56863.404    2504.4501 
   99500     292.7195    69.609349    175173.47    -51875.42    5087.7878   -56963.208    2504.7753 
   99550    290.26628   -381.34505    174973.03   -51881.581    5045.1482   -56926.729    2504.5189 
   99600    288.30041    147.44081    174732.71   -51894.891    5010.9793    -56905.87    2503.3739 
   99650    293.56495    319.48531    174672.84   -51875.558    5102.4827   -56978.041    2503.7582 
   99700    284.47967    124.63684    174845.83   -51890.237    4944.5706   -56834.807    2507.4789 
   99750    291.99063   -397.80331    175087.32   -51939.752    5075.1194   -57014.871    2510.5623 
   99800     291.7523   -27.507841    175230.09   -51917.602     5070.977   -56988.579     2513.157 
   99850    287.87576   -194.53945    175409.21   -51953.036    5003.5984   -56956.634    2517.9754 
   99900    292.53009   -211.17823    175372.99   -51998.533    5084.4957   -57083.029    2518.6563 
   99950    288.73262   -35.641611     175178.6   -52026.386    5018.4916   -57044.878    2517.4176 
  100000    288.70586   -8.3178104    174932.04   -52048.637    5018.0264   -57066.664    2515.8113 
  100050    285.60614    -167.5853    174730.08   -52095.217    4964.1498   -57059.367    2514.7452 
  100100    286.35175   -4.1292599    174601.99       -52121    4977.1093   -57098.109    2515.6272 
  100150    287.18261    458.71516    174505.25   -52084.486    4991.5507   -57076.036     2516.698 
  100200    284.61736   -196.55049    174621.47   -52094.553    4946.9638   -57041.517    2519.3401 
  100250    283.82524   -312.22272    174725.48   -52126.848    4933.1959   -57060.044    2522.2022 
  100300    288.58573    167.50596    174606.22   -52137.143    5015.9385   -57153.081    2521.7821 
  100350     289.3099    568.78853    174541.83   -52077.048    5028.5253   -57105.573    2521.3841 
  100400    286.74809   -223.99476    174758.95   -52077.643    4983.9982   -57061.642    2524.8825 
  100450    286.37967   -177.82341    174898.39   -52071.198    4977.5946   -57048.793     2527.668 
  100500      285.562    77.874571    175014.54    -52081.12    4963.3826   -57044.503    2530.1377 
  100550    288.20984   -171.57647    175203.95   -52095.574     5009.405   -57104.979    2532.4496 
  100600    286.04232   -522.09712    175312.62    -52084.05    4971.7311   -57055.782    2533.2712 
  100650    286.89883    28.326809    175115.69   -52085.807    4986.6182   -57072.425    2533.2494 
  100689    284.10221   -125.02595    174858.32   -52073.577    4938.0099   -57011.587    2531.3454 
Loop time of 178.483 on 6 procs for 100000 steps with 5832 atoms

Performance: 484.080 ns/day, 0.050 hours/ns, 560.278 timesteps/s
99.2% CPU use with 6 MPI tasks x no OpenMP threads

MPI task timing breakdown:
Section |  min time  |  avg time  |  max time  |%varavg| %total
---------------------------------------------------------------
Pair    | 133.68     | 134.9      | 137.66     |  12.4 | 75.58
Neigh   | 17.948     | 18.021     | 18.291     |   2.9 | 10.10
Comm    | 17.463     | 20.475     | 21.781     |  33.9 | 11.47
Output  | 0.11811    | 0.12089    | 0.13289    |   1.5 |  0.07
Modify  | 3.8533     | 3.8877     | 3.9257     |   1.4 |  2.18
Other   |            | 1.081      |            |       |  0.61

Nlocal:        972.000 ave         978 max         959 min
Histogram: 1 0 0 0 0 0 2 1 0 2
Nghost:        1796.17 ave        1820 max        1778 min
Histogram: 1 0 1 1 1 0 1 0 0 1
Neighs:        0.00000 ave           0 max           0 min
Histogram: 6 0 0 0 0 0 0 0 0 0
FullNghs:      28087.3 ave       28524 max       27390 min
Histogram: 1 0 0 0 2 0 0 0 1 2

Total # of neighbors = 168524
Ave neighs/atom = 28.896433
Neighbor list builds = 13797
Dangerous builds = 0
undump 1
reset_timestep 0
#unfix 2
#unfix 3
#unfix 4


write_data data.${NAME}
write_data data.icewater_289K_1atm_LG
System init for write_data ...

Total wall time: 0:03:00
