

read_data data.ice_289K_1atm_LG group ice
Reading data file ...
  orthogonal box = (-0.024949448 -0.024949448 -0.024949448) to (57.295459 57.295459 57.295459)
  1 by 2 by 3 MPI processor grid
  reading atoms ...
  5832 atoms
  reading velocities ...
  5832 velocities
  read_data CPU = 0.012 seconds
read_data data.water_289K_1atm_LG add append shift ${ICE_HI} ${ICE_LO} ${ICE_LO} group water
read_data data.water_289K_1atm_LG add append shift 57.2954594476322 ${ICE_LO} ${ICE_LO} group water
read_data data.water_289K_1atm_LG add append shift 57.2954594476322 -0.0249494476353291 ${ICE_LO} group water
read_data data.water_289K_1atm_LG add append shift 57.2954594476322 -0.0249494476353291 -0.0249494476353291 group water
Reading data file ...
  orthogonal box = (-0.024949448 -0.024949448 -0.024949448) to (113.75513 57.295459 57.295459)
  3 by 1 by 2 MPI processor grid
  reading atoms ...
  5832 atoms
  reading velocities ...
  5832 velocities
  read_data CPU = 0.011 seconds

write_data data.icewater_test
System init for write_data ...
WARNING: Communication cutoff is 0.0. No ghost atoms will be generated. Atoms may get lost. (../comm_brick.cpp:167)

# Define potential
#
pair_style sw
pair_coeff * * ML.sw mW
Reading sw potential file ML.sw with DATE: 2019-02-27

# Delete water and ice atoms that are overlapping
#
delete_atoms overlap 2.4 water ice
System init for delete_atoms ...
Neighbor list info ...
  update every 1 steps, delay 10 steps, check yes
  max neighbors/atom: 2000, page size: 100000
  master list distance cutoff = 6.0032907
  ghost atom cutoff = 6.0032907
  binsize = 3.0016454, bins = 38 20 20
  2 neighbor lists, perpetual/occasional/extra = 1 1 0
  (1) command delete_atoms, occasional, copy from (2)
      attributes: full, newton on
      pair build: copy
      stencil: none
      bin: none
  (2) pair sw, perpetual
      attributes: full, newton on
      pair build: full/bin/atomonly
      stencil: full/bin/3d
      bin: standard
Deleted 111 atoms, new total = 11553

# set timestep
#
timestep 10.0

# Define output
#
compute 1 all msd
thermo 50
thermo_style custom step temp press vol etotal ke pe c_1[4]

# Neighbor lists
#
neigh_modify delay 0 every 1 check yes

# Set fixes
#
fix 1 all momentum 10 linear 1 1 1 rescale
fix 2 all nph iso ${PRES} ${PRES} ${PCOUPL}
fix 2 all nph iso 1 ${PRES} ${PCOUPL}
fix 2 all nph iso 1 1 ${PCOUPL}
fix 2 all nph iso 1 1 10000.0
fix 3 all temp/csvr ${TEMP} ${TEMP} ${TCOUPL} 837492
fix 3 all temp/csvr 289 ${TEMP} ${TCOUPL} 837492
fix 3 all temp/csvr 289 289 ${TCOUPL} 837492
fix 3 all temp/csvr 289 289 5000.0 837492


# Fix ice atoms in place
#
velocity ice set 0.0 0.0 0.0
fix 4 ice setforce 0.0 0.0 0.0

# Run 1.0 ns equilibration of water
#
dump 1 all atom 1000 eq.all.${NAME}.dump
dump 1 all atom 1000 eq.all.icewater_289K_1atm_LG.dump
run 100000
Neighbor list info ...
  update every 1 steps, delay 0 steps, check yes
  max neighbors/atom: 2000, page size: 100000
  master list distance cutoff = 6.0032907
  ghost atom cutoff = 6.0032907
  binsize = 3.0016454, bins = 38 20 20
  1 neighbor lists, perpetual/occasional/extra = 1 0 0
  (1) pair sw, perpetual
      attributes: full, newton on
      pair build: full/bin/atomonly
      stencil: full/bin/3d
      bin: standard
Per MPI rank memory allocation (min/avg/max) = 4.633 | 4.636 | 4.638 Mbytes
Step Temp Press Volume TotEng KinEng PotEng c_1[4] 
       0    140.74014   -1351.5791    373839.17   -111756.16    4846.2907   -116602.45            0 
      50    181.79271   -567.48676    371657.69   -111406.99     6259.908   -117666.89    1.0773869 
     100    189.38331    235.57453    367848.85    -111021.2    6521.2849   -117542.48    2.4165068 
     150    194.64916    488.32913    366164.13   -110632.65     6702.611   -117335.26    3.7915752 
     200    198.09193    120.15919    366546.34   -110401.03    6821.1605   -117222.19    5.0914261 
     250     201.9597    111.52022     367599.4   -110093.07    6954.3446   -117047.42    6.4510458 
     300    208.47958   -178.31524    368827.35   -109728.14    7178.8521   -116906.99    7.9339688 
     350     209.5383   -185.06978    369254.29   -109504.54    7215.3084   -116719.85    9.4785842 
     400     213.7109    86.343197    368836.52   -109268.02    7358.9891   -116627.01    11.080897 
     450    215.11372   -159.01889     368679.8   -108981.19    7407.2941   -116388.48    12.712024 
     500    218.89888    154.01602    368724.08   -108774.34    7537.6337   -116311.98    14.372667 
     550    223.13455    14.755102    369244.88   -108578.23     7683.486   -116261.71    16.070825 
     600    225.99889   -35.596198    369780.16   -108370.29    7782.1175    -116152.4    18.024227 
     650    230.63148    34.747964    369839.35   -108158.21    7941.6378   -116099.85    19.971664 
     700    228.46295    -40.86502    369607.69   -107948.01    7866.9659   -115814.97    22.045786 
     750    233.24261    115.86601    369422.38   -107783.52      8031.55   -115815.07    24.198971 
     800     234.5762    14.200434     369605.4   -107583.49    8077.4712   -115660.96     26.39687 
     850    238.33337     164.4175    369618.35   -107376.22     8206.847   -115583.07     28.51897 
     900    242.74694    119.84737    369970.21   -107201.61    8358.8252   -115560.43    30.759596 
     950    244.91429   -135.36415     370829.4   -107035.03    8433.4565   -115468.49    33.226937 
    1000    245.60173    90.196727    371359.59   -106883.73    8457.1279   -115340.86    35.697371 
    1050    247.11827    266.89442    371288.75   -106760.36     8509.349   -115269.71    38.290526 
    1100    248.84861   -252.61225    371315.44   -106646.64    8568.9321   -115215.57    40.696932 
    1150    248.55245   -77.633793    370864.96   -106510.59    8558.7341   -115069.32    42.690685 
    1200    254.19817    243.84472    370250.64   -106418.65    8753.1406   -115171.79    45.005751 
    1250     250.0774    254.39319    370399.15   -106302.99    8611.2447   -114914.24    47.392297 
    1300    252.83694    230.80789    371028.75   -106217.86    8706.2675   -114924.13     49.83226 
    1350    254.34146    -100.8926    371946.76   -106123.45    8758.0746   -114881.52    52.078445 
    1400    257.89235     11.53623    372386.24   -105989.29    8880.3472   -114869.63    54.708594 
    1450    257.74806   -173.37273    372425.77   -105861.37    8875.3786   -114736.75    57.290014 
    1500    258.78481   -136.41527     372145.5   -105786.45    8911.0785   -114697.53    59.827389 
    1550    258.90977    72.350209    371655.21   -105691.13    8915.3814   -114606.51    62.079687 
    1600    265.82033   -2.3844802    371362.03   -105603.42    9153.3417   -114756.76    64.255591 
    1650    261.24169    327.28912    371383.81   -105531.88    8995.6794   -114527.56    66.912216 
    1700    261.81264   -82.160939       372122   -105422.81    9015.3395   -114438.15    69.943727 
    1750    262.65479    31.906032    372550.23   -105357.81    9044.3385   -114402.15    72.395353 
    1800    266.32278   -224.26395    372495.79   -105251.43    9170.6433   -114422.08    74.812621 
    1850     267.6943    28.113602    372092.93   -105151.59    9217.8706   -114369.46     77.57475 
    1900     270.4778    40.595697    371792.49   -105051.73    9313.7184   -114365.44    80.223798 
    1950    268.70832   -76.959957    371974.85   -104966.06    9252.7877   -114218.85    83.288154 
    2000    267.73099    107.80432    372376.68   -104864.54    9219.1339   -114083.68    86.494314 
    2050    270.06271    37.483475    372967.02   -104844.23    9299.4251   -114143.66    89.230281 
    2100    269.02335    -12.30065    373327.23   -104809.57    9263.6354   -114073.21    91.855528 
    2150    271.59026   -234.14217    373391.09   -104736.65    9352.0254   -114088.68    94.486855 
    2200    273.26788   -15.675313    372890.05   -104666.93    9409.7929   -114076.72    97.801103 
    2250    272.19762    37.928325    372508.12   -104625.11    9372.9394   -113998.05    100.87393 
    2300    275.08317    166.05433    372426.56   -104516.35    9472.3011   -113988.65    103.81986 
    2350    278.32539    51.389377    372687.47    -104417.3    9583.9448   -114001.25    107.14112 
    2400    280.95079    3.3426215     373207.8   -104398.79    9674.3486   -114073.14    110.66593 
    2450    276.78226    85.343773    373461.95   -104338.83    9530.8082   -113869.64    113.84331 
    2500    281.98673    33.503412    373480.61   -104259.75    9710.0207   -113969.77    116.69982 
    2550    278.85991    54.923977     373240.1   -104229.88    9602.3507   -113832.23    119.64273 
    2600    279.78909    163.67912    373081.95   -104202.29    9634.3463   -113836.63    123.03249 
    2650    279.97947    43.219922    373227.56    -104113.1     9640.902      -113754    125.98495 
    2700    283.30348     -193.384    373729.74   -104078.38    9755.3621   -113833.74    129.34312 
    2750       283.44   -298.97323    374059.28   -104103.86     9760.063   -113863.93    132.54722 
    2800     283.8626   -127.59971    373810.45   -104075.52     9774.615   -113850.13    135.82835 
    2850     282.3018    -149.8254    373382.76   -104083.28      9720.87   -113804.15    138.73103 
    2900    280.47526     78.91836    372868.85      -104094    9657.9741   -113751.98    141.42217 
    2950    277.98735    344.69217    372724.54   -104084.89    9572.3048    -113657.2      144.262 
    3000    283.27868    302.66076    372883.84   -104035.16    9754.5081   -113789.67    147.42565 
    3050    280.51284   -127.61393    373546.57   -104039.37    9659.2683   -113698.64    150.94289 
    3100    283.11022   -295.28409    373977.33   -104019.81    9748.7074   -113768.52    154.40961 
    3150     285.0087     126.6293    373458.29   -104026.03      9814.08   -113840.11    157.05038 
    3200    282.82896    313.56457    372760.38   -103982.71    9739.0222   -113721.73    160.13366 
    3250    285.22529    129.38907    372823.93   -103947.19    9821.5383   -113768.73    163.21983 
    3300    282.47469   -56.110693    373503.27   -103900.24    9726.8232   -113627.06    166.43909 
    3350    287.31819   -240.39982    374522.06      -103783    9893.6059    -113676.6    170.01632 
    3400    290.81096   -387.13457    374981.11   -103833.55    10013.877   -113847.43    172.76314 
    3450    282.77498   -97.128765     374505.4   -103852.51    9737.1633   -113589.67    175.82871 
    3500    285.82958    67.747565    373693.04   -103841.95    9842.3465   -113684.29     178.3207 
    3550    284.56996    -60.60319    373406.11   -103776.11    9798.9724   -113575.09    181.90454 
    3600    287.82075     84.85447    373463.77   -103794.97     9910.911   -113705.88    184.81618 
    3650    282.64148    30.755798    373838.55   -103799.44    9732.5666   -113532.01    187.84318 
    3700    286.34691   -201.28465     374104.8   -103793.92    9860.1605   -113654.08     190.9582 
    3750    287.59998   -91.914681    374210.82   -103819.21    9903.3091   -113722.52    193.41806 
    3800    286.40786   -114.13179    374101.16   -103814.03    9862.2591   -113676.29    196.64493 
    3850    292.01924    84.303231     373886.3   -103798.15    10055.483   -113853.64    198.96791 
    3900    287.77853   -45.893568    374025.88   -103804.29    9909.4574   -113713.75    201.49263 
    3950    285.98091   -148.78482    374059.27   -103754.43    9847.5574   -113601.99    204.11905 
    4000    285.05972     9.647378    373703.61   -103755.71    9815.8368   -113571.54    207.42477 
    4050    281.62776   -42.700606    373489.08   -103737.66    9697.6599   -113435.32    210.29235 
    4100     287.0222    172.72293    373222.87   -103738.46    9883.4135   -113621.88    213.39113 
    4150    288.40891    105.40894    373773.19   -103688.14    9931.1641   -113619.31    216.39914 
    4200    290.11124   -137.38002    374632.01   -103691.11    9989.7824    -113680.9    219.52444 
    4250    292.15071   -252.49375    374764.84   -103671.22     10060.01   -113731.23    222.17736 
    4300    286.45218   -115.03146    374513.92   -103687.02    9863.7855   -113550.81    225.04322 
    4350    289.15845    110.10795    374210.98    -103707.7     9956.974   -113664.68    227.53565 
    4400    286.74927    119.98723    373842.71   -103693.45    9874.0156   -113567.47    230.66537 
    4450    288.26928   -89.891159    373705.73   -103623.09    9926.3558   -113549.45    233.56321 
    4500    286.64748    -67.33215    373848.12   -103562.33    9870.5105   -113432.84    236.79778 
    4550    292.74869    8.3131898    374100.36   -103517.54    10080.601   -113598.14    240.69639 
    4600    290.60526   -47.015427     374481.7   -103516.07    10006.794   -113522.86     244.2329 
    4650    290.94766   -290.03688     374607.6   -103438.59    10018.584   -113457.18    247.17121 
    4700    293.55587   -100.51364    374585.98   -103417.23    10108.396   -113525.63     249.6612 
    4750    291.13819    7.9924695    374370.07   -103442.09    10025.145   -113467.23    252.28413 
    4800    295.22217    39.297076    373851.29   -103446.23    10165.774   -113612.01    255.42236 
    4850    291.83748    524.09003    373569.54   -103448.74    10049.224   -113497.97    258.55158 
    4900    294.59653   -96.651327     374248.3   -103453.56     10144.23   -113597.79    262.72553 
    4950    293.20955   -250.92477    374905.29   -103465.36    10096.471   -113561.83    265.94889 
    5000    292.28051   -313.86906    374840.61    -103489.1     10064.48   -113553.58    269.27042 
    5050     290.8063   -83.719734    374093.76   -103510.16    10013.716   -113523.87     271.7955 
    5100    291.69229    325.80024    373426.92   -103513.99    10044.225   -113558.21    274.20996 
    5150    289.25935   -52.635616    373719.86   -103542.12    9960.4483   -113502.56    277.71503 
    5200    291.27569   -211.51448     374193.9   -103555.59     10029.88   -113585.47    282.30777 
    5250    290.64829   -115.40489    374415.56    -103542.2    10008.275   -113550.48    285.69545 
    5300    292.75624   -76.704007    374322.82   -103510.31    10080.861   -113591.18    288.45679 
    5350    291.72937      111.512    374212.34   -103472.16    10045.502   -113517.66    291.20111 
    5400    289.48253   -30.059873    374121.84      -103539    9968.1335   -113507.14    293.96676 
    5450    292.49834   -70.621073    373952.15   -103524.91    10071.981   -113596.89    296.73347 
    5500    289.72177   -18.263742    374132.63   -103521.45    9976.3714   -113497.83    299.89948 
    5550     291.8353   -237.64281     374566.2   -103586.21    10049.149   -113635.36    303.06626 
    5600    285.48756    -249.3869    374716.63   -103645.27    9830.5694   -113475.84    305.49564 
    5650    287.76859    8.2712736    374277.59   -103752.49    9909.1149   -113661.61    308.34765 
    5700    286.97143    36.043543    373754.71   -103718.26    9881.6653   -113599.92    310.87998 
    5750    286.44277    -140.9342    373403.16   -103698.15    9863.4614   -113561.61    313.73659 
    5800    285.87184   -52.946761    373558.08   -103693.04    9843.8017   -113536.84    317.85472 
    5850     290.2561    91.611309    374062.99   -103619.22    9994.7707   -113613.99    321.85302 
    5900    287.55046 -0.029241003    374402.37   -103657.36    9901.6039   -113558.97    325.08938 
    5950    287.75897     47.44553    374609.88   -103658.82    9908.7836   -113567.61    328.03777 
    6000    291.13852    1.5613458    374209.62   -103670.65    10025.156    -113695.8    330.73085 
    6050    289.60377   -5.3885247    373630.82   -103596.24    9972.3081   -113568.54    333.94882 
    6100    289.02899    145.08787    373324.82   -103607.56    9952.5161   -113560.08    337.03583 
    6150    289.22346   -48.183748    373941.97   -103588.54    9959.2124   -113547.75    340.15735 
    6200    289.93188   -48.635673    374333.44   -103603.65    9983.6066   -113587.26    344.45518 
    6250    290.12637   -136.51023    374432.29   -103587.48    9990.3034   -113577.78     347.9961 
    6300    292.08201    104.60716    374376.37   -103549.67    10057.645   -113607.31    350.81912 
    6350    289.69505    306.30837    374213.55   -103502.93    9975.4514   -113478.38    353.85908 
    6400    288.73667    230.03787    373970.95   -103573.44    9942.4503   -113515.89    356.73762 
    6450    292.53654    155.79414    373702.73   -103585.89    10073.296   -113659.18     359.4017 
    6500    290.13271    467.29103     373648.9   -103529.58     9990.522    -113520.1    362.42376 
    6550    291.85615   -290.10678    374393.81   -103508.43    10049.867    -113558.3    365.95551 
    6600    288.14737   -220.13376    375040.48    -103522.6    9922.1582   -113444.76    369.00224 
    6650    292.61503    93.584246    374535.59   -103575.88    10075.999   -113651.88    371.89555 
    6700     290.6541    156.42054    373711.95      -103598    10008.476   -113606.48    374.45409 
    6750    285.93667    308.94584    373314.78   -103625.73    9846.0341   -113471.77    377.43468 
    6800    289.44482    458.65469    373548.11   -103594.74     9966.835   -113561.57    380.84477 
    6850    289.94201    22.097916    374455.34   -103592.04    9983.9554   -113575.99    384.21072 
    6900    287.03916   -281.94188    375147.85   -103543.52    9883.9978   -113427.52    386.98349 
    6950    290.37428   -180.40251     374906.2   -103534.16    9998.8402      -113533    389.19987 
    7000    292.56781    214.24751    374263.38    -103508.1    10074.373   -113582.47    391.63347 
    7050    293.82523    103.58794    373865.47   -103494.93    10117.671    -113612.6    394.46223 
    7100    294.63069    110.75705    373651.37   -103501.97    10145.407   -113647.38    396.74287 
    7150    291.60017    83.027394     373975.2   -103577.09    10041.053   -113618.14      399.963 
    7200    286.23051    -246.6815    374496.56   -103617.74    9856.1523   -113473.89    403.52309 
    7250      292.812   -45.205791     374692.5   -103562.37    10082.781   -113645.15    407.25638 
    7300    292.27515   -200.42165    374836.54   -103533.48    10064.295   -113597.78    411.39937 
    7350    290.54421    167.58428    374304.48   -103520.46    10004.691   -113525.15    414.08356 
    7400    290.59355   -52.069657    374018.09   -103473.05    10006.391   -113479.44    417.01766 
    7450     293.1745    11.620269    374009.82   -103448.02    10095.264   -113543.28    420.26011 
    7500    287.10235   -9.2021173    374571.04   -103516.24    9886.1735   -113402.42     424.0651 
    7550    293.84494   -177.19224    374824.34   -103568.07     10118.35   -113686.42    427.90861 
    7600    290.03886    29.299415    374712.46   -103493.72    9987.2901   -113481.01      431.572 
    7650    290.44476    15.264465    374199.42   -103515.48    10001.267   -113516.75    433.99184 
    7700    291.79145   -18.595901    373589.78   -103493.67    10047.639   -113541.31    436.50539 
    7750    293.17947    337.48205    373446.31   -103463.07    10095.435   -113558.51    439.65667 
    7800     298.1551   -87.769693    374021.76   -103517.88    10266.767   -113784.64    443.11411 
    7850     289.0333   -197.78974    374527.23    -103485.3    9952.6644   -113437.96    446.41434 
    7900    288.83115    -114.5032    374785.72   -103539.13    9945.7037   -113484.84    448.83207 
    7950    287.23189    -15.81594    374628.66   -103583.05    9890.6341   -113473.68    452.14265 
    8000    289.48745   -28.613731    374243.77   -103560.63     9968.303   -113528.93    454.31556 
    8050     287.1768   -30.537846    373918.84   -103525.69    9888.7372   -113414.43    456.81214 
    8100    289.13332    205.16973    373575.02   -103588.42    9956.1086   -113544.52    458.32909 
    8150    292.01068    200.89341    373599.79   -103523.83    10055.188   -113579.02    460.45213 
    8200    291.26825   -83.771924     374252.2   -103558.79    10029.623   -113588.42     463.7865 
    8250    287.65075   -192.82164    374906.28   -103553.38    9905.0574   -113458.44    466.00639 
    8300    288.48656   -125.35646    374797.99   -103527.49     9933.838   -113461.32    467.65055 
    8350    289.96204   -154.99778    374194.84    -103579.4     9984.645   -113564.04     469.9418 
    8400    285.96746     327.3059    373538.25   -103576.06    9847.0945   -113423.15    472.83698 
    8450    291.96809    330.21669    373342.92   -103597.07    10053.722   -113650.79    475.78586 
    8500    291.64022    -31.68418    373764.69   -103566.67    10042.432   -113609.11    479.67247 
    8550    287.99158   -313.66594    374372.39    -103600.8    9916.7937   -113517.59    483.70423 
    8600    287.34798   -56.916269    374191.63   -103594.31    9894.6318   -113488.94    486.37506 
    8650    288.81897   -80.242066    373758.33   -103592.95    9945.2843   -113538.23    488.38933 
    8700    285.25081    132.48904    373661.65   -103591.38    9822.4171    -113413.8    490.95858 
    8750    287.13639   -62.512705    374006.19   -103527.19    9887.3456   -113414.54    493.77417 
    8800    288.84005    11.628647    374454.92   -103561.71      9946.01   -113507.72    496.38436 
    8850    285.64647    95.903242     374565.5   -103604.03    9836.0415   -113440.08    499.34252 
    8900    288.15678   -129.05029    374404.08   -103628.13    9922.4822   -113550.61    501.96687 
    8950    290.03342   -7.1122245    373939.36   -103602.41    9987.1029   -113589.52    503.86615 
    9000    289.08918    -6.260245    373857.89   -103585.83    9954.5885   -113540.42    505.81853 
    9050    288.28398    283.00015    374095.11    -103586.8    9926.8621   -113513.66    508.76511 
    9100    286.96782   -19.850989    374240.94   -103658.08     9881.541   -113539.62    511.97669 
    9150    290.09782     83.06293    374213.02   -103611.52    9989.3206   -113600.84    514.95824 
    9200    284.81761    42.512497    374037.56   -103629.95       9807.5   -113437.45    517.44012 
    9250    289.32986   -61.120484    373822.05   -103671.94    9962.8762   -113634.82    519.84437 
    9300    287.44349    172.62104     373590.4   -103727.32    9897.9206   -113625.24    522.14465 
    9350    288.98602    334.61062     373744.8      -103704    9951.0366   -113655.03     526.2608 
    9400    287.18168   -236.25178    374223.38    -103693.9    9888.9051   -113582.81    530.51279 
    9450    288.40448    91.241696    374198.65   -103643.91    9931.0114   -113574.92    532.98304 
    9500    285.06066   -66.607502    374127.78   -103656.36    9815.8692   -113472.23    536.42625 
    9550     291.8266    5.4754927    373713.98    -103660.2     10048.85   -113709.05     538.6322 
    9600    290.14607    342.69272     373638.3   -103629.42    9990.9821    -113620.4    541.23569 
    9650    283.43418    168.33864    374232.33   -103649.02    9759.8627   -113408.88    543.98319 
    9700    289.31092   -335.28719    374573.63    -103662.6    9962.2242   -113624.82    546.26484 
    9750    284.18733   -79.683048    373850.42   -103647.33    9785.7967   -113433.13    548.37787 
    9800    289.89674    34.331766    372930.54   -103666.94    9982.3966   -113649.33    550.36851 
    9850     290.0363    205.78784     372696.8   -103652.88    9987.2023   -113640.09    552.76376 
    9900    285.94221    188.70044    373650.33   -103678.92    9846.2248   -113525.15    556.89376 
    9950    284.88688   -57.131655    374928.54   -103644.84    9809.8854   -113454.72    562.10249 
   10000     288.6291    -378.6496    375207.74   -103634.17    9938.7463   -113572.92    565.02304 
   10050    292.96925    -30.83395    374594.46   -103635.87    10088.196   -113724.06      567.752 
   10100     283.2529   -6.7168887    373945.04   -103591.21    9753.6205   -113344.83    569.20247 
   10150    292.47647    135.52494    373533.25   -103568.91    10071.228   -113640.14    572.19172 
   10200    292.18872    -73.61856    373699.67   -103570.56    10061.319   -113631.88    574.35995 
   10250    288.07589   -96.174634    374177.41   -103559.74    9919.6967   -113479.44    576.46158 
   10300     288.8103     39.18291    374379.66   -103545.94    9944.9855   -113490.93    579.30291 
   10350    287.80118    132.87913    374334.82   -103541.69    9910.2373   -113451.93    581.27572 
   10400    286.57493    -134.1931    374345.81   -103624.92    9868.0123   -113492.93    585.61507 
   10450    288.00078   -141.13463    374113.58    -103589.4    9917.1105   -113506.51    588.37828 
   10500    286.28562    22.655933    373848.51   -103584.88    9858.0499   -113442.93    590.54187 
   10550    290.86543     184.8218    373818.83   -103572.01    10015.753   -113587.76    592.67643 
   10600    294.35175    77.624171    374122.62   -103573.78    10135.802   -113709.58    596.57976 
   10650    289.71919   -11.405851    374144.51   -103549.81    9976.2826   -113526.09    599.91717 
   10700    290.94247    302.79714    373698.09   -103583.33    10018.405   -113601.74     602.7265 
   10750    289.85748    67.976421    373590.64   -103562.05    9981.0444   -113543.09    606.50403 
   10800    290.43728   -19.121552    373913.14   -103588.14     10001.01   -113589.15    610.40672 
   10850    288.43616   -42.482042    374415.83    -103518.1    9932.1025   -113450.21    613.92426 
   10900    287.91243   -172.72261    374927.33   -103522.61     9914.068   -113436.68    617.33658 
   10950    292.85883   -464.79649     374882.1   -103532.61    10084.394   -113617.01    620.41858 
   11000    288.03859    1.0214108    373970.73   -103575.55    9918.4122   -113493.96    622.46934 
   11050    292.17163    112.52473    372977.66   -103612.63    10060.731   -113673.36    624.88475 
   11100    292.13616    110.40517    372701.05   -103588.35    10059.509   -113647.86    627.61151 
   11150    288.04121    176.56759    373384.06   -103600.97    9918.5026   -113519.47    631.82455 
   11200    290.31007   -60.903815    374558.87   -103602.99    9996.6293   -113599.62    636.23922 
   11250    286.77016    -289.9144    375221.38   -103629.81    9874.7349   -113504.54    638.09447 
   11300    291.78346     -212.498     374732.6   -103620.43    10047.364    -113667.8    641.03466 
   11350    287.83415    139.56922    374052.19   -103659.37    9911.3727   -113570.75    643.25133 
   11400    290.96928   -116.05816    373893.37   -103657.06    10019.329   -113676.39    645.02965 
   11450    289.54438    213.63765    373817.98   -103724.42     9970.263   -113694.68     647.5723 
   11500    287.43062    71.739655    374069.09    -103716.9    9897.4772   -113614.38    651.39956 
   11550    287.70693    -122.6614    374239.78   -103745.47    9906.9918   -113652.46      654.172 
   11600     286.1383    98.855729    374095.26   -103717.24    9852.9772   -113570.22    657.29085 
   11650    287.56736    57.906335    374045.14   -103707.96     9902.186   -113610.14    659.54099 
   11700    288.72672    134.66367    374102.47   -103667.75    9942.1075   -113609.86    663.00477 
   11750    286.59314    151.82964    374307.35   -103697.55    9868.6393   -113566.19      666.609 
   11800    282.60164   -3.0186095    374488.19   -103710.21    9731.1945   -113441.41    669.64452 
   11850    296.14122   -241.06852    374291.55   -103629.12    10197.421   -113826.54     671.4466 
   11900    284.68108    133.17912    373836.26   -103721.66    9802.7988   -113524.46    673.20876 
   11950    284.15498   -30.918358    373589.16   -103707.25    9784.6829   -113491.93    676.01189 
   12000    285.83723   -175.97603    373478.63   -103720.85      9842.61   -113563.46    679.24773 
   12050    289.94997   -2.3944297    373326.36   -103714.88    9984.2295   -113699.11    681.79377 
   12100    285.50786    70.212955    373708.95   -103676.89    9831.2682   -113508.16    684.43074 
   12150    286.99737    178.00966    374311.65   -103663.08    9882.5587   -113545.64    687.87255 
   12200    289.67876   -56.948075    374583.05   -103660.83    9974.8904   -113635.72    690.17326 
   12250    290.37744   -215.04277    374438.23   -103605.14    9998.9489   -113604.09    693.00947 
   12300    289.45862   -16.465581     373949.9   -103622.14    9967.3102   -113589.45    695.58337 
   12350    287.85313   -281.29226    373613.58   -103659.34    9912.0262   -113571.36    699.21496 
   12400    292.47565     270.6994     373429.5   -103703.75      10071.2   -113774.95    701.42532 
   12450    289.28291   -121.20751    373895.52   -103673.47    9961.2596   -113634.73    705.15939 
   12500    291.34958   -104.50305    374285.32    -103631.4    10032.424   -113663.83    708.83132 
   12550    290.34064   -237.94922    374295.18   -103687.27    9997.6819   -113684.95    712.44562 
   12600    289.56566    123.63816    373892.52   -103628.65    9970.9959   -113599.65    714.89508 
   12650    288.15972     121.5165    373743.59   -103631.24    9922.5834   -113553.82    717.50163 
   12700     286.3189    216.09828    373871.19   -103619.06     9859.196   -113478.25    720.73014 
   12750    290.06133    121.94469    374069.46   -103670.88    9988.0641   -113658.94    724.07115 
   12800    287.46123    92.013322    374274.62   -103692.62    9898.5314   -113591.15     726.7598 
   12850    289.13911     -50.7599    374205.58   -103678.44    9956.3079   -113634.75    728.71988 
   12900     286.9666   -74.019257    374099.07   -103652.13    9881.4992   -113533.63    730.60388 
   12950    287.79602    37.699249    374212.99   -103665.46    9910.0596   -113575.52    734.10425 
   13000     285.7384   -101.48762    374170.62   -103628.28    9839.2068   -113467.48    737.29427 
   13050    287.77883    177.34065    374114.38   -103613.72    9909.4678   -113523.19    740.33905 
   13100    293.93646    6.1239368    374195.02   -103591.71    10121.501   -113713.21      743.758 
   13150    287.57532   -15.873811     374435.8   -103623.47      9902.46   -113525.93    746.25849 
   13200    285.49597    64.466546    374445.83   -103636.26    9830.8589   -113467.12    748.70034 
   13250    288.43244    129.80154    374252.74   -103706.92    9931.9743   -113638.89    750.75837 
   13300    292.29395    68.272998    373973.22   -103694.65    10064.943    -113759.6    753.08259 
   13350    288.64107    132.37986    373865.14   -103669.75    9939.1584   -113608.91    756.78915 
   13400    289.61398    65.620586    374141.01   -103708.65    9972.6597   -113681.31    759.91509 
   13450    285.41436   -54.309578    374406.44   -103728.86    9828.0488   -113556.91    763.08565 
   13500    287.60438   -295.04727    374495.11   -103684.18    9903.4607   -113587.64    766.44186 
   13550    287.08809      45.9077    374037.29   -103779.65    9885.6824   -113665.33    768.79758 
   13600    290.04216   -215.24298    373529.04   -103787.99     9987.404   -113775.39    770.62742 
   13650    292.38055    186.04819    372907.71   -103797.83    10067.925   -113865.76    772.43883 
   13700    284.88731    272.74545    372879.09   -103789.39       9809.9   -113599.29    774.98303 
   13750    291.95587   -94.229168    373794.23   -103780.66    10053.301   -113833.96    778.56675 
   13800    287.28249    136.92316    374460.18   -103832.83    9892.3767    -113725.2    782.58216 
   13850    288.41866   -200.30775    374749.31   -103819.35    9931.4998   -113750.85    785.54815 
   13900    286.72383    88.862735    374619.39   -103778.01    9873.1396   -113651.15    789.39265 
   13950    286.93023   -105.20389    374150.46   -103800.73    9880.2469   -113680.98     792.3626 
   14000    285.81178    313.21603    373495.05   -103734.12    9841.7337   -113575.86        793.8 
   14050     291.2662   -7.7453649     373410.2    -103734.9    10029.553   -113764.45    797.66893 
   14100    283.57866     371.0022    373550.96   -103716.02    9764.8376   -113480.85    800.16257 
   14150    288.92254   -171.76153    373910.03   -103718.77    9948.8504   -113667.62    803.31639 
   14200    290.07071   -415.78236    374173.92   -103704.42    9988.3868   -113692.81    807.70063 
   14250    288.40879    95.497896    374117.67   -103615.17    9931.1598   -113546.33    810.91323 
   14300    286.57705    82.167565    374014.21   -103633.99    9868.0853   -113502.08    814.51151 
   14350    289.01926     71.13342    373699.22    -103645.1    9952.1809   -113597.28    816.11525 
   14400    288.57452    205.71609    373482.78   -103615.69    9936.8666   -113552.56    819.04335 
   14450    293.39502    17.825315    373868.07   -103673.37    10102.857   -113776.23    822.24558 
   14500    286.95798   -145.54115    374357.25   -103677.77    9881.2024   -113558.97    826.19482 
   14550    283.91478    -286.5355    374529.94   -103726.24    9776.4116   -113502.65     829.8172 
   14600    284.24947     74.56438    373886.28   -103717.12    9787.9367   -113505.05    831.28649 
   14650    286.96211    213.65582    373499.35   -103736.66    9881.3446   -113618.01     832.5844 
   14700    289.77517    67.774814    373660.95   -103707.07    9978.2102   -113685.28    836.10381 
   14750    288.35377    43.214971    374085.11   -103725.39    9929.2654   -113654.65    840.36402 
   14800    284.15116   -116.00682     374366.6   -103784.29    9784.5514   -113568.84    842.96491 
   14850    285.45544   -87.890155    374236.59   -103792.61    9829.4632   -113622.07    846.21939 
   14900    289.31348    183.74808    373793.25   -103791.48    9962.3124   -113753.79    848.71651 
   14950    286.05825    92.079225    373720.08   -103895.05    9850.2207   -113745.27    851.96046 
   15000    285.97309    351.18056    373838.49   -103883.56    9847.2881   -113730.85     855.3173 
   15050    285.60757   -105.70233     373902.8   -103886.98    9834.7017   -113721.69    858.12004 
   15100    285.91838    38.769038    373783.96   -103854.42    9845.4043   -113699.82     860.4688 
   15150    285.96862   -88.123801     373925.3   -103844.25    9847.1344   -113691.38    863.42873 
   15200    291.43881    35.939104    373843.03   -103855.22    10035.496   -113890.72    867.14273 
   15250    284.41098   -220.95144    373990.46   -103860.13    9793.4979   -113653.62    868.86251 
   15300    288.70783    142.20219    373825.61   -103823.25    9941.4573   -113764.71    870.97479 
   15350    287.58299   -108.94001    373990.42   -103804.96     9902.724   -113707.68    875.05573 
   15400    288.21989   -118.47906    374224.68   -103769.11    9924.6554   -113693.77    878.81908 
   15450    288.10545   -218.06871    374114.12   -103785.93    9920.7146   -113706.65    880.68896 
   15500    290.56905    119.62826    373521.89    -103760.4    10005.547   -113765.95     882.6371 
   15550    287.36672    232.19093    373195.13   -103778.65    9895.2768   -113673.93    884.84932 
   15600    284.89116   -233.73596    373697.33   -103765.97    9810.0328      -113576     887.6017 
   15650     289.9107    -215.6753    374167.53   -103775.52     9982.877   -113758.39    890.96545 
   15700     287.7816    78.786989    374116.31   -103729.96    9909.5631   -113639.53    893.98929 
   15750    288.36266   -179.88521    374071.87   -103748.37    9929.5714   -113677.95    895.27359 
   15800    287.68416    160.76464    373911.83   -103723.85    9906.2077   -113630.06    897.80793 
   15850     285.0377    157.34867    373940.64   -103709.68    9815.0788   -113524.76    899.56264 
   15900    287.30887    -63.96786    374241.84   -103729.09    9893.2848   -113622.37    901.74834 
   15950    287.18313   -332.42678    374715.62    -103686.5    9888.9551   -113575.45    906.60799 
   16000    287.24488    95.164036    374413.28   -103639.02    9891.0814    -113530.1    909.26201 
   16050    287.54012   -207.31254     373902.5   -103595.17    9901.2477   -113496.42    909.00997 
   16100    294.92219    -7.467257    373464.82   -103587.54    10155.444   -113742.98     911.1503 
   16150    289.47983    104.58056    373569.15   -103590.13    9968.0403   -113558.17    913.97103 
   16200    287.19462    217.35218    373933.87   -103539.04    9889.3507   -113428.39    915.76104 
   16250    290.08608   -287.66829    374363.67   -103526.77    9988.9161   -113515.69    919.26571 
   16300    291.81152   -40.609559    374378.27   -103535.65    10048.331   -113583.98    923.00973 
   16350    289.43297      74.8278    374149.09   -103547.42    9966.4267   -113513.84    926.02972 
   16400     291.6482   -86.515057    374157.85   -103534.01    10042.707   -113576.72    928.53623 
   16450    285.14058    86.873481    374005.98   -103567.59    9818.6214   -113386.21     930.0448 
   16500    290.90336    13.636266    373893.48    -103535.7    10017.059   -113552.76    932.16315 
   16550    292.30484    141.14335    373838.57   -103491.95    10065.318   -113557.27    935.54021 
   16600    290.92175   -48.995292    374105.07   -103459.13    10017.692   -113476.82    939.50581 
   16650    292.91057   -204.46012    374454.53   -103411.76    10086.176   -113497.93    943.18252 
   16700    291.26143   -460.32311    374596.69   -103466.07    10029.389   -113495.45     945.9105 
   16750     294.0624     34.04063    374249.55   -103481.82    10125.838   -113607.66    946.53179 
   16800    290.40009    209.69753    373824.96   -103523.44    9999.7291   -113523.17    948.30355 
   16850    293.18341    57.057212    373701.42   -103570.93    10095.571    -113666.5    950.67817 
   16900    291.30069    15.838206    374112.56   -103558.63    10030.741   -113589.37    954.78446 
   16950    289.35705     191.3695    374709.57   -103529.86    9963.8126   -113493.68    959.61714 
   17000     290.3466   -2.8691539    374789.08   -103555.03    9997.8871   -113552.91    963.43997 
   17050     288.0625    -21.27297    374369.84    -103504.4    9919.2356   -113423.64     965.2024 
   17100    291.93668    110.21663    373978.96   -103534.27     10052.64   -113586.91    966.05189 
   17150    289.98212   -16.172151    374338.66    -103449.9    9985.3364   -113435.24    969.92027 
   17200    287.64538   -126.72844    374988.47   -103391.28    9904.8724   -113296.16    975.07816 
   17250    291.04665    -200.6678    375346.16   -103405.25    10021.993   -113427.25    977.92836 
   17300    293.97236    250.74708     374742.6   -103357.19    10122.738   -113479.93    978.80397 
   17350    292.93624    203.26395    374160.14   -103402.63     10087.06   -113489.69    978.92607 
   17400    292.95851    92.290019    374110.54   -103433.63    10087.826   -113521.45    980.40302 
   17450    290.42341     261.8094    374061.85   -103405.12    10000.532   -113405.65    984.55599 
   17500    288.10026     29.06842    374666.78   -103468.29    9920.5359   -113388.83    987.24993 
   17550    289.35649   -227.61946    375061.67   -103537.64    9963.7932   -113501.43    987.47529 
   17600    293.31757   -49.401622    374413.55   -103496.54     10100.19   -113596.73    987.71183 
   17650    291.32226    379.06945    373457.76   -103459.85    10031.483   -113491.34    989.12719 
   17700    293.61908    272.59447    373247.13   -103422.36    10110.573   -113532.93    992.52367 
   17750    292.56816    165.78484    373998.41   -103415.68    10074.385   -113490.06    997.73393 
   17800    292.33372   -219.79807    375021.11   -103410.81    10066.312   -113477.12    1001.8559 
   17850    294.28236    -507.6402    375068.37   -103441.25    10133.412   -113574.66    1002.8993 
   17900    290.03906    213.40183    374276.74   -103464.62     9987.297   -113451.91    1004.1099 
   17950    288.94984    40.765353     373815.9   -103493.36    9949.7906   -113443.15    1004.9305 
   18000    292.05238    142.76367    373811.58   -103559.57    10056.624   -113616.19    1006.7418 
   18050    289.24174   -37.732366    374226.26    -103589.9    9959.8421   -113549.74    1009.9551 
   18100    289.09983    98.160837     374370.5   -103639.26    9954.9553   -113594.21    1012.9109 
   18150    285.89477   -258.07316    374194.14   -103677.18    9844.5913   -113521.77    1015.6993 
   18200    294.83411    150.32886    373576.38   -103611.51    10152.411   -113763.92    1017.0747 
   18250    293.10119   -105.93443    373450.11   -103545.86    10092.739    -113638.6     1020.292 
   18300    292.69139   -14.655832    373776.74   -103548.73    10078.628   -113627.36    1024.4186 
   18350     290.8347    92.011025    373953.36   -103520.55    10014.694   -113535.25    1027.8591 
   18400    289.94794    63.127744    374155.48   -103527.79    9984.1595   -113511.95    1031.8865 
   18450    290.43409   -196.20402    374562.65   -103557.58      10000.9   -113558.48    1034.8858 
   18500    290.58506   -155.00194    374615.45   -103530.88    10006.098   -113536.98    1036.1583 
   18550    291.32062   -6.4215108    374099.69   -103484.23    10031.427   -113515.66    1038.3383 
   18600    290.27704    240.52943    373522.96   -103466.55    9995.4919   -113462.04    1040.4066 
   18650    290.11851   -161.32221     373766.1   -103483.54    9990.0328   -113473.57    1043.6495 
   18700    290.09824   -124.66724    374239.94   -103512.67     9989.335      -113502     1048.543 
   18750    288.85619    31.371213    374780.18   -103446.41    9946.5659   -113392.98    1053.3938 
   18800    290.47906   -62.818251    375056.18   -103424.64    10002.448   -113427.09    1056.2181 
   18850    289.61496   -162.37757    374984.25   -103462.13    9972.6936   -113434.83    1059.5774 
   18900    287.87882    50.609681     374431.4   -103470.95    9912.9109   -113383.86    1061.2506 
   18950    289.84017   -108.78823    374161.24   -103516.41    9980.4486   -113496.86    1063.8336 
   19000    291.12498    133.46643    373791.73   -103488.79     10024.69   -113513.48    1065.1932 
   19050    290.47926    76.881459    374060.64   -103456.99    10002.455   -113459.45    1069.4641 
   19100    291.73673    66.421883    374505.06   -103485.56    10045.755   -113531.31    1072.4271 
   19150    289.84835    42.925725    374714.68   -103474.51    9980.7301   -113455.24     1076.343 
   19200    288.13109    77.773161     374364.5    -103498.9    9921.5975   -113420.49    1076.7766 
   19250    294.85124     81.73995    373803.85   -103490.81    10153.001   -113643.81    1077.0217 
   19300    289.72912    204.34832    373636.76   -103517.96    9976.6247   -113494.59    1079.7426 
   19350    288.88422   -148.63413    374086.98   -103562.62    9947.5311   -113510.15    1083.1018 
   19400     287.4006    11.706948    374506.72   -103563.58    9896.4435   -113460.03    1084.1543 
   19450    286.97893    78.326079    374452.68   -103587.96    9881.9235   -113469.89    1086.9269 
   19500    285.07541   -134.56139    374276.76    -103654.3    9816.3773   -113470.68     1089.361 
   19550    291.05478   -23.589531    374171.05   -103584.16    10022.273   -113606.44    1092.1568 
   19600    289.11435     50.25453    374303.33   -103577.68    9955.4555   -113533.13    1098.2157 
   19650    290.78135    95.307218    374598.56   -103524.25    10012.857   -113537.11    1101.0566 
   19700    290.66079   -131.51143    374579.52    -103463.6    10008.706   -113472.31    1102.9934 
   19750    286.68364   -36.015234    374237.86   -103481.07    9871.7555   -113352.82    1103.0699 
   19800    291.99463    258.86718    373770.84   -103505.51    10054.636   -113560.14    1104.2642 
   19850    287.75613    11.874358    373912.78   -103478.59    9908.6858   -113387.28    1108.4571 
   19900     293.6489    149.55103    374213.63   -103418.97      10111.6   -113530.57    1112.3956 
   19950    292.51164   -41.662069    374589.51   -103419.49    10072.439   -113491.93    1115.4952 
   20000     290.3373    45.327173    374568.32   -103385.51    9997.5668   -113383.08    1118.6419 
   20050    294.83738   -10.752291    374414.22    -103430.9    10152.524   -113583.42    1121.1618 
   20100    291.17377   -58.464235    374296.89   -103463.17     10026.37   -113489.54    1122.6412 
   20150    291.73535    254.44409    374221.81   -103494.52    10045.708   -113540.23    1125.2577 
   20200     288.7641   -193.03849    374617.13   -103495.48    9943.3948   -113438.88     1128.116 
   20250    285.34616   -79.039808    374708.55    -103511.8    9825.7002    -113337.5    1130.2335 
   20300    285.40819   -9.1085909    374396.54   -103481.51    9827.8364   -113309.34     1132.581 
   20350    289.82017    92.596175    373996.61   -103479.81    9979.7597   -113459.57    1134.9386 
   20400    291.21348    89.445009     373974.5   -103426.53    10027.738   -113454.27    1136.9103 
   20450    294.89695   -20.006059    374470.88   -103367.78    10154.575   -113522.35    1141.8281 
   20500    293.14016   -53.017105    374607.72   -103369.37    10094.081   -113463.45    1145.3345 
   20550    294.10606   -92.151358    374400.99    -103351.7    10127.341   -113479.05    1147.8432 
   20600    293.91612    414.45277    374033.28   -103343.36    10120.801   -113464.17     1150.112 
   20650    296.96273    101.80219    374130.15    -103297.8    10225.709   -113523.51    1151.8578 
   20700    286.76088   -21.466127    374507.34   -103385.52    9874.4153   -113259.94    1154.9826 
   20750    288.57639    -85.46552    374706.32   -103375.59    9936.9312   -113312.52     1158.479 
   20800    290.08306   -119.77438    374661.05   -103357.44    9988.8122   -113346.25    1161.7627 
   20850    293.55452    58.724334    374312.64   -103364.92     10108.35   -113473.27    1161.8858 
   20900    290.86748     94.49206    374059.04   -103267.58    10015.823    -113283.4    1163.5586 
   20950    290.53595    103.41514    373926.69   -103330.33    10004.407   -113334.74    1167.4069 
   21000     294.2047   -116.69745    374174.43   -103373.12    10130.738   -113503.86     1171.055 
   21050    294.83183   -211.06757     374590.7   -103324.18    10152.333   -113476.51    1175.0063 
   21100    294.70472   -176.98169    374883.08   -103299.95    10147.956   -113447.91    1179.6256 
   21150    295.56819    -35.15706    374904.12   -103347.06    10177.689   -113524.75    1182.0237 
   21200    292.60887   -6.7739728    374802.66   -103374.61    10075.787    -113450.4    1184.8624 
   21250    288.43718   -121.03439    374583.28      -103412    9932.1374   -113344.13    1186.5148 
   21300    292.68145    139.84598    373931.91   -103418.84    10078.286   -113497.13    1187.2453 
   21350    286.33973    344.88689    373605.67   -103500.62    9859.9132   -113360.53    1188.1598 
   21400    289.81177   -18.668194    374028.87   -103491.79    9979.4704   -113471.26    1190.9278 
   21450    291.62051   -237.14344    374719.48   -103480.38    10041.753   -113522.13    1193.9931 
   21500    292.65829   -430.91013    374719.89   -103448.84    10077.489   -113526.33    1196.0647 
   21550    289.28803    185.71703    374097.09   -103448.48    9961.4358   -113409.92    1198.0587 
   21600    292.43841    96.454605    373763.84   -103515.99    10069.917   -113585.91    1200.8646 
   21650    290.80589   -95.099882    373991.33   -103514.39    10013.702   -113528.09    1203.5465 
   21700    286.29147   -169.94807    374600.11   -103483.77    9858.2516   -113342.02    1206.0127 
   21750    289.46159    81.106527    374745.67   -103485.63    9967.4122   -113453.04    1209.3432 
   21800    290.17001  0.097693916    374601.58   -103511.04    9991.8063   -113502.85    1211.4851 
   21850    284.53382    8.5380233    374261.34   -103496.54     9797.728   -113294.27    1212.2589 
   21900    292.91881   -83.636929    373837.79   -103486.19    10086.459   -113572.65    1211.3417 
   21950    294.08209      195.798    373768.89   -103505.58    10126.516   -113632.09    1213.9149 
   22000    291.50351     133.5395    374119.39    -103458.4    10037.724   -113496.12    1218.5897 
   22050    291.84896    5.0789513    374510.13   -103445.95     10049.62   -113495.57    1221.9481 
   22100    292.69729    -259.4352    374728.79    -103436.5    10078.831   -113515.33    1224.9415 
   22150    293.84369   -60.434798    374755.22   -103429.72    10118.307   -113548.03    1227.9882 
   22200    289.71292   -3.9609055    374665.11   -103398.32    9976.0668   -113374.39    1231.6309 
   22250    292.28725   -108.22603    374161.68    -103426.6    10064.712   -113491.31    1232.9062 
   22300    289.91772    105.33288    373688.62   -103448.13    9983.1188   -113431.25    1235.4124 
   22350    290.58241    25.162987    373751.99   -103465.87    10006.007   -113471.87    1237.4422 
   22400    290.73082   -119.77572    374227.54   -103502.57    10011.117   -113513.68    1241.2741 
   22450    293.32481   -68.477117    374676.41   -103469.21     10100.44   -113569.64    1245.1867 
   22500    293.10863   -63.942045    374676.98   -103392.67    10092.996   -113485.67    1245.7944 
   22550    292.57018   -109.42051    373967.25   -103435.28    10074.454   -113509.73    1245.9673 
   22600    287.97578    234.86722    373324.72   -103465.69    9916.2496   -113381.94    1247.6344 
   22650    292.59325    36.362124    373519.17    -103434.5    10075.249   -113509.75    1251.0801 
   22700    291.26426   -85.590622    374144.79   -103461.37    10029.486   -113490.85    1254.7343 
   22750    290.58166    26.514621    374673.01   -103436.02    10005.981      -113442    1257.2819 
   22800    291.90756    47.586501     374867.3   -103456.98    10051.638   -113508.62     1258.078 
   22850    293.25068   -222.81564    374749.54   -103451.89    10097.887   -113549.78    1259.5695 
   22900    292.43375    40.821509    374119.13   -103389.52    10069.757   -113459.27    1260.0024 
   22950    295.13635    49.657745     373624.6   -103397.61    10162.819   -113560.43    1263.8136 
   23000    289.00394    211.91905    373728.02   -103481.84    9951.6533   -113433.49      1266.11 
   23050    293.39443   -113.59276    374125.38   -103451.38    10102.837   -113554.21     1269.694 
   23100    291.96263    165.97083     374103.6   -103520.85    10053.534   -113574.38    1272.8519 
   23150    287.60283   -43.842632    374032.44   -103516.63    9903.4071   -113420.04    1275.7456 
   23200    289.51996    148.81591     374147.8   -103465.38    9969.4222    -113434.8    1278.9837 
   23250    292.53083     132.7878    374416.57   -103453.38    10073.099   -113526.48    1279.1215 
   23300    290.24251   -105.97281    374688.13   -103471.37    9994.3029   -113465.67    1282.0912 
   23350    292.17101    2.1956553    374691.71   -103482.49    10060.709   -113543.19    1285.3811 
   23400    293.85816    59.245094    374421.07   -103472.38    10118.805   -113591.18    1287.9805 
   23450    291.32009    172.34687    374213.59   -103500.72    10031.408   -113532.13    1289.3877 
   23500    286.97944   -66.083258    374278.75   -103520.75    9881.9412   -113402.69     1290.528 
   23550    290.30557    143.66786    374157.76   -103536.36    9996.4741   -113532.84    1291.5221 
   23600    287.05032   -12.660456    374198.71   -103524.89    9884.3821   -113409.27    1293.8481 
   23650    285.99759    69.764634     374271.7   -103571.42    9848.1319   -113419.55    1296.3981 
   23700    291.35275   -138.28078    374186.68   -103592.55    10032.533   -113625.08    1301.0573 
   23750    291.51014    172.34607    373757.43    -103586.3    10037.953   -113624.25    1303.5117 
   23800    288.56847    259.87975    373608.08   -103561.63    9936.6583   -113498.28    1306.3492 
   23850     290.4196    -50.77036    373919.14   -103525.97    10000.401   -113526.37    1308.8837 
   23900    294.51527   -71.062516    374292.88   -103530.48    10141.432   -113671.92    1311.3149 
   23950    292.62998    106.64883    374382.34   -103586.41    10076.514   -113662.93    1314.3022 
   24000    293.81521    110.12037    374444.06   -103564.31    10117.326   -113681.63    1317.5865 
   24050    288.51858    212.20827    374272.11   -103545.02    9934.9404   -113479.96    1319.4656 
   24100    290.43426   -137.66653    374110.86   -103555.74    10000.906   -113556.65    1321.2429 
   24150    288.80371   -110.26996    374003.03   -103527.79    9944.7589   -113472.55    1324.1319 
   24200    292.21781   -38.544352    373902.77   -103541.67    10062.321   -113603.99    1326.7589 
   24250    294.83048    20.259639    373807.78   -103472.68    10152.286   -113624.96    1328.5906 
   24300    291.05086   -10.880079       373983   -103488.34    10022.138   -113510.48    1332.8224 
   24350    294.78009   -186.87869    374313.32   -103540.26    10150.551   -113690.81    1336.7814 
   24400    289.90588    128.92225    374153.53   -103564.34    9982.7112   -113547.05     1340.973 
   24450     288.1566   -53.912153     373844.8   -103553.81     9922.476   -113476.28    1343.3774 
   24500    285.60369    44.925655     373946.8   -103559.89    9834.5682   -113394.46    1347.7243 
   24550    289.45306   -19.400494    374258.99   -103567.87    9967.1185   -113534.99     1350.481 
   24600    288.90472   -76.031523    374178.51   -103616.68    9948.2368   -113564.92    1352.2182 
   24650    287.66471     64.06579    374013.07   -103609.61    9905.5379   -113515.15    1354.2199 
   24700    289.26238    105.92732    374080.89   -103626.66    9960.5525   -113587.21    1360.0164 
   24750    285.94827   -54.510803    374044.97   -103587.08    9846.4335   -113433.52    1364.3133 
   24800    286.26979    8.7560684    373603.78   -103635.45    9857.5049   -113492.95    1365.1477 
   24850    288.99195   -91.479527    373456.38   -103610.54    9951.2405   -113561.78    1367.9133 
   24900     288.4704    184.92432    373616.83   -103664.86    9933.2813   -113598.14    1372.9077 
   24950    291.86789   -281.23892    374175.86   -103669.67    10050.272   -113719.94    1376.9403 
   25000    287.80794    48.797676    374544.62   -103633.11    9910.4702   -113543.58    1379.8501 
   25050    290.24167    -116.2596    374541.98   -103624.98     9994.274   -113619.25    1382.4299 
   25100    291.32959   -5.8226304    374028.25   -103638.14    10031.736   -113669.88    1384.2231 
   25150    288.30693    172.03785    373412.22   -103602.06    9927.6523   -113529.71     1386.057 
   25200    290.38303    158.88161    373405.37    -103559.3    9999.1416   -113558.44    1387.5989 
   25250    288.78793    35.356085    373969.76   -103575.66    9944.2152   -113519.87    1390.9593 
   25300    288.37551   -123.18391    374641.61   -103505.59    9930.0141    -113435.6    1394.6162 
   25350    284.74341   -84.434259    374477.82    -103542.4    9804.9452   -113347.35    1396.4598 
   25400    287.62874   -65.095311    373880.89   -103546.74    9904.2994   -113451.04    1396.4916 
   25450    286.13873    -38.46199    373297.36   -103571.65    9852.9919   -113424.65    1397.9627 
   25500    293.34971      299.927     372905.2   -103603.96    10101.297   -113705.25    1397.9523 
   25550    292.58895    125.89226    373196.24   -103611.36    10075.101   -113686.46     1401.308 
   25600    286.71053    16.034629    374004.67    -103611.8    9872.6816   -113484.49    1407.1673 
   25650    289.15626   -291.92017    374471.04   -103586.51    9956.8986    -113543.4    1410.8597 
   25700    289.52692    148.08011    374245.55   -103555.47     9969.662   -113525.13    1413.7047 
   25750    287.24112   -131.08414    374521.68    -103578.3    9890.9519   -113469.25    1418.1659 
   25800    291.06443   -99.365418    374461.34   -103571.92    10022.605   -113594.52    1419.9808 
   25850    286.99674    175.69181     373935.2   -103553.78    9882.5369   -113436.32    1420.0797 
   25900    289.78603   -108.56868    373700.97   -103603.02    9978.5841   -113581.61      1421.42 
   25950    289.61394    261.93234    373569.92    -103628.4    9972.6585   -113601.05    1422.3417 
   26000    287.40069   -115.91939    373951.01   -103654.58    9896.4468   -113551.02     1426.531 
   26050     289.8369    16.624987    374212.59   -103657.87     9980.336   -113638.21    1430.7496 
   26100     286.5134    29.627523    374757.15   -103656.05    9865.8936   -113521.94    1433.9932 
   26150    289.06494    -10.53206    374876.26   -103606.48    9953.7538   -113560.24    1435.8801 
   26200    290.57619   -170.00835    374524.62   -103569.11    10005.793    -113574.9     1437.877 
   26250     291.0352     172.7259    373941.12    -103555.1    10021.599    -113576.7    1438.5066 
   26300    292.91191    30.201376    373771.31   -103540.76    10086.222   -113626.98    1440.0888 
   26350    291.74481    -11.70755    373977.34   -103490.64    10046.033   -113536.67    1443.2132 
   26400    290.03995   -191.45122    374299.93   -103506.16    9987.3276   -113493.49    1445.7858 
   26450    289.70939    -129.3812    374510.43   -103537.63    9975.9451   -113513.57    1448.7221 
   26500    289.46851    57.463228    374341.68   -103515.73    9967.6508   -113483.38    1450.5127 
   26550     291.2724   -119.46892    374113.71   -103569.42    10029.766   -113599.19    1450.5846 
   26600    288.27413   -246.09494    374213.15   -103557.79    9926.5228   -113484.32    1452.1691 
   26650    289.72677   -278.97131     374251.2   -103579.91    9976.5437   -113556.46    1455.4964 
   26700    288.08552   -228.36913     374151.9   -103639.09    9920.0283   -113559.12     1456.913 
   26750    287.42708   -68.636491    373967.93   -103675.68    9897.3553   -113573.04    1459.0519 
   26800    288.62526    68.901505    373723.66   -103673.67    9938.6137   -113612.28    1460.6318 
   26850    287.43129   -120.98053    373659.89   -103744.11    9897.5003   -113641.61    1462.2382 
   26900    289.38023   -5.9858631    373665.59   -103761.59    9964.6109    -113726.2    1464.1451 
   26950    286.56961    80.361734    373642.82   -103751.19    9867.8291   -113619.02    1466.1342 
   27000    286.92112    96.348853    373651.21   -103758.21     9879.933   -113638.15    1467.3954 
   27050    284.60745   -39.829878    373777.86    -103769.1    9800.2633   -113569.37    1470.5654 
   27100      287.641   -44.256242    373880.44   -103803.55    9904.7215   -113708.27    1473.9916 
   27150     288.5863   -191.58552    373963.06   -103699.94    9937.2724   -113637.21    1477.6435 
   27200     289.3081     377.9479    373652.43   -103695.38    9962.1269   -113657.51    1480.3331 
   27250    287.57227   -219.00836    373795.38    -103698.2    9902.3548   -113600.55    1484.6675 
   27300    288.24652   -94.491433    373743.12   -103700.77    9925.5724   -113626.34    1486.9516 
   27350    291.80404    262.59923    373705.03   -103691.06    10048.073   -113739.13    1487.8599 
   27400    292.79976   -153.27165    373864.44   -103654.58     10082.36   -113736.94    1490.3868 
   27450     289.3689    153.54447    373839.29   -103620.53    9964.2206   -113584.75    1492.2037 
   27500    289.51904    40.885418    373948.58   -103584.07    9969.3907   -113553.46    1495.2814 
   27550    290.78268    99.908651    374309.97   -103545.14    10012.903   -113558.05    1499.5348 
   27600    292.83978   -20.240681    374367.95   -103518.89    10083.738   -113602.62    1502.0628 
   27650    288.84544   -177.17139     374089.3   -103571.57    9946.1958   -113517.77    1503.8814 
   27700    289.56774   -4.6566014    373659.54   -103577.47    9971.0674   -113548.53    1502.8676 
   27750    293.93701    124.09853    373282.22   -103540.38     10121.52    -113661.9    1502.4459 
   27800     286.6401    57.874308     373542.6   -103599.23    9870.2564   -113469.48    1504.4691 
   27850     288.2083    251.80145    374087.34   -103567.78    9924.2563   -113492.04    1509.1648 
   27900    289.53738    69.114827    374749.27    -103480.6     9970.022   -113450.62    1514.5481 
   27950    286.77025   -84.188007    375126.93   -103480.03    9874.7378   -113354.77    1517.6163 
   28000    291.38079   -180.67487     374839.3   -103498.17    10033.499   -113531.67     1517.693 
   28050    292.11456     95.21035    374013.74   -103459.09    10058.766   -113517.86    1517.0879 
   28100    292.03111   -24.518941    373423.75   -103475.18    10055.892   -113531.07    1517.9405 
   28150    290.77787     79.88427    373210.02   -103504.49    10012.738   -113517.23    1519.3555 
   28200    290.22256      108.155    373523.53    -103533.1    9993.6158   -113526.72    1524.0881 
   28250    286.55137   -81.512822    374118.42   -103484.48    9867.2008   -113351.68    1529.1045 
   28300    286.05706   -197.39045    374708.02   -103490.96    9850.1797   -113341.14    1533.1758 
   28350    292.65129   -147.39923    374713.63   -103531.24    10077.247   -113608.49    1536.0594 
   28400    288.34395   -10.539967    374130.28    -103512.9    9928.9273   -113441.83    1537.9909 
   28450     289.6631    328.29763    373487.21   -103500.22    9974.3513   -113474.57    1539.8383 
   28500    290.51952   -23.952023    373650.62   -103455.92    10003.841   -113459.76    1540.3099 
   28550    290.97722   -1.0540621       374168   -103399.88    10019.602   -113419.49     1543.139 
   28600    295.12928   -227.30852    374485.06   -103357.66    10162.575   -113520.23     1545.341 
   28650    296.16975   -134.22209    374433.08   -103368.73    10198.403   -113567.13    1547.7024 
   28700    295.67271    126.30678    374084.05   -103313.65    10181.288   -113494.93    1549.5581 
   28750    293.27289   -76.640392    373925.83   -103364.18    10098.652   -113462.83    1551.7959 
   28800     291.5494    16.900585    374216.03   -103459.91    10039.305   -113499.21    1554.8755 
   28850    287.50587   -15.093992    374495.99   -103460.95    9900.0686   -113361.02    1559.4106 
   28900    289.50079    199.51857    374319.59   -103475.51     9968.762   -113444.27    1561.8202 
   28950    291.24317   -76.392208     374292.8   -103490.99     10028.76   -113519.75    1563.3298 
   29000    288.26277    -45.01616    374350.13   -103530.54    9926.1318   -113456.68    1564.4707 
   29050    292.21912    100.36591    374307.15   -103530.48    10062.366   -113592.84    1568.1187 
   29100    292.19463    -117.8738    374124.64   -103510.51    10061.523   -113572.03     1570.422 
   29150    287.11777    230.28362    374100.06    -103527.2    9886.7044   -113413.91    1574.4202 
   29200    292.30532    28.406998    374195.36   -103511.92    10065.334   -113577.25    1576.2011 
   29250    288.73163   -239.42834    374202.77   -103464.58    9942.2766   -113406.85    1580.2879 
   29300    290.35736    97.936613    373950.67   -103529.74    9998.2577      -113528    1582.2207 
   29350     294.8717   -92.525654    374123.87    -103552.3    10153.706      -113706     1583.655 
   29400     290.3799   -144.97259    374323.36   -103590.41    9999.0336   -113589.44    1587.4295 
   29450    286.48046    248.15465    374010.18   -103579.51    9864.7591   -113444.26    1586.8261 
   29500    287.61976   -15.415671    373913.37   -103595.53    9903.9903   -113499.52    1589.2415 
   29550    288.49977   -14.342115    374012.57   -103559.85    9934.2928   -113494.14    1592.4004 
   29600    285.66339   -52.735746    374218.15   -103511.25    9836.6238   -113347.87    1596.6868 
   29650    291.06983    40.338395    374382.86   -103504.57    10022.791   -113527.36    1600.0013 
   29700    287.20718   -118.11903    374464.38   -103521.88    9889.7831   -113411.66     1602.123 
   29750    290.89858     158.5848    374098.37    -103503.5    10016.894    -113520.4    1604.6907 
   29800    290.81207    275.98099    373592.26   -103488.18    10013.915    -113502.1    1606.4793 
   29850    289.54358   -3.7198338    373548.09   -103468.33    9970.2355   -113438.57    1609.6869 
   29900     287.9134    72.452931    373621.75   -103430.07    9914.1014   -113344.17    1610.8839 
   29950    291.13547    198.40752    373833.16   -103401.26    10025.051   -113426.31    1614.2265 
   30000     290.3922    89.126628    374461.65   -103473.28    9999.4572   -113472.74    1618.9788 
   30050    289.49161    48.194845    375052.77   -103495.97    9968.4462   -113464.42    1624.1311 
   30100    289.46694   -50.970121    375148.21   -103430.97    9967.5966   -113398.57    1627.1224 
   30150    289.59441   -4.3355569    374571.58   -103434.74    9971.9859   -113406.72    1628.6149 
   30200    295.00657    265.86289    374000.94   -103435.56     10158.35   -113593.91    1628.9236 
   30250    291.79784    86.490042    374050.07   -103443.91     10047.86   -113491.77    1631.9107 
   30300    294.53966    98.296939    374191.11   -103418.64    10142.272   -113560.91    1635.8512 
   30350    288.50773    34.232829    374496.62    -103434.7    9934.5667   -113369.27    1638.6406 
   30400    289.03846    12.753097    374696.94   -103540.32     9952.842   -113493.17    1642.3409 
   30450    290.24884   -56.119455    374351.22   -103565.73    9994.5209   -113560.25    1643.2865 
   30500    292.36786   -14.733949    373647.91   -103526.28    10067.488   -113593.76    1642.7964 
   30550    292.14361    48.553334    373146.78   -103500.44    10059.766   -113560.21    1643.5191 
   30600    290.21351    184.21682    373247.17   -103553.64    9993.3041   -113546.95    1646.4218 
   30650    290.69412   -43.603723    373927.96   -103578.81    10009.854   -113588.66    1648.6625 
   30700    291.08865   -23.809653    374715.49   -103579.88    10023.439   -113603.32    1652.0813 
   30750    288.34308   -320.25647    375149.44   -103618.45    9928.8973   -113547.35    1655.6186 
   30800    285.66373   -70.493134    374448.42   -103648.44    9836.6358   -113485.07    1655.5938 
   30850    287.00436    342.16398    373520.98   -103705.95    9882.7993   -113588.75     1653.467 
   30900     291.4237    98.719816    373445.27   -103675.23    10034.976    -113710.2    1654.5427 
   30950    288.30694    188.08879    374113.66   -103688.33    9927.6527   -113615.98    1658.1439 
   31000    286.48356   -181.21387    374690.13   -103681.86     9864.866   -113546.73    1661.7542 
   31050    285.42507   -191.27805    374457.68   -103674.82    9828.4177   -113503.24    1661.9577 
   31100     285.9457    41.961867    373992.32   -103632.25    9846.3452   -113478.59    1662.5494 
   31150    289.52544   -151.68223    373795.48   -103607.48     9969.611   -113577.09    1664.2535 
   31200    290.97207   -12.620596    373957.43   -103576.56    10019.425   -113595.98    1668.9606 
   31250    291.42264   -85.247861    374349.87      -103562     10034.94   -113596.94    1672.4141 
   31300    290.45979    -61.14246    374471.53   -103576.88    10001.785   -113578.66    1676.6875 
   31350     284.8537    -132.1731     374510.3   -103605.21    9808.7429   -113413.95    1683.4516 
   31400    286.60928     78.46209    374065.08   -103632.73    9869.1952   -113501.93     1686.247 
   31450    289.60255    152.97558    373717.93   -103626.15    9972.2662   -113598.42    1687.3599 
   31500    289.17944    64.223101    373899.96   -103614.43    9957.6966   -113572.12    1688.5551 
   31550    289.02449   -170.39359    374127.53   -103626.55    9952.3611   -113578.91    1690.1117 
   31600    285.38027    106.76525    373892.46   -103646.05    9826.8749   -113472.93    1692.0273 
   31650    291.13029   -97.250329    373586.12   -103596.98    10024.873   -113621.86    1694.7389 
   31700    283.92621    154.45568    373725.31   -103587.11    9776.8052   -113363.91     1695.109 
   31750    292.98381   -139.96155    374341.52   -103587.95    10088.698   -113676.65    1699.7937 
   31800    283.99974    2.9720387    374626.47   -103609.16    9779.3373    -113388.5    1704.9038 
   31850    288.07771   -309.36829     374434.4   -103649.82    9919.7595   -113569.58    1706.3365 
   31900     290.5296    175.13038    373699.74   -103648.93    10004.189   -113653.12     1707.221 
   31950    289.48963    387.81383    373530.97   -103611.63    9968.3781   -113580.01    1709.7758 
   32000    286.20005    30.267112    374073.51   -103647.19    9855.1034   -113502.29    1713.8921 
   32050    285.82111   -139.88298    374622.81   -103636.75     9842.055    -113478.8    1719.0956 
   32100    282.39185    36.749957    374389.73   -103660.59    9723.9706   -113384.56    1721.5125 
   32150    287.27153   -18.451923    373806.66   -103662.03     9891.999   -113554.03     1721.753 
   32200    288.44667    362.38963    373160.73   -103624.94    9932.4643   -113557.41     1722.059 
   32250    286.20158    322.20825    372913.32   -103595.15    9855.1561   -113450.31     1725.036 
   32300     289.5366    94.447629    373218.54   -103641.11    9969.9952   -113611.11    1728.6976 
   32350    290.12452   -9.6748486    373985.18   -103641.77    9990.2399   -113632.01    1733.8644 
   32400    290.89111    76.244675    374446.17   -103646.94    10016.637   -113663.58    1738.2475 
   32450    287.70075   -9.2542992    374413.36   -103686.45    9906.7789   -113593.23    1740.1096 
   32500      286.957   -37.606764    374112.93   -103656.64    9881.1683   -113537.81    1740.7244 
   32550    290.87956   -150.12709    373895.55   -103666.38    10016.239   -113682.62    1743.2821 
   32600    289.58478   -39.761913    373824.29   -103603.66    9971.6545   -113575.32    1746.6509 
   32650    289.63067   -69.445155     373964.9    -103593.3    9973.2344   -113566.54    1748.3394 
   32700    287.22638    6.1471242    374161.36   -103618.68    9890.4443   -113509.12    1751.0755 
   32750    286.72262    140.79849    374133.38   -103580.36    9873.0977   -113453.46    1754.2176 
   32800    287.97973    117.53723    374151.22   -103604.29    9916.3855   -113520.68    1757.0793 
   32850    290.78943    106.97874    374360.83    -103606.4    10013.136   -113619.54    1759.4286 
   32900    288.17987    28.223599    374670.36   -103617.05    9923.2771   -113540.33    1762.9002 
   32950    284.56051   -8.5928088    374659.34    -103652.8     9798.647   -113451.45    1764.5991 
   33000    289.30652   -199.53536    374312.32   -103591.33    9962.0726   -113553.41     1765.295 
   33050    289.99362    156.80931    373780.42   -103596.56    9985.7323   -113582.29    1766.6443 
   33100    288.33166   -116.34511     373788.7   -103642.94     9928.504   -113571.44    1768.8132 
   33150    288.14494    4.8017308    373561.43   -103664.18    9922.0744   -113586.25    1769.4745 
   33200    283.20976    249.59836    373414.51   -103684.92    9752.1349   -113437.06    1771.1273 
   33250    286.93035    274.86944    373619.77   -103691.39    9880.2509   -113571.64     1775.258 
   33300    285.35787    4.5779136     374191.3   -103670.25    9826.1035   -113496.36    1779.4498 
   33350    286.42269   -86.284452    374593.91   -103711.61    9862.7699   -113574.38    1782.7822 
   33400    294.82465   -25.193615    374246.54   -103683.67    10152.086   -113835.76    1785.2423 
   33450    290.67506    113.08521    373798.88   -103645.29    10009.197   -113654.49    1786.6524 
   33500    286.63505    138.85759    373754.83   -103680.41    9870.0824   -113550.49    1791.0373 
   33550    284.59822    63.176737    373847.32   -103645.24    9799.9456   -113445.19    1794.5854 
   33600    288.15391    76.701479    374105.17   -103684.98    9922.3833   -113607.36    1796.8975 
   33650    288.36706   -185.39772    374490.75   -103684.87    9929.7228    -113614.6    1801.3283 
   33700    288.45883   -60.640901    374138.71   -103636.44    9932.8831   -113569.32    1801.8494 
   33750    287.58373    182.29198    373931.45   -103603.57    9902.7497   -113506.32    1803.6465 
   33800    289.82618    -115.6625       374320   -103608.06    9979.9667   -113588.03    1806.6538 
   33850     288.2859   -81.875441    374350.19   -103627.52    9926.9282   -113554.44    1808.8354 
   33900    285.62079    53.901647    373992.82    -103659.7    9835.1569   -113494.86     1807.745 
   33950    283.76372    208.10125    373705.45    -103655.4      9771.21   -113426.61    1810.7677 
   34000     287.4681    239.75431     373719.6   -103605.59    9898.7678   -113504.36    1814.8126 
   34050    286.34946   -40.154875    374347.81   -103633.14    9860.2482   -113493.39    1820.0139 
   34100    287.95623    -78.93767    374773.82   -103646.82    9915.5762    -113562.4     1824.213 
   34150    283.67309    156.74788    374809.79   -103647.59    9768.0892   -113415.68    1826.9839 
   34200    288.19924   -142.29828    374363.24   -103678.49    9923.9444   -113602.44    1828.4021 
   34250    288.06605    50.337928    373923.88   -103655.41    9919.3578   -113574.77    1829.3506 
   34300    291.25974    206.18995    373868.45   -103602.98     10029.33   -113632.31    1832.4135 
   34350    289.45056   -114.81644    374368.89   -103633.59    9967.0327   -113600.62    1835.6618 
   34400    290.02706   -87.961683    374576.69   -103689.93    9986.8838   -113676.81    1837.8889 
   34450    286.78106   -33.002903    374602.31   -103618.97    9875.1102   -113494.08    1839.8902 
   34500    291.10728   -224.27415    374344.37   -103684.86     10024.08   -113708.94    1840.8031 
   34550    289.89325   -76.078849    373727.63   -103741.04    9982.2764   -113723.32    1841.1774 
   34600    287.41259    218.18984    373290.46   -103766.37    9896.8566   -113663.23    1842.5446 
   34650    289.94906   -84.404813     373605.4   -103748.76    9984.1981   -113732.95    1846.1576 
   34700    289.81061    148.82986    373911.67   -103711.17    9979.4306    -113690.6    1851.2273 
   34750    289.19471    27.504884    374251.87   -103751.89    9958.2227   -113710.11    1854.1786 
   34800    287.67764   -113.91673    374460.35    -103708.4    9905.9833   -113614.39    1855.9511 
   34850    286.01537   -103.39325    374181.28   -103748.22    9848.7442   -113596.97    1855.2309 
   34900    287.80912    165.55905    373646.14   -103752.84    9910.5107   -113663.35     1854.785 
   34950    286.85605   -3.7138478    373647.85   -103701.37    9877.6925   -113579.07     1855.471 
   35000     290.1365   -121.20414    374016.02   -103700.76    9990.6524   -113691.41    1860.4677 
   35050    286.12389   -209.64699    374151.12   -103682.34     9852.481   -113534.82    1861.9456 
   35100    283.85529   -77.183363    373939.42   -103704.73    9774.3633   -113479.09    1864.4316 
   35150    289.89276    233.88073    373586.16   -103699.13    9982.2593   -113681.39     1867.846 
   35200    289.39597    83.876648    373456.57   -103706.77    9965.1529   -113671.92    1869.5959 
   35250     286.7684     257.0997     373762.4   -103651.03    9874.6742    -113525.7    1873.5231 
   35300    288.69953   -233.68164    374844.28   -103621.05    9941.1715   -113562.22    1879.3044 
   35350    291.20543   -123.94899    375310.07   -103589.66     10027.46   -113617.12     1883.157 
   35400    286.82413   -8.8567817    374881.12   -103639.44    9876.5932   -113516.04    1883.2965 
   35450    287.90203    57.479953    373934.62    -103615.3    9913.7101   -113529.01    1881.0508 
   35500    288.90156    219.77221    372978.42   -103582.13    9948.1282   -113530.26    1879.8393 
   35550    291.48092    378.25299    372869.06   -103627.62    10036.947   -113664.56    1883.7935 
   35600    292.28558    114.92231    373484.85   -103545.44    10064.654   -113610.09    1890.3114 
   35650    293.63503    -5.027556    374717.25   -103545.39    10111.122   -113656.52    1898.3347 
   35700    286.25894   -261.57269    375510.33    -103580.6    9857.1314   -113437.74    1903.7422 
   35750    286.31914   -49.866444    374879.95   -103597.93    9859.2041   -113457.14    1901.8471 
   35800    290.45005   -39.438578    373572.57   -103605.39    10001.449   -113606.84    1900.6479 
   35850    291.47057    191.72305    372764.89    -103574.6     10036.59   -113611.19    1901.7537 
   35900    286.01473    135.97793    373137.29   -103571.25     9848.722   -113419.97    1906.7465 
   35950    290.03708    -208.0607    374307.12    -103587.6    9987.2289   -113574.83    1915.5659 
   36000    286.17692    -358.1841    375112.35   -103609.35    9854.3069   -113463.66    1920.7817 
   36050    289.49809   -375.67208    374873.86   -103666.43    9968.6692    -113635.1    1921.9263 
   36100    289.16093    14.745025    373874.91   -103621.64    9957.0594    -113578.7    1920.7399 
   36150    287.60427     200.8582    373137.52   -103611.31    9903.4566   -113514.77    1920.6721 
   36200    289.18056    300.56392    373431.68   -103622.58    9957.7352   -113580.32    1925.9136 
   36250    286.60664   -95.348307    374234.82   -103603.03    9869.1039   -113472.14    1930.8488 
   36300    287.91815    -222.0811    374769.33    -103656.1    9914.2649   -113570.37    1934.2915 
   36350    291.21685   -26.643058     374587.3   -103572.93    10027.854   -113600.79    1934.5657 
   36400    290.10226   -8.3570896    373769.75   -103623.75    9989.4735   -113613.23    1932.0139 
   36450    291.04934    153.07292    373309.48   -103598.42    10022.085    -113620.5    1933.1443 
   36500    291.38982     80.76288    373803.99   -103587.41     10033.81   -113621.22     1937.746 
   36550     288.4433    -94.83895    374440.55   -103555.86    9932.3482   -113488.21    1941.6157 
   36600    287.26675   -123.54985    374668.26   -103524.89    9891.8346   -113416.72    1945.7873 
   36650    287.97448   -121.28379    374455.89   -103545.19    9916.2047   -113461.39    1946.3833 
   36700    288.69423   -49.149728       374126   -103544.81    9940.9887   -113485.79    1947.2005 
   36750    285.22216   -213.20199    374015.08   -103571.19    9821.4304   -113392.62    1948.5512 
   36800    292.58614      12.9004    373867.38   -103535.59    10075.004   -113610.59    1952.0728 
   36850    290.83441    -136.8573    374309.53   -103536.11    10014.684   -113550.79    1956.7433 
   36900    287.70861    55.133865     374725.8   -103550.54    9907.0498   -113457.59    1961.1299 
   36950    285.26587   -90.642383    374794.82    -103585.9    9822.9357   -113408.83    1962.9867 
   37000    286.08655    183.68678    374213.82   -103603.27    9851.1951   -113454.47    1963.6624 
   37050    291.69598   -30.898973    373628.69   -103628.79    10044.352   -113673.14    1964.2594 
   37100    290.78877    228.40971    373396.59   -103580.22    10013.113   -113593.33    1966.9087 
   37150    289.44742    73.027747    373695.61   -103597.62    9966.9245   -113564.55    1970.8459 
   37200     286.6586   -247.62183    374071.64   -103608.18    9870.8933   -113479.07    1975.3675 
   37250    290.40032   -40.242271    374467.98   -103606.43    9999.7369   -113606.17    1978.9344 
   37300    287.01575   -283.73281    374806.29   -103622.87    9883.1915   -113506.06    1980.4827 
   37350    288.43233   -71.654491    374181.34   -103614.07    9931.9706   -113546.04    1979.6613 
   37400    287.50973    127.97741    373203.14   -103603.77    9900.2014   -113503.97     1977.799 
   37450    289.88649     211.2685    373089.24   -103613.07    9982.0435   -113595.11    1979.2477 
   37500    286.96136    185.35157    373864.19   -103592.34    9881.3186   -113473.66    1984.7294 
   37550    288.18444    104.71168    374782.22    -103581.9    9923.4346   -113505.33    1991.1959 
   37600    288.04999   -266.37944     375368.8   -103594.94    9918.8047   -113513.75    1997.8057 
   37650    291.17624   -264.08098    374921.79   -103589.29    10026.455   -113615.75    1998.5864 
   37700    283.97663    156.43486    374129.36   -103574.49    9778.5414   -113353.03    2000.9737 
   37750    288.99802   -55.421461    373788.02   -103619.55    9951.4498      -113571    2004.1001 
   37800    289.01924    173.62139    373774.85    -103624.3    9952.1803   -113576.48    2007.7912 
   37850    289.01327    42.460308    374107.38   -103651.76    9951.9747   -113603.73    2012.6392 
[...]
   90850    291.43365   -55.449773    374732.77    -103413.1    10035.319   -113448.42    4485.3633 
   90900    294.66356   -245.55877    374442.33   -103424.34    10146.539   -113570.88    4485.7449 
   90950    287.18742    19.110763    374204.23   -103440.97    9889.1028   -113330.07    4485.1686 
   91000     288.2307    127.57799    374128.84   -103422.65    9925.0274   -113347.68     4487.195 
   91050    289.47509   -2.9636764    374232.82   -103430.17    9967.8771   -113398.05    4492.1907 
   91100    296.98383    128.28149    374550.05   -103413.17    10226.436    -113639.6    4497.0584 
   91150    296.61617   -112.80758    374933.83   -103397.76    10213.775   -113611.54    4503.1977 
   91200      291.851    22.446397    374678.93   -103452.95     10049.69   -113502.64    4505.7891 
   91250     294.1711    195.22136    373782.75   -103454.13    10129.581   -113583.72    4500.4433 
   91300    294.15488    85.625983    373571.21   -103468.05    10129.022   -113597.07    4501.3204 
   91350    288.76769    123.03279    374086.47   -103473.17    9943.5185   -113416.69    4508.5539 
   91400    289.97429     57.31676    374731.51   -103529.61    9985.0669   -113514.67    4514.3287 
   91450    292.71902   -130.94357    374915.22   -103518.97     10079.58   -113598.55     4516.168 
   91500    290.77756   -286.01307    374705.25   -103538.16    10012.727   -113550.89    4516.8895 
   91550    288.61427   -187.22489     374299.5   -103543.95    9938.2355   -113482.19    4517.3889 
   91600    288.63784    223.16673    373790.94   -103542.22     9939.047   -113481.27    4516.1903 
   91650    291.89743   0.34039788    373662.02   -103619.23    10051.289   -113670.51    4516.2021 
   91700    288.39747    173.16071    373788.56   -103654.89    9930.7701   -113585.66    4519.9989 
   91750    288.24322     44.15506    374126.74   -103628.02    9925.4586   -113553.48    4529.2635 
   91800    292.00485    -154.4052    374501.94   -103611.54    10054.988   -113666.53    4536.0429 
   91850    286.45197    1.4897452    374394.53   -103600.24    9863.7782   -113464.02    4536.0433 
   91900    289.19914   -86.302188    373889.69   -103632.33     9958.375    -113590.7    4535.1377 
   91950     289.5781    144.15965    373340.25   -103658.95    9971.4244   -113630.38    4532.5932 
   92000    288.37621    111.70131    373257.72   -103662.06    9930.0381    -113592.1    4536.3892 
   92050    288.83683    223.29652    373746.31   -103691.42     9945.899   -113637.32    4540.3383 
   92100     286.2113   -379.85355    374631.55   -103634.98    9855.4909   -113490.47    4548.6981 
   92150    288.31049   -64.199666     374518.2   -103586.16    9927.7749   -113513.93    4548.1098 
   92200    285.43384    42.420234     374045.1   -103596.95    9828.7194   -113425.67    4546.9892 
   92250    294.52958    109.13341    373905.06   -103569.89    10141.925   -113711.82    4546.5169 
   92300    292.11584   -154.57642    374047.62   -103595.42     10058.81   -113654.23    4552.0926 
   92350    290.42331   -45.636537    373963.57   -103588.53    10000.529   -113589.06    4555.7848 
   92400    290.72705     38.35066    373836.43   -103608.23    10010.988   -113619.21    4560.2295 
   92450    287.44218    85.803838    374063.71   -103569.46    9897.8752   -113467.33    4565.8724 
   92500    290.74542   -32.003077    374347.94   -103620.39     10011.62   -113632.01    4568.0664 
   92550    286.49776   -51.041625    374190.36   -103599.24    9865.3548   -113464.59     4569.118 
   92600     287.9537   -230.20122    373901.34   -103625.75    9915.4891   -113541.24    4568.7182 
   92650    288.28479   -4.3167944    373808.19   -103654.83      9926.89   -113581.72    4571.4792 
   92700    288.82942    136.23941     373619.8    -103608.3    9945.6439   -113553.95    4573.8883 
   92750    293.64498    81.868889    373595.59   -103679.44    10111.464   -113790.91    4573.8627 
   92800    288.87635    18.733387    373840.55   -103697.27    9947.2599   -113644.53    4575.6093 
   92850     285.8275   -13.532239    374148.37   -103651.76    9842.2751   -113494.03    4579.3238 
   92900    289.94301    111.28187    374334.71   -103700.37    9983.9896   -113684.36    4583.6675 
   92950    287.34879   -78.349965    374418.67   -103651.95    9894.6595   -113546.61    4586.4761 
   93000    289.76196   -183.67232    374305.52   -103604.37    9977.7553   -113582.12    4588.2526 
   93050    289.38286    40.665836    373699.78   -103613.11    9964.7013   -113577.81    4586.0683 
   93100     289.4259    249.74837    373499.98   -103555.89    9966.1835   -113522.07     4585.557 
   93150    286.99183   -173.67273    373810.17   -103575.14    9882.3678    -113457.5     4591.464 
   93200    287.15349   -131.11652    374121.55   -103572.11    9887.9345   -113460.04    4596.7802 
   93250    292.74014    72.001483    373967.83   -103542.49    10080.307    -113622.8    4595.8752 
   93300    293.09161   -34.110896    373669.01   -103571.87     10092.41   -113664.28    4594.4152 
   93350    287.72939    42.745805    373678.48   -103603.83    9907.7651   -113511.59    4594.9195 
   93400    288.45825   -17.648945    374095.93   -103636.94     9932.863    -113569.8    4602.3941 
   93450    284.61513   -128.34922    374587.33   -103581.48    9800.5277   -113382.01    4608.6725 
   93500    289.52033    55.425486    374679.19    -103615.4     9969.435   -113584.83    4613.3361 
   93550    291.52431   -16.166457    374571.57   -103574.13    10038.441   -113612.57    4616.7441 
   93600    292.45184   -41.005761    374113.52   -103532.96    10070.379   -113603.34    4615.4534 
   93650    288.06752    142.99241    373913.14   -103572.69    9919.4083    -113492.1     4618.554 
   93700    290.11872   -81.483696    374251.73   -103559.47    9990.0401   -113549.51    4623.2371 
   93750     292.2173   -110.91171    374412.78   -103563.39    10062.303   -113625.69    4628.9144 
   93800    293.40872    -118.9931    374179.65   -103524.12    10103.329   -113627.45    4630.1524 
   93850    294.42955    114.45527     373943.9   -103544.54    10138.481   -113683.02    4629.8572 
   93900     292.3022  -0.93325165    374016.19   -103516.59    10065.227   -113581.81    4635.2834 
   93950    287.13158   -193.66623    373972.44   -103529.79      9887.18   -113416.97    4637.0046 
   94000    292.71371    -56.39006    373988.63   -103490.03    10079.397   -113569.43    4642.5305 
   94050    289.89336    106.84132    374260.98   -103453.91      9982.28   -113436.19    4647.7585 
   94100    289.08499   -99.547064    374605.86   -103463.37    9954.4442   -113417.81    4651.3916 
   94150    286.90172   -189.34583    374746.77   -103444.84    9879.2649   -113324.11    4654.5903 
   94200    291.75784    39.098283    374477.48   -103446.07    10046.482   -113492.55    4656.2709 
   94250    290.64385    189.33272    373924.04    -103411.8    10008.123   -113419.92    4654.9487 
   94300    294.29343    82.263149    373711.03   -103392.62    10133.793   -113526.41    4655.0263 
   94350     289.7551   -69.877816    373971.78   -103402.21    9977.5193   -113379.73    4660.2676 
   94400    289.05856    230.98077     374241.2   -103422.65    9953.5344   -113376.18    4664.5742 
   94450    288.35422    -115.8883    374711.46   -103408.44     9929.281   -113337.72     4671.215 
   94500    294.88659   -184.89629    374826.04   -103420.26    10154.219   -113574.48    4670.6738 
   94550    291.19376    80.768401    374280.91   -103416.03    10027.058   -113443.09    4666.8317 
   94600    288.96339   -42.725744    373957.11   -103440.51    9950.2572   -113390.77    4664.2966 
   94650    289.73567    35.683885    373746.78   -103405.23    9976.8503   -113382.08    4667.7167 
   94700    291.44734    214.06344    373905.82   -103360.09     10035.79   -113395.88    4671.4279 
   94750    292.78172    268.77805    374048.15    -103403.1    10081.739   -113484.84    4675.3192 
   94800    288.72354    184.95636    374264.91   -103405.76    9941.9981   -113347.76    4679.5672 
   94850    289.11748   -11.576967    374637.36    -103434.1    9955.5631   -113389.66    4685.4312 
   94900    292.75782   -160.18184    374504.32   -103431.62    10080.916   -113512.53    4687.8945 
   94950    288.41936   -62.123022    374226.58   -103465.76    9931.5238   -113397.29    4693.0571 
   95000    292.06602    -33.16538    373880.71   -103500.53    10057.094   -113557.62     4692.903 
   95050     292.3647    69.509969    373637.55   -103489.23    10067.379   -113556.61    4695.4802 
   95100    292.32039    98.187321    373894.32   -103463.05    10065.853    -113528.9    4702.7135 
   95150     290.8947   0.62893431    374570.96   -103496.23     10016.76   -113512.99    4711.4148 
   95200    290.80723   -460.13468    375276.23   -103534.67    10013.749   -113548.42    4722.7758 
   95250    286.42238   -242.68724    375159.64   -103505.87    9862.7592   -113368.63    4724.4544 
   95300    292.37465   -22.897002    374333.59   -103530.36    10067.722   -113598.08    4718.4248 
   95350    289.90032    170.87275    373688.08   -103563.39    9982.5197   -113545.91    4717.9483 
   95400    289.00701     23.68828     373480.4   -103517.11    9951.7594   -113468.87    4717.5545 
   95450    289.72916    93.721361    373565.27   -103548.58    9976.6261   -113525.21    4722.7972 
   95500    287.37372    225.69032    373918.04   -103536.64    9895.5179   -113432.16    4728.4092 
   95550    288.86108   -152.04592    374730.92   -103582.48    9946.7341   -113529.21    4740.0034 
   95600    293.26061   -254.52485    374921.72   -103606.04    10098.229   -113704.27    4743.9824 
   95650    290.16247   -104.50809    374478.95   -103578.91    9991.5465   -113570.45    4740.8291 
   95700    286.73712    250.62012    373776.49   -103555.58     9873.597   -113429.18    4735.5559 
   95750    290.06879   -57.785035    373659.79   -103551.66    9988.3209   -113539.98    4734.2688 
   95800    289.42654    200.20126    373923.85   -103537.83    9966.2054   -113504.03    4738.8384 
   95850    285.36321   -191.87611    374534.07   -103579.04    9826.2875   -113405.33    4745.1929 
   95900    290.54465   -49.995834    374556.85   -103569.54    10004.707   -113574.25    4744.3619 
   95950    291.54938    102.31302     374260.1   -103541.18    10039.304   -113580.48    4745.9567 
   96000    289.14185    134.39256    374056.82    -103557.6    9956.4023   -113514.01      4745.39 
   96050    291.21528   -122.06496    374376.88   -103518.78    10027.799   -113546.58    4749.8437 
   96100     290.9359   -146.10895    374582.56   -103490.18    10018.179   -113508.36    4755.6225 
   96150    295.45339    113.07755    374217.88   -103496.97    10173.736    -113670.7    4756.7068 
   96200    289.75817    105.43088    374226.76   -103441.49    9977.6248   -113419.11    4760.3802 
   96250     291.5358   -102.13251     374373.9   -103430.54    10038.836   -113469.38    4763.4536 
   96300     291.9139    175.56063    374244.82   -103442.74    10051.856    -113494.6    4761.8975 
   96350    288.93651     100.3643     374364.9   -103457.26    9949.3315   -113406.59    4763.9258 
   96400    292.37719   -82.291081       374797   -103488.67    10067.809   -113556.48    4771.8731 
   96450    288.38821   -89.354197    374934.66   -103450.97    9930.4512   -113381.42    4777.6624 
   96500    291.12086   -431.75206     374484.9   -103433.47    10024.548   -113458.02    4777.8408 
   96550    291.38521    -42.97183     373947.4   -103454.66    10033.651   -113488.31    4776.2946 
   96600    289.18624    264.25618     373611.3   -103421.93    9957.9309   -113379.86    4773.6127 
   96650    290.56372    266.20972    373880.01   -103455.66    10005.363   -113461.02    4779.9499 
   96700    288.55995    10.423619    374517.19   -103475.29    9936.3651   -113411.65    4787.0324 
   96750    289.72416   -261.30863    374726.98   -103471.61    9976.4537   -113448.06     4791.467 
   96800    291.40571    70.844411     374396.2   -103487.83    10034.357   -113522.19    4790.4128 
   96850    288.55085    276.00725    374110.67   -103514.58    9936.0515   -113450.63    4792.8788 
   96900    290.42197    59.953822    374187.24   -103469.84    10000.483   -113470.32    4797.0946 
   96950    291.87201   -129.19049    374531.69   -103469.27    10050.413   -113519.68    4801.9579 
   97000    290.73047    39.811759    374735.15   -103478.33    10011.105   -113489.44    4807.5213 
   97050    288.50716    -100.8449    374501.62   -103469.98    9934.5471   -113404.53    4811.0912 
   97100      293.415   -52.477807    373846.42   -103508.72    10103.545   -113612.26    4809.6084 
   97150    292.95843    101.45738    373333.93   -103562.12    10087.824   -113649.95    4807.1945 
   97200    291.89679    17.902914    373548.53   -103523.32    10051.267   -113574.59    4810.1343 
   97250     292.0069   0.49580081     374119.6   -103569.77    10055.059   -113624.83    4817.8231 
   97300     287.9428   -91.191381    374402.89   -103555.08    9915.1139   -113470.19    4821.2333 
   97350    286.40253   -147.55021    374335.21   -103589.21    9862.0758   -113451.28    4821.1798 
   97400    291.46128   -110.42976    374147.25   -103600.84     10036.27   -113637.11    4821.3576 
   97450    285.70261    34.203805    373896.98   -103658.67    9837.9745   -113496.65     4818.646 
   97500    288.30632   -57.281609     373920.8   -103655.57    9927.6315    -113583.2    4822.8313 
   97550    288.34953    117.63627     374206.6   -103613.19    9929.1194   -113542.31    4830.5873 
   97600    289.19089    22.114523    374664.65   -103601.74    9958.0908   -113559.83    4840.7951 
   97650     292.2659   -86.067062    374863.14   -103576.25    10063.977   -113640.22    4845.9113 
   97700    289.90733   -119.43936    374608.98   -103567.17    9982.7611   -113549.93    4847.6182 
   97750    289.88204    141.66849     374112.8   -103552.61    9981.8903    -113534.5    4846.2039 
   97800    290.13822   -63.651892    373856.78   -103617.35    9990.7115   -113608.06    4847.1291 
   97850    289.45574   -216.16746    373709.83   -103657.37    9967.2108   -113624.58    4848.8472 
   97900    287.63046    342.05854    373618.28   -103700.59    9904.3588   -113604.95    4849.4851 
   97950    286.92924    205.65279     373934.1   -103672.74    9880.2125   -113552.96    4853.2487 
   98000    287.22949   -117.76953    374413.53   -103661.44    9890.5515   -113551.99    4858.8298 
   98050    286.48881    26.969879    374689.47   -103666.29    9865.0468   -113531.34    4863.3244 
   98100    290.57468     182.3667    374516.69    -103674.7    10005.741   -113680.44    4865.7417 
   98150    285.36685    133.34547     374154.1   -103681.05    9826.4129   -113507.46    4867.9753 
   98200    289.30297      147.397     373735.5   -103689.63    9961.9503   -113651.58    4865.7615 
   98250    287.52797   -40.972023    373614.51    -103727.2    9900.8294   -113628.03    4868.2481 
   98300    290.25542   -253.79704    373820.47   -103738.34    9994.7474   -113733.09    4870.9908 
   98350    288.36123   -20.985593    374105.38   -103766.01    9929.5221   -113695.53    4879.1176 
   98400    290.07836    39.596496    374332.99   -103714.57    9988.6505   -113703.22    4886.6486 
   98450    286.18896   -200.19289    374727.25   -103663.55    9854.7214   -113518.27    4892.4307 
   98500    286.41044    -132.7281    374596.18   -103703.52    9862.3481   -113565.86    4889.2402 
   98550    292.96219   -35.760275    373529.14   -103716.42    10087.953   -113804.37    4880.8909 
   98600     285.5586    154.18329    372534.39   -103749.85    9833.0155   -113582.86    4873.0091 
   98650     286.5352    278.66768    372802.64   -103742.71     9866.644   -113609.35    4877.3918 
   98700    288.22358   -84.448445     373835.9   -103762.82    9924.7824   -113687.61    4886.6457 
   98750    282.87736   -113.90191    374622.97   -103707.64    9740.6888   -113448.33    4897.7037 
   98800    286.92449   -176.30325    374755.78   -103706.02    9880.0491   -113586.07    4901.8061 
   98850    290.68869   -119.81935    374497.31   -103679.97    10009.667   -113689.63    4903.9434 
   98900    291.02763     90.41442    374150.71    -103688.9    10021.338   -113710.24    4904.6165 
   98950    287.16334   -28.982764    373912.44    -103671.1    9888.2737   -113559.37    4906.6581 
   99000    285.24282    27.491728    373749.45   -103678.15     9822.142   -113500.29    4908.3454 
   99050    289.48981    218.38219    373792.81   -103665.99    9968.3842   -113634.38    4910.3247 
   99100    288.64765   -199.62903    374155.28    -103677.1    9939.3849   -113616.48    4917.7398 
   99150    290.48474   -129.02605    374282.56   -103685.66    10002.644   -113688.31    4920.3892 
   99200     285.8693    27.018417    374131.99   -103697.48    9843.7145    -113541.2    4921.1924 
   99250    285.14079   -63.178198    373925.04   -103713.36    9818.6287   -113531.99    4924.4927 
   99300    283.60063   -86.676601    373636.66    -103753.3    9765.5942   -113518.89    4928.3992 
   99350    285.29459    342.54227    373339.93   -103773.98    9823.9245    -113597.9    4926.5855 
   99400    286.90004    111.62861    373806.19   -103750.73    9879.2073   -113629.94    4933.8649 
   99450    286.93607    50.100312    374355.91   -103733.79    9880.4477   -113614.23    4940.4096 
   99500    286.60715   -141.17861    374495.17    -103785.2    9869.1218   -113654.32    4946.0953 
   99550    288.02228   -187.06442     374125.4   -103744.85    9917.8508   -113662.71    4947.5631 
   99600    287.11044   -3.6146902    373579.11   -103703.16     9886.452   -113589.61    4943.9454 
   99650    285.94798    46.674173    373289.78   -103736.25    9846.4237   -113582.68    4941.0388 
   99700    288.30086   -81.611688    373481.81   -103717.33    9927.4434   -113644.78    4945.6818 
   99750    289.37267   -79.773793    373945.84    -103729.6    9964.3505   -113693.95    4951.0232 
   99800    288.59879    -108.4783     374249.9      -103735    9937.7024    -113672.7    4954.0752 
   99850    286.20325    -36.13074    374400.38   -103701.12    9855.2135   -113556.34    4955.9196 
   99900    288.04438   -126.34288    374261.41   -103745.31    9918.6117   -113663.92    4956.4893 
   99950     286.6071    276.02433    374021.01      -103700    9869.1201   -113569.12    4959.6383 
  100000    290.69135   -88.217932    374087.66   -103680.68    10009.758   -113690.44    4963.6681 
Loop time of 328.973 on 6 procs for 100000 steps with 11553 atoms

Performance: 262.635 ns/day, 0.091 hours/ns, 303.976 timesteps/s
99.5% CPU use with 6 MPI tasks x no OpenMP threads

MPI task timing breakdown:
Section |  min time  |  avg time  |  max time  |%varavg| %total
---------------------------------------------------------------
Pair    | 100.89     | 178.12     | 255.91     | 468.6 | 54.14
Neigh   | 41.324     | 48.432     | 52.533     |  71.0 | 14.72
Comm    | 11.76      | 93.655     | 178.03     | 692.8 | 28.47
Output  | 0.19948    | 0.20265    | 0.21641    |   1.4 |  0.06
Modify  | 6.8952     | 6.928      | 6.9653     |   1.0 |  2.11
Other   |            | 1.636      |            |       |  0.50

Nlocal:        1925.50 ave        1942 max        1893 min
Histogram: 1 0 0 0 0 2 0 0 1 2
Nghost:        2404.00 ave        2432 max        2376 min
Histogram: 1 1 0 0 1 1 0 0 0 2
Neighs:        0.00000 ave           0 max           0 min
Histogram: 6 0 0 0 0 0 0 0 0 0
FullNghs:      53250.3 ave       54512 max       50980 min
Histogram: 1 0 0 0 1 0 1 1 0 2

Total # of neighbors = 319502
Ave neighs/atom = 27.655328
Neighbor list builds = 20389
Dangerous builds = 0

# Create data file for import to other simulations
#
write_data data.icewater_1atm_LG
System init for write_data ...

Total wall time: 0:05:29
