
# Create simulation box of size ~50 x 30 x 30 Angstrom
#
#variable	    lattice_constant equal 6.36339
#lattice		    diamond ${lattice_constant}
region all block 0 ${LEN} 0 ${WIDTH} 0 ${WIDTH} units box
region all block 0 57 0 ${WIDTH} 0 ${WIDTH} units box
region all block 0 57 0 57 0 ${WIDTH} units box
region all block 0 57 0 57 0 57 units box
create_box 1 all
Created orthogonal box = (0.0000000 0.0000000 0.0000000) to (57.000000 57.000000 57.000000)
  1 by 2 by 3 MPI processor grid

# fill box with randomly distributed atoms
#
create_atoms 1 random 5832 3782 all
Created 5832 atoms
  create_atoms CPU = 0.001 seconds
mass 1 18.015
group water region all
5832 atoms in group water

# Define potential
#
pair_style sw
pair_coeff * * ML.sw mW
Reading sw potential file ML.sw with DATE: 2019-02-27

# Run minimization
#
minimize 1.0e-8 1.0e-8 10000 1000
WARNING: Using 'neigh_modify every 1 delay 0 check yes' setting during minimization (../min.cpp:187)
Neighbor list info ...
  update every 1 steps, delay 0 steps, check yes
  max neighbors/atom: 2000, page size: 100000
  master list distance cutoff = 6.0032907
  ghost atom cutoff = 6.0032907
  binsize = 3.0016454, bins = 19 19 19
  1 neighbor lists, perpetual/occasional/extra = 1 0 0
  (1) pair sw, perpetual
      attributes: full, newton on
      pair build: full/bin/atomonly
      stencil: full/bin/3d
      bin: standard
Per MPI rank memory allocation (min/avg/max) = 4.268 | 4.274 | 4.276 Mbytes
Step Temp E_pair E_mol TotEng Press 
       0            0    8468761.7            0    8468761.7    4349821.1 
     689            0   -62345.546            0   -62345.546   -901.91283 
Loop time of 1.45893 on 6 procs for 689 steps with 5832 atoms

99.0% CPU use with 6 MPI tasks x no OpenMP threads

Minimization stats:
  Stopping criterion = max force evaluations
  Energy initial, next-to-last, final = 
      8468761.69917001  -62344.7116255078   -62345.546356019
  Force two-norm initial, final = 1.3697435e+08 8.7292747
  Force max component initial, final = 89107039.0 2.2771047
  Final line search alpha, max atom move = 0.042406301 0.096563587
  Iterations, force evaluations = 689 1000

MPI task timing breakdown:
Section |  min time  |  avg time  |  max time  |%varavg| %total
---------------------------------------------------------------
Pair    | 1.0539     | 1.252      | 1.3269     |   8.2 | 85.82
Neigh   | 0.03902    | 0.040868   | 0.042055   |   0.5 |  2.80
Comm    | 0.063089   | 0.1391     | 0.33893    |  24.8 |  9.53
Output  | 0          | 0          | 0          |   0.0 |  0.00
Modify  | 0          | 0          | 0          |   0.0 |  0.00
Other   |            | 0.02697    |            |       |  1.85

Nlocal:        972.000 ave         990 max         925 min
Histogram: 1 0 0 0 0 0 0 1 2 2
Nghost:        1748.83 ave        1787 max        1692 min
Histogram: 1 0 0 1 0 0 1 1 1 1
Neighs:        0.00000 ave           0 max           0 min
Histogram: 6 0 0 0 0 0 0 0 0 0
FullNghs:      26517.3 ave       27301 max       24175 min
Histogram: 1 0 0 0 0 0 0 0 3 2

Total # of neighbors = 159104
Ave neighs/atom = 27.281207
Neighbor list builds = 31
Dangerous builds = 0

# Add velocity/set timestep
#
velocity all create ${TEMP} 120598 rot yes dist gaussian
velocity all create 284 120598 rot yes dist gaussian
timestep 10.0

# Define output
#
compute 1 all msd
thermo 50
thermo_style custom step temp press vol etotal ke pe c_1[4]

# Neighbor lists
#
neigh_modify delay 0 every 1 check yes

# Set fixes
#
fix 1 all momentum 10 linear 1 1 1 rescale
fix 2 all nph iso ${PRES} ${PRES} ${PCOUPL}
fix 2 all nph iso 1 ${PRES} ${PCOUPL}
fix 2 all nph iso 1 1 ${PCOUPL}
fix 2 all nph iso 1 1 10000.0
fix 3 all temp/csvr ${TEMP} ${TEMP} ${TCOUPL} 837492
fix 3 all temp/csvr 284 ${TEMP} ${TCOUPL} 837492
fix 3 all temp/csvr 284 284 ${TCOUPL} 837492
fix 3 all temp/csvr 284 284 5000.0 837492

# Run 1 ns equilibration
#
dump 1 all atom 1000 eq.water.${NAME}.dump
dump 1 all atom 1000 eq.water.icewater_284K_1atm_ML_LG.dump
run 100000
Per MPI rank memory allocation (min/avg/max) = 3.519 | 3.524 | 3.526 Mbytes
Step Temp Press Volume TotEng KinEng PotEng c_1[4] 
     689          284    316.52666       185193   -57409.313    4936.2334   -62345.546 1.1796321e-33 
     700    118.27751    -546.6242    185214.31    -57281.87    2055.7936   -59337.664   0.12007248 
     750    153.20383   -635.10629     184802.8   -57032.901    2662.8516   -59695.753   0.42413816 
     800    164.61562   -291.62246    183689.54   -56827.425    2861.2012   -59688.626   0.75732248 
     850    173.49906   -191.96222    182367.49    -56624.13    3015.6051   -59639.736    1.1414556 
     900    185.21511   -21.857439    181129.55   -56444.011    3219.2429   -59663.254    1.5069604 
     950    191.07435   -28.055225    180237.78   -56289.391     3321.083   -59610.474    1.9003909 
    1000     200.1342   -34.133065    179655.21   -56111.331    3478.5532   -59589.885    2.2358042 
    1050    207.01114   -125.08679    179256.01   -55955.525     3598.082   -59553.607    2.5971821 
    1100    210.12042    50.464906    178878.43   -55863.441    3652.1248   -59515.566    2.9555543 
    1150     214.5665   -2.6750073    178528.84   -55739.223    3729.4025   -59468.626    3.3224764 
    1200    215.49537    -18.60657    178116.06    -55644.46    3745.5474   -59390.007    3.7034606 
    1250     219.2563    77.383249    177685.06   -55560.801    3810.9163   -59371.717     4.041327 
    1300    221.28244    166.26274    177366.33   -55432.421    3846.1329   -59278.553    4.4334586 
    1350    227.07254    25.348408    177288.84   -55351.139    3946.7713    -59297.91    4.8200873 
    1400    228.06943   -221.74225    177371.08   -55233.082    3964.0984   -59197.181    5.2392525 
    1450    232.35355   -192.41295    177464.47    -55153.72    4038.5611   -59192.281    5.7405507 
    1500    233.65846    116.46757    177409.92   -55089.951    4061.2419   -59151.192    6.2885618 
    1550    233.80543    144.99819    177325.71   -55014.404    4063.7963     -59078.2    6.8497393 
    1600    235.60976   -325.30702    177261.09    -54951.98    4095.1576   -59047.137    7.4697313 
    1650    236.70139    212.94616    176996.69   -54870.177    4114.1314   -58984.308    8.0100401 
    1700    237.38462    27.521907    176686.77   -54787.357    4126.0066   -58913.364    8.4433564 
    1750     240.7565    104.75182    176351.85   -54705.322    4184.6136   -58889.936    8.9884364 
    1800    243.13467    245.85555    176169.84   -54624.745    4225.9489   -58850.694     9.415624 
    1850    239.87924    130.14491    176231.23   -54564.047    4169.3659   -58733.412    10.065323 
    1900    245.41591   -175.24892     176431.7    -54522.97    4265.5993    -58788.57     10.62334 
    1950    241.27353   -333.66044    176601.74    -54452.27    4193.6002    -58645.87    11.168982 
    2000    245.87303   -285.15095    176424.97   -54411.487    4273.5445   -58685.031    11.663304 
    2050    249.28826    11.356734    176031.74   -54321.041    4332.9051   -58653.947    12.176411 
    2100    245.80885    82.324403    175759.64   -54242.498     4272.429   -58514.927    12.764856 
    2150    251.85049    258.40335    175619.25   -54168.137    4377.4394   -58545.576    13.283899 
    2200    253.37809    179.82059     175706.6   -54152.205    4403.9909   -58556.196    13.958906 
    2250    250.29926    -197.4597    175902.11    -54086.86    4350.4773   -58437.338    14.740743 
    2300    252.09391   -120.09377    176009.21   -54037.965    4381.6702   -58419.635    15.511361 
    2350    249.37689   -196.55984    175894.81    -53972.58    4334.4455   -58307.025    16.233762 
    2400    248.74211     1.172427    175636.56   -53916.201    4323.4124   -58239.614    17.011924 
    2450    256.06793    218.10218    175484.88   -53864.656    4450.7432   -58315.399    17.553654 
    2500    253.33952    206.02909    175483.51   -53835.144    4403.3204   -58238.464    18.279194 
    2550    253.89557    33.178686    175522.32   -53773.876    4412.9852   -58186.861    19.136314 
    2600     255.2799   -139.07859    175495.74   -53721.754    4437.0464     -58158.8    20.024511 
    2650    256.10185    265.50611    175355.93    -53684.56    4451.3327   -58135.892    20.732488 
    2700    259.13624   -60.133293    175323.88   -53594.542    4504.0737   -58098.616      21.2771 
    2750    259.03477    240.58473    175271.19   -53570.347    4502.3101   -58072.657    21.858533 
    2800    258.61961    92.138177     175182.9   -53511.055    4495.0942   -58006.149    22.499047 
    2850    261.45755   -146.86913    175111.37   -53438.781    4544.4207   -57983.202    23.055572 
    2900    262.35184   -78.200922    175111.29   -53394.248    4559.9645   -57954.213    23.796395 
    2950    265.07648     162.4093    175094.04     -53358.4    4607.3217   -57965.722    24.448307 
    3000    265.13064    51.472104    175121.92   -53332.527    4608.2631   -57940.791    25.270502 
    3050    264.53794   -311.81239    175172.72   -53297.345    4597.9614   -57895.306    26.108733 
    3100    265.31489    57.965579    174981.92   -53287.357    4611.4655   -57898.823    26.893176 
    3150    266.52202    157.55621    174811.08   -53294.503    4632.4468   -57926.949    27.724167 
    3200    263.24498     54.47218    174767.22   -53288.861    4575.4883   -57864.349    28.591445 
    3250    261.71522    17.777598    174728.62   -53236.648    4548.8994   -57785.548    29.295875 
    3300    267.01047   -96.547842    174713.93   -53212.117    4640.9366   -57853.054     30.22712 
    3350    269.77427    -212.8798    174721.41   -53224.635    4688.9744   -57913.609    31.214863 
    3400    265.74654     46.78269    174662.34   -53152.387    4618.9682   -57771.356    32.304934 
    3450    269.14418    154.71648     174589.1    -53129.05    4678.0229   -57807.073    33.483065 
    3500    269.67855   -156.98599    174629.37   -53122.294    4687.3107   -57809.605    34.216676 
    3550    268.21821    430.58675     174819.8   -53101.034    4661.9284   -57762.962    34.874394 
    3600    273.28851    3.8935954    175274.55   -53092.787    4750.0559   -57842.842    35.930233 
    3650    261.92393   -580.36244    175606.39    -53085.03    4552.5268   -57637.557    36.763117 
    3700    267.11341   -229.74208    175391.34   -53060.594    4642.7257   -57703.319    37.521593 
    3750    270.34133   -1.8815016    174859.33   -53002.519    4698.8306    -57701.35    38.475571 
    3800    275.76617    302.60541    174322.49   -52950.763    4793.1203   -57743.883    39.320293 
    3850    272.08372    356.93543     173976.6    -52912.75    4729.1152   -57641.865    40.071546 
    3900    273.17533    230.77562    173936.66   -52870.553    4748.0886   -57618.641    40.837489 
    3950    268.29874    363.81007    174006.05    -52863.37    4663.3281   -57526.698    41.895431 
    4000    269.07775   -116.82848    174167.54   -52837.725    4676.8682   -57514.593    43.122072 
    4050    266.84772     163.0241    174248.89   -52872.425    4638.1078   -57510.533    44.032865 
    4100    268.51204    53.439416    174322.52   -52872.539    4667.0356   -57539.575    45.095631 
    4150    268.30164    105.30659    174357.58   -52897.782    4663.3786   -57561.161    46.116961 
    4200    271.69575   -49.752164    174393.72    -52846.84    4722.3719   -57569.212    47.252228 
    4250    273.44085    56.936477    174370.23   -52850.964    4752.7037   -57603.668    48.276905 
    4300    271.05047   -150.55312    174355.89   -52831.774    4711.1562    -57542.93    49.460919 
    4350    275.87303    45.681311    174284.88   -52789.735    4794.9777   -57584.713    50.811119 
    4400    277.36307    87.899001    174220.59   -52730.575    4820.8761   -57551.451    51.885183 
    4450    273.66332    188.93694    174238.94   -52679.887    4756.5704   -57436.458    53.100405 
    4500    279.41167    98.013029    174477.06   -52660.939    4856.4832   -57517.422    54.168415 
    4550    274.54768    -8.797653    174928.75   -52607.957    4771.9416   -57379.898    55.327191 
    4600    276.51851   -335.90733     175281.9   -52581.637    4806.1968   -57387.834    56.714446 
    4650    277.58551   -276.84584    175257.12    -52593.18    4824.7424   -57417.922    57.847607 
    4700    275.85632   -255.59197    174905.22   -52598.869    4794.6872   -57393.557    58.973658 
    4750    278.49344   -158.31276    174309.64   -52602.289    4840.5233   -57442.812    59.584224 
    4800    279.55248    477.40327    173756.41   -52585.827    4858.9305   -57444.757    60.512097 
    4850       280.57    141.34376    173492.35   -52612.618    4876.6162   -57489.234    61.614193 
    4900    274.66008    600.63282    173399.83   -52586.166    4773.8952   -57360.061    62.961517 
    4950    276.73634    668.63488    173629.74   -52547.563     4809.983   -57357.546    64.142071 
    5000    275.20137    -54.70876    174057.44   -52542.922    4783.3035   -57326.225    65.443671 
    5050    278.49051   -113.49218    174330.03   -52525.952    4840.4723   -57366.424    66.735338 
    5100    276.16548    25.307712    174505.64   -52518.967    4800.0608   -57319.028    68.196735 
    5150    275.82125   -311.53323    174598.66   -52484.057    4794.0777   -57278.135    69.340474 
    5200    277.57407   -230.53497    174535.59   -52483.917    4824.5436   -57308.461    70.274681 
    5250    278.98331    36.999721    174396.21   -52451.944    4849.0377   -57300.981    71.256885 
    5300    275.33179    94.269987    174321.52   -52436.977    4785.5704   -57222.547    72.496178 
    5350    275.96378    170.55362    174313.68   -52406.757     4796.555   -57203.312    73.504902 
    5400     277.0238    66.331217    174354.45   -52404.431    4814.9793   -57219.411    74.263006 
    5450    277.53445   -4.0837541    174438.59   -52433.055     4823.855    -57256.91    75.442724 
    5500    281.49285    82.906228    174579.49   -52387.876    4892.6563   -57280.532    76.347647 
    5550    280.56064    56.515132    174711.89   -52366.492    4876.4535   -57242.946    77.405182 
    5600    281.12234    152.02911    174695.75   -52349.204    4886.2165    -57235.42    78.354827 
    5650    280.68237    293.53431    174773.11   -52358.342    4878.5693   -57236.911    79.557024 
    5700    281.35173   -74.430545    174990.66   -52333.896    4890.2035   -57224.099    80.781822 
    5750     284.6315   -200.66826    175181.74   -52344.388    4947.2095   -57291.597    81.832697 
    5800    281.28171   -293.20065    175167.07   -52342.699    4888.9865   -57231.685    82.724816 
    5850    278.64535    160.45151    174812.02   -52328.488    4843.1636   -57171.651    83.863409 
    5900     281.3581    214.39046    174414.67   -52301.102    4890.3142   -57191.416    84.597186 
    5950     285.2559    252.64085    174162.13   -52256.157    4958.0622   -57214.219    85.634485 
    6000    284.87612    81.459748    174142.35   -52237.424    4951.4614   -57188.886    86.766723 
    6050    284.77691    -56.11275    174365.51   -52235.539    4949.7368   -57185.275    87.984676 
    6100    281.60415   -23.086451    174608.89   -52245.799    4894.5908    -57140.39    89.285629 
    6150    283.80454   -120.87735    174758.66   -52216.752     4932.836   -57149.588    90.809725 
    6200     280.3437    59.875616    174842.31   -52201.239    4872.6828   -57073.922    91.875094 
    6250     283.1076    97.898067    174843.39   -52216.543    4920.7224   -57137.265    92.917248 
    6300    276.26637    89.966013     174897.9   -52189.793    4801.8143   -56991.607    94.231192 
    6350    284.36812   -144.18868    175014.53   -52199.282    4942.6316   -57141.914    95.353568 
    6400    286.28099    560.56635    175149.59   -52156.283    4975.8795   -57132.162    96.158333 
    6450    283.39881   -215.66621    175376.73   -52193.819    4925.7841   -57119.603    96.912636 
    6500    286.89312    133.00993    175371.88   -52178.358     4986.519   -57164.877    98.272718 
    6550    284.34301   -27.899135    175225.33   -52175.201    4942.1953   -57117.396     99.51557 
    6600    285.92733    455.60007    175039.85    -52147.03    4969.7325   -57116.763    100.29729 
    6650    287.22667     387.3715    175050.64   -52155.791    4992.3165   -57148.107    101.30843 
    6700    280.11472   -347.70998    175340.74   -52182.239    4868.7029   -57050.942     102.3243 
    6750    285.90351   -513.63883    175528.02   -52209.528    4969.3185   -57178.846    103.37206 
    6800    282.75674   -188.16274     175451.4   -52195.383    4914.6242   -57110.008    103.73971 
    6850    286.86131   -89.260669    175156.02   -52166.084    4985.9661    -57152.05    104.67879 
    6900    286.50694    110.67355    174731.63   -52142.819    4979.8068   -57122.626    105.83167 
    6950    287.95861    212.53848    174482.31   -52115.215    5005.0384   -57120.254    106.99947 
    7000    285.69061     289.1837    174405.75   -52140.287    4965.6181   -57105.906    108.15295 
    7050    283.95059     38.57631    174455.94   -52151.593    4935.3746   -57086.968    109.05196 
    7100    287.44045   -137.37961    174644.94   -52077.966    4996.0323   -57073.999    110.14325 
    7150    285.00881    356.05537    174840.65   -52101.494    4953.7677   -57055.261    111.08711 
    7200    286.53666   -199.94899    175094.74     -52076.7    4980.3233   -57057.023    112.45692 
    7250     286.7183   -67.005642    175213.55   -52120.586    4983.4805   -57104.067     113.3382 
    7300    283.94842   -262.65168    175222.73   -52183.096    4935.3369   -57118.433    114.36586 
    7350    287.87925   -110.06698    174976.53   -52213.584    5003.6591   -57217.243    115.21706 
    7400    287.55576    108.38692    174684.82   -52187.643    4998.0364   -57185.679    116.14794 
    7450    284.47818     467.2834    174460.46   -52235.405    4944.5446   -57179.949    117.04704 
    7500    280.90089    44.678848    174585.99   -52225.816    4882.3674   -57108.184    118.46253 
    7550    279.62911    177.82822    174817.03   -52252.528    4860.2625   -57112.791    119.88926 
    7600    282.77116    -426.2731    175031.43   -52243.383    4914.8748   -57158.258    121.05387 
    7650    286.18537    98.753256    175090.53     -52219.7    4974.2174   -57193.917    122.39033 
    7700    281.18646    -53.26542    175152.16   -52210.434    4887.3309   -57097.764    123.37744 
    7750    286.73522    9.1953881    175174.25   -52170.836    4983.7745   -57154.611    124.37612 
    7800    289.38762    63.153233    175152.32   -52163.815    5029.8762   -57193.691    125.62371 
    7850    287.14222   -280.52781    175088.02   -52145.761    4990.8487    -57136.61    126.87975 
    7900    281.78157    340.71888    174967.62   -52121.835    4897.6747   -57019.509    128.03717 
    7950    289.98406    297.59196    174888.74   -52077.587    5040.2429    -57117.83    129.64714 
    8000    287.91671   -47.977009    174861.27   -52096.165    5004.3102   -57100.475    130.84425 
    8050    286.98672   -51.325335     174894.2   -52098.493    4988.1459   -57086.639     132.0578 
    8100    290.76622   -231.31867    174937.26   -52090.655    5053.8377   -57144.493    133.38097 
    8150    287.81211   -218.22095    174852.96   -52106.036     5002.492   -57108.528    134.65447 
    8200    288.52984    1.1856439    174845.02   -52130.923     5014.967    -57145.89    135.71328 
    8250     286.6537   -149.69707    174800.15   -52166.562    4982.3576    -57148.92    136.77735 
    8300     283.3755   -17.359229    174724.03   -52156.584    4925.3788   -57081.963    138.03712 
    8350    287.01505     91.12984    174568.56   -52149.125    4988.6383   -57137.763    139.13197 
    8400    290.64137    18.223957    174391.22   -52142.837    5051.6677   -57194.504    140.31053 
    8450    286.42249    474.79545    174252.34   -52165.754    4978.3389   -57144.093    141.30286 
    8500    285.92306    157.83601    174311.87   -52197.649    4969.6583   -57167.307    142.46952 
    8550    285.78748   -146.99537    174386.68   -52154.085    4967.3017   -57121.387    143.34631 
    8600    285.93917    122.04856    174424.34   -52158.321    4969.9382   -57128.259    144.29916 
    8650    285.22239    230.89461    174576.59   -52167.942    4957.4799   -57125.422    145.67701 
    8700    290.17133    183.56793    174879.47   -52158.287    5043.4978   -57201.784    146.43182 
    8750    284.54639   -200.70845    175246.14   -52195.426    4945.7302   -57141.156    147.91924 
    8800     283.9274    32.553734    175403.54   -52204.716    4934.9715   -57139.687    148.70804 
    8850    280.78916   -415.89248    175442.15   -52238.047    4880.4255   -57118.472    149.72544 
    8900    284.40382    69.063446    175252.97    -52207.56    4943.2522   -57150.813    150.51129 
    8950    286.18825    167.91896    175165.21   -52217.305    4974.2675   -57191.572    151.88701 
    9000    283.20875     155.0387    175100.91   -52214.616    4922.4806   -57137.096    153.06156 
    9050    282.40371    54.940909     175032.5   -52231.494    4908.4881   -57139.982    154.63605 
    9100    290.13284   -5.0411574    174919.76   -52251.595    5042.8288   -57294.424    155.96082 
    9150    286.08166   -13.899096     174889.3   -52232.118     4972.415   -57204.533    157.12034 
    9200    284.51919    26.675759    174780.93   -52200.163    4945.2575   -57145.421    158.30726 
    9250    284.41507    35.396016    174588.49   -52182.467    4943.4478   -57125.915    159.11668 
    9300    286.96528    504.62822     174517.5   -52162.749    4987.7731   -57150.522    160.04227 
    9350    285.49491   -244.39745    174722.85   -52123.416    4962.2165   -57085.633     161.4418 
    9400    288.11896    -8.766731    174805.67    -52118.95    5007.8254   -57126.776    162.44771 
    9450    284.46892   -24.770116    174859.56   -52098.523    4944.3838   -57042.907    163.96824 
    9500    286.84742    139.01908    174904.31   -52070.527    4985.7247   -57056.251    165.58988 
    9550    287.07231   -72.605551    175075.74    -52067.29    4989.6334   -57056.923    166.69468 
    9600    287.70687   -32.595983    175272.01   -52047.519    5000.6628   -57048.182     167.9519 
    9650    288.77418    208.98779    175463.57   -52048.938    5019.2138   -57068.151    169.19725 
    9700    288.98022   -313.17689     175623.9    -52035.89    5022.7951   -57058.685    170.26957 
    9750    284.76232   -330.61105    175531.51   -52056.234    4949.4833   -57005.717    170.96366 
    9800    285.02568   -168.79752    175148.29   -52051.555    4954.0608   -57005.616    172.03474 
    9850    292.52497    226.86167    174606.65   -52061.117    5084.4067   -57145.524    172.66371 
    9900    283.78963    56.523049    174212.91   -52025.325     4932.577   -56957.902    173.82174 
    9950    288.31848    65.184107    174043.23   -52050.957    5011.2934    -57062.25    174.92773 
   10000    290.85594    70.382732    173934.66   -52084.132    5055.3971   -57139.529    175.93481 
   10050    289.05431    263.48746    173956.06   -52111.116    5024.0829   -57135.199    176.96369 
   10100    279.93737    318.11263    174193.04   -52128.498    4865.6204   -56994.118     178.4638 
   10150    284.26973   -4.0412573    174531.07   -52121.486    4940.9215   -57062.408    179.77173 
   10200    286.06052   -63.619756    174812.12   -52134.103    4972.0475    -57106.15    181.60995 
   10250    288.31635   -10.538814    174929.38     -52142.5    5011.2563   -57153.756    182.81245 
   10300    287.82053   -79.858718    175057.62   -52110.848    5002.6384   -57113.487    184.10368 
   10350    282.43032   -95.222319    175144.41    -52089.98    4908.9506    -56998.93    184.56844 
   10400    291.53192    10.116259    175044.73   -52108.475    5067.1464   -57175.622    185.20377 
   10450    287.71447   -126.41948    174914.08   -52161.446    5000.7949   -57162.241    186.15312 
   10500    287.10431    69.503992    174801.55   -52158.596    4990.1897   -57148.785    187.23208 
   10550    287.53634   -355.81035    174711.85   -52123.389    4997.6989   -57121.088    188.64238 
   10600    287.14327    321.11064    174574.47   -52120.429    4990.8669   -57111.296    189.84779 
   10650    284.99513    306.84684     174547.2   -52121.221    4953.5297    -57074.75    190.77255 
   10700    287.31593   -331.73165    174742.85   -52136.581    4993.8679   -57130.449    191.58577 
   10750    284.27509    5.1816019    174878.48    -52124.56    4941.0148   -57065.575     192.6668 
   10800    289.65639   -240.48719    174871.74   -52148.133    5034.5477   -57182.681    193.98856 
   10850    283.78336    -346.4265    174725.45    -52136.88    4932.4679   -57069.348    195.25685 
   10900     283.9271    390.47207    174482.84   -52151.524    4934.9663   -57086.491    196.57078 
   10950    288.01426     535.0427     174360.7   -52099.388    5006.0057   -57105.393    197.48675 
   11000    285.88865    216.20722    174359.13   -52073.607    4969.0603   -57042.667    198.74376 
   11050     283.2475    229.21693    174494.62   -52129.714     4923.154   -57052.868    199.67088 
   11100    281.83235    129.05992    174686.24   -52111.076    4898.5572   -57009.633    201.10079 
   11150    284.76492    -179.9439     174888.6   -52092.695    4949.5286   -57042.224    202.32031 
   11200     289.8744   -228.03542    174982.04   -52098.263    5038.3369     -57136.6    203.73214 
   11250    284.57141   -30.783028    174951.56   -52098.304    4946.1651   -57044.469    205.14582 
   11300    284.88264   -288.19119    174817.11   -52083.616    4951.5747    -57035.19    206.28373 
   11350    281.22609   -34.670551     174589.7   -52128.651    4888.0197   -57016.671    207.59373 
   11400     287.5199    78.329902    174363.51   -52124.425    4997.4131   -57121.838    208.92755 
   11450      288.332     106.0807    174259.61   -52111.962    5011.5283    -57123.49    209.97809 
   11500    288.63065    354.88938    174305.06   -52116.398    5016.7191   -57133.117      210.739 
   11550     286.3102   -516.10465    174592.02    -52155.37    4976.3872   -57131.757    212.15436 
   11600    284.48817    225.92737    174796.89   -52148.666    4944.7184   -57093.384    213.26779 
   11650    284.17762   -252.10649     174971.4   -52165.495    4939.3205   -57104.816    214.50752 
   11700    282.32313    15.290464    174877.77   -52176.179    4907.0876   -57083.267    215.82672 
   11750    286.56013   -42.283065    174793.74   -52195.331    4980.7312   -57176.062    217.85047 
   11800    285.97331    123.99085    174713.35   -52241.841    4970.5317   -57212.373    218.96642 
   11850     288.0779   -11.275065    174701.02   -52226.136    5007.1117   -57233.247    220.74594 
   11900    281.27823   -2.2254378    174777.45   -52216.138    4888.9259   -57105.064    222.09418 
   11950    284.46321   -314.16851     174920.9   -52220.604    4944.2845   -57164.889    223.18624 
   12000    283.72368   -231.38264    175011.29   -52229.949    4931.4307    -57161.38    224.16569 
   12050     277.9715   -267.24133    175081.28   -52239.296    4831.4515   -57070.747    225.83792 
   12100    282.64642   -129.69625     175032.8   -52236.229    4912.7066   -57148.935    227.22381 
   12150    285.68465    71.309551    174963.92   -52193.007    4965.5144   -57158.522    228.32463 
   12200    283.64056   -60.961989    174957.56   -52155.771    4929.9859   -57085.757    229.06448 
   12250     286.7442   -10.647944    174994.39   -52175.181    4983.9306   -57159.111    229.74599 
   12300    285.67019   -19.404841    175089.17   -52211.507    4965.2631    -57176.77    230.93246 
   12350    279.07017   -133.30287    175221.57   -52248.264    4850.5475   -57098.812    232.09048 
   12400    285.57174    -308.1747    175179.65   -52224.397     4963.552   -57187.949    233.24427 
   12450    278.20122   -127.98405    174885.78   -52284.054    4835.4441   -57119.498    234.19634 
   12500    280.05557    96.378925    174512.72   -52286.247    4867.6749   -57153.922    235.01949 
   12550    282.38635    313.67218    174272.56   -52299.251    4908.1864   -57207.437    235.56093 
   12600    283.17394   -196.72404    174301.85   -52271.821    4921.8756   -57193.697    236.65853 
   12650    282.11718    385.56238    174424.33   -52307.675    4903.5079   -57211.183     237.6521 
   12700    279.68148    76.529022     174692.6   -52312.633    4861.1727   -57173.806    238.96094 
   12750    281.84343   -304.24674    175018.25   -52314.186    4898.7498   -57212.935    240.23732 
   12800    285.24699    33.877439    175163.39   -52254.304    4957.9074   -57212.211    240.84955 
   12850    284.84467    157.68193    175145.08   -52245.712    4950.9146   -57196.627    242.20039 
   12900    279.06559    -123.8479    175181.07   -52230.065    4850.4678   -57080.533    243.01856 
   12950    284.39561    15.438681    175306.36   -52227.487    4943.1096   -57170.596    244.03878 
   13000    284.48478    -414.4077     175414.1   -52200.436    4944.6594   -57145.096      245.379 
   13050    286.68204   -44.251027     175223.8   -52201.731    4982.8502   -57184.582    246.29081 
   13100    285.98428    188.45921     174950.9   -52200.224    4970.7223   -57170.946     247.0125 
   13150    282.65001   -116.12173    174790.12   -52179.807     4912.769   -57092.576    248.48296 
   13200    286.52409   -255.10982     174580.5   -52187.074    4980.1049   -57167.179    249.62762 
   13250     284.1686    251.90156    174298.52   -52173.709    4939.1639   -57112.873    250.18464 
   13300    280.79288     63.49841    174008.76   -52194.128    4880.4901   -57074.618    251.12859 
   13350    283.77639   -131.60631    173799.33   -52187.935    4932.3468   -57120.282    252.66474 
   13400    280.11382    166.56116    173671.11   -52193.082    4868.6873   -57061.769      253.846 
   13450    282.00916    192.84329    173817.53    -52185.75    4901.6304    -57087.38    255.01371 
   13500    281.00753   -498.77966    174178.49   -52202.289    4884.2209    -57086.51    257.01693 
   13550    290.61009   -111.23248    174406.63   -52189.631     5051.124   -57240.755    258.68925 
   13600    282.38621   -187.39335    174573.47   -52198.412    4908.1839   -57106.596    260.63341 
   13650     284.5641   -72.160594    174657.24   -52177.782    4946.0381    -57123.82    262.25829 
   13700     284.8493    103.89312    174666.89    -52160.07    4950.9952   -57111.065    263.79207 
   13750    289.64397    307.61987    174682.72   -52142.102    5034.3318   -57176.434    265.36434 
   13800    286.62158   -101.11563    174888.06   -52141.929    4981.7993   -57123.729    266.50881 
   13850    283.48304   -281.37778    175060.47   -52181.831     4927.248   -57109.079    268.29788 
   13900     289.2103   -16.374165    175026.82   -52139.095    5026.7942    -57165.89    268.90623 
   13950    285.41522   -11.778644    174938.25   -52136.087    4960.8315   -57096.918     270.4953 
   14000    286.06415    66.916563    174898.76   -52139.369    4972.1105    -57111.48    271.44054 
   14050    284.45967   -183.69115     174807.9    -52176.89     4944.223   -57121.113    272.53802 
   14100     285.3723      70.6228    174566.23   -52163.589    4960.0854   -57123.675     273.7536 
   14150    291.87177    471.39036    174409.44   -52148.827    5073.0535    -57221.88     274.8621 
   14200    290.86679    75.377695    174530.61   -52154.733    5055.5858   -57210.319    276.46507 
   14250     286.9676   -317.83515    174772.87   -52157.346    4987.8135    -57145.16    277.48842 
   14300    286.78798   -109.51614    174952.35   -52170.894    4984.6915   -57155.585    279.10636 
   14350    284.42504   -131.88805     175032.2   -52191.703    4943.6211   -57135.324    280.18021 
   14400    282.12046   -17.540402    175007.11   -52166.168     4903.565   -57069.733    280.94934 
   14450    284.50494   -104.87178    175064.47   -52137.659    4945.0097   -57082.669    282.86244 
   14500    282.61123   -34.043378    175045.57   -52141.947    4912.0951   -57054.042    284.43613 
   14550    283.73777   -93.571261    174904.76   -52136.599    4931.6755   -57068.274    285.48681 
   14600     282.1846    88.003383    174678.25   -52144.996    4904.6797   -57049.676    286.75952 
   14650    288.97958    189.37467     174640.2   -52144.387     5022.784   -57167.171    287.98412 
   14700    281.06612   -337.80429    174756.22   -52161.411    4885.2393   -57046.651     289.5683 
   14750     285.1369    235.94672    174738.32   -52157.202    4955.9939   -57113.196    290.73165 
   14800    281.29242   -77.531942    174812.63   -52147.303    4889.1726   -57036.476    292.74388 
   14850     284.7547   -125.59793    174837.28   -52159.088    4949.3509   -57108.439     294.4827 
   14900    284.80303   -58.576233     174636.5   -52193.108     4950.191   -57143.299    295.12156 
   14950    284.43489    89.450153    174354.45   -52213.382    4943.7923   -57157.174    295.99647 
   15000      282.544   -84.025567    174117.63   -52214.017    4910.9265   -57124.944    297.31242 
   15050    282.66492    308.74199    173995.17   -52220.358    4913.0281   -57133.386    298.21764 
   15100    282.47346    140.41433    174195.34   -52224.442    4909.7005   -57134.143    299.75337 
   15150    284.90718   -285.41379    174500.93   -52208.377    4952.0012   -57160.378    301.24244 
   15200     284.2605   -278.65632    174679.28   -52189.701    4940.7611   -57130.462    301.95566 
   15250    282.43786    11.436624    174610.36   -52219.653    4909.0816   -57128.734    303.22196 
   15300    285.72709   -71.763029    174467.06   -52202.302    4966.2522   -57168.554    304.56316 
   15350    286.86407    49.546346    174203.65   -52156.875    4986.0141   -57142.889    305.20359 
   15400    284.94929    476.32236    173980.72   -52167.591    4952.7331   -57120.324    306.72139 
   15450    283.82283    100.83043    174126.58   -52196.826     4933.154    -57129.98    308.09215 
   15500    282.61593     93.43183     174374.2   -52161.173    4912.1767    -57073.35    309.48976 
   15550    281.81256   -250.18006    174521.08   -52175.239    4898.2132   -57073.453    310.47386 
   15600    284.85736   -357.76338    174452.61   -52193.515    4951.1352    -57144.65    311.41377 
   15650    288.63066    260.07595    174252.12   -52233.848    5016.7193   -57250.567    312.32903 
   15700    283.17237   -22.057495     174095.8   -52246.008    4921.8482   -57167.856      314.122 
   15750    282.13627    158.11137     173959.4   -52256.361    4903.8396   -57160.201    315.76322 
   15800      281.132     157.1563    173920.65    -52291.19    4886.3843   -57177.575    317.49616 
   15850    283.49131     162.3228    173923.22   -52314.846    4927.3919   -57242.238    318.70406 
   15900    286.37705    53.057021    174155.77   -52333.836    4977.5491   -57311.385    320.49665 
   15950    281.34562   -165.81307    174547.54   -52337.097    4890.0974   -57227.195    322.25885 
   16000    281.83936   -237.64941    174928.51   -52302.761    4898.6791    -57201.44    323.29584 
   16050     282.1105   -78.330634     175072.1     -52351.7    4903.3918   -57255.091    324.81922 
   16100    276.05093    73.221602    175089.94   -52400.988    4798.0697   -57199.057    325.69718 
   16150    280.29995   -254.61814    174986.04    -52462.88    4871.9224   -57334.802    326.66356 
   16200    278.99007   -151.78513    174792.02   -52460.049    4849.1552   -57309.204    328.18605 
   16250    283.62148   -82.962316    174560.92   -52448.749    4929.6542   -57378.404    329.00803 
   16300    281.24294    61.365974    174387.52   -52401.664    4888.3126   -57289.976    329.91568 
   16350    284.77621    53.246635    174419.98   -52364.496    4949.7248   -57314.221    330.62503 
   16400     281.7359    48.224555    174609.46   -52333.087    4896.8808   -57229.968    332.29107 
   16450     282.2507   -22.518935    174857.36   -52336.123    4905.8286   -57241.952    332.97058 
   16500    283.00654   -71.025706    175098.33   -52347.431     4918.966   -57266.397    334.53356 
   16550    278.43173   -188.61284    175240.06   -52329.916    4839.4506   -57169.367    335.58373 
   16600     281.8994   -214.12384    175219.62   -52334.526    4899.7226   -57234.249    335.80601 
   16650    283.51847    16.557057     175108.9   -52314.727    4927.8638   -57242.591    336.31614 
   16700    282.42171   -162.79914    174897.67   -52313.105    4908.8009   -57221.906    337.49992 
   16750    282.27126    159.30524    174585.83   -52319.638     4906.186   -57225.824    338.05493 
   16800    280.05839    419.40445    174335.93   -52321.437    4867.7238   -57189.161    338.58274 
   16850    286.97873    121.86286    174261.56   -52281.874    4988.0071   -57269.881    339.92175 
   16900    286.45964   -263.86129    174385.69   -52246.179    4978.9847   -57225.163    342.07881 
   16950    286.93875   -244.24879    174389.05   -52238.437    4987.3121   -57225.749     343.3702 
   17000    279.17962   -69.825205    174356.58   -52214.344    4852.4498   -57066.794     344.6286 
   17050    287.76492   -130.00594       174405   -52232.334    5001.6718   -57234.006    346.29074 
   17100    287.75081    390.69592    174508.68   -52231.173    5001.4265   -57232.599    347.38483 
   17150    283.39022   -51.689786    174759.38   -52222.083    4925.6347   -57147.718    348.78534 
   17200    283.50703   -265.86537    174967.01    -52254.76    4927.6651   -57182.425    350.71722 
   17250    279.29544   -458.73056    175114.97   -52271.142    4854.4629   -57125.605    352.52317 
   17300    283.10814   -87.737411       175091   -52300.406    4920.7318   -57221.138    353.85485 
   17350    286.06529   -181.23468    174862.18   -52292.881    4972.1304   -57265.012    354.90786 
   17400    283.69592    119.77583    174360.49   -52264.856     4930.948   -57195.804    355.28887 
   17450    288.37509    338.25465    174048.68    -52251.63    5012.2773   -57263.907    355.86586 
   17500    283.15268    221.57914    174081.76   -52227.187     4921.506   -57148.693    356.92565 
   17550    283.78398   -308.40358    174195.58   -52215.362    4932.4787   -57147.841    358.23884 
   17600    286.66354   -507.39608    174220.22   -52221.302    4982.5287   -57203.831    359.04529 
   17650    285.44642   -195.00929    174111.28   -52223.852    4961.3737   -57185.226    359.86989 
   17700    283.46872     267.6017    174062.06   -52233.165    4926.9991   -57160.164    360.12599 
   17750    280.28258    108.95529    174144.46   -52242.066    4871.6206   -57113.687    361.56006 
   17800    282.49974   -195.70243    174254.81   -52224.364    4910.1572   -57134.521    363.11073 
   17850    277.91749    244.22849    174421.88   -52219.615    4830.5126   -57050.128    364.89119 
   17900    283.54905   -187.25391    174771.69   -52218.498    4928.3954   -57146.894    366.06324 
   17950    279.21112   -459.28609    175034.01   -52250.879    4852.9974   -57103.877    367.47896 
   18000    283.14221    88.290241     175078.6   -52289.298     4921.324   -57210.622    368.78551 
   18050    283.74069    214.73266    175273.94   -52292.996    4931.7262   -57224.722    370.31188 
   18100    285.14747    -287.2027    175512.26   -52291.978    4956.1776   -57248.156    371.54486 
   18150     282.1963    238.14264    175518.95   -52323.662    4904.8831   -57228.545    372.14651 
   18200    285.13192    50.017508     175525.1   -52343.945    4955.9073   -57299.852    373.00956 
   18250    284.48455    -224.2468    175526.51   -52344.172    4944.6554   -57288.827    374.33314 
   18300    280.37541   -179.13076     175421.7   -52340.333     4873.234   -57213.567    375.10389 
   18350    285.13671    54.561944    175276.11   -52343.601    4955.9906   -57299.592    376.34798 
   18400    278.10425   -117.87792    175227.28   -52376.722    4833.7588   -57210.481    377.15707 
   18450    277.12726    224.90871    175105.79   -52397.938    4816.7775   -57214.716    378.49808 
   18500    282.21575   -169.15042    175019.85   -52400.937    4905.2212   -57306.158    380.03371 
   18550    283.72041    191.80754     174981.5   -52397.013    4931.3738   -57328.387    381.45155 
   18600    278.91598    1.7439439    175187.93   -52427.664    4847.8675   -57275.532    383.18707 
   18650    278.27672   -422.24188    175475.28   -52412.344    4836.7565   -57249.101    385.01248 
   18700    276.37951   -111.95429     175455.9   -52451.083    4803.7809   -57254.864    386.61508 
   18750    283.20788    117.88084     175116.3   -52445.003    4922.4654   -57367.468    387.22856 
   18800    279.92991    347.60692    174707.04   -52447.631    4865.4906   -57313.122    387.81734 
   18850    282.16599    113.10958    174461.44     -52452.7    4904.3563   -57357.056    388.67934 
   18900    277.18444   -136.88655    174313.99   -52478.946    4817.7715   -57296.717    389.62003 
   18950    280.44862    549.47843    174155.05   -52489.667    4874.5064   -57364.174    391.49174 
   19000    278.96391    315.85186    174235.19   -52489.664    4848.7005   -57338.365     392.3514 
   19050    280.65597   -196.96237     174461.4   -52471.337    4878.1104   -57349.448    394.03705 
   19100    279.64836   -111.55696    174633.93   -52487.082     4860.597   -57347.679    395.33478 
   19150    276.68461   -251.22599    174813.99   -52458.109    4809.0839   -57267.193    396.58232 
   19200    276.93708   -259.17798    174825.13   -52439.248     4813.472    -57252.72    397.61398 
   19250    280.50525   -91.637304    174662.37   -52420.979    4875.4907    -57296.47    397.95526 
   19300    275.57305    91.527402    174466.14   -52398.198    4789.7638   -57187.961    398.28937 
   19350    284.65732   -82.439941    174451.86   -52366.359    4947.6583   -57314.018    399.84247 
   19400    280.92951    -42.81885    174552.46   -52353.452    4882.8649   -57236.317    401.66029 
   19450    279.93418    -142.3331    174559.32   -52298.359    4865.5649   -57163.924    402.86759 
   19500    284.57952    183.23397    174470.38   -52288.091    4946.3061   -57234.397    403.97063 
   19550    284.27453    -115.4276    174546.66    -52316.83    4941.0051   -57257.835    404.80713 
   19600    279.44498    -90.92177    174605.01    -52360.61    4857.0621   -57217.672    406.01964 
   19650    281.59412    75.812185    174620.12   -52363.698    4894.4165   -57258.114    407.18519 
   19700    283.76235   -23.143136    174655.23   -52342.707    4932.1027   -57274.809    408.30313 
   19750    280.96167   -39.012191    174743.92   -52375.047    4883.4239   -57258.471    409.34438 
   19800    277.95321    203.80708    174847.96   -52352.254    4831.1334   -57183.388    410.90473 
   19850    279.59436   -221.96734    174939.17   -52349.508    4859.6584   -57209.166    412.43339 
   19900    282.49075   -194.23159    174907.53   -52321.686     4910.001   -57231.687    413.31086 
   19950    280.31957    99.959842    174852.83   -52337.959    4872.2635   -57210.222    414.49524 
   20000    279.86447   -287.61696    174794.62   -52309.219    4864.3532   -57173.572    416.23977 
   20050    281.45207   -20.850747    174678.98   -52280.754    4891.9475   -57172.702    416.22443 
   20100    285.58217    206.54728    174684.59   -52262.775    4963.7332   -57226.508    417.35245 
   20150    289.15402   -211.06977    174843.78   -52255.826    5025.8159   -57281.642    418.96061 
   20200    280.04832   -155.46711    174853.48   -52291.222    4867.5489   -57158.771    420.20575 
   20250    285.15128   -308.03019    174725.64   -52295.804    4956.2439   -57252.048     421.5451 
   20300    280.62782    184.62945    174421.77   -52287.788    4877.6212   -57165.409    422.71941 
   20350    282.78227    192.88816       174175   -52282.712    4915.0678    -57197.78    423.76503 
   20400    281.71318    167.13359    174099.71   -52291.675    4896.4859   -57188.161    424.78596 
   20450     285.8942    286.15019    174162.23   -52275.788    4969.1566   -57244.945    425.89056 
   20500    279.21476   -14.279195    174310.16    -52285.35    4853.0607   -57138.411    427.71424 
   20550    278.57856      242.307    174402.49   -52270.542    4842.0027   -57112.545    429.21401 
   20600    283.12146    214.83481    174615.25   -52248.035    4920.9634   -57168.999    430.59908 
   20650    281.13331   -456.48461    174918.16   -52265.225    4886.4071   -57151.632    432.17811 
   20700    278.06191   -278.47775    174999.97   -52269.189    4833.0228   -57102.212    433.59706 
   20750    278.30612   -108.11586    174892.98   -52294.469    4837.2675   -57131.737    434.38745 
   20800    282.87206   -52.984017    174626.98   -52335.062    4916.6284    -57251.69    435.76184 
   20850    282.64065    114.14848    174342.34   -52299.287    4912.6063   -57211.893     436.9702 
   20900    280.44845    93.911946    174161.04   -52345.364    4874.5035   -57219.867    437.74576 
   20950    280.80356    251.64204    174202.48   -52336.144    4880.6757    -57216.82     438.7219 
   21000    279.07175    35.992157     174615.1   -52302.619    4850.5749   -57153.194    440.36514 
   21050    284.31147    -81.53201    174992.21   -52292.344    4941.6471   -57233.991    443.07746 
   21100    284.41682   -131.99738    175188.16   -52301.235    4943.4781   -57244.713    445.12104 
   21150    282.99428   -535.88003    175167.43   -52319.729    4918.7528   -57238.482     446.2249 
   21200    279.73727   -292.68674    174809.18   -52291.156    4862.1424   -57153.298    446.93541 
   21250    278.19121    269.99455    174306.39   -52305.869    4835.2702   -57141.139     447.2054 
   21300    282.95005    276.59219    174038.12   -52306.154     4917.984   -57224.138    447.77885 
   21350    281.24924    392.14808    174095.14   -52311.785    4888.4221   -57200.207    449.36594 
   21400    287.71527   -122.94048    174420.86   -52275.895    5000.8089   -57276.704    451.17727 
   21450    280.00931   -303.28079    174676.97   -52293.615    4866.8708   -57160.485     453.3678 
   21500    283.31882    154.35057    174692.58   -52273.309    4924.3938   -57197.703       455.32 
   21550    284.72547    259.70139    174773.06   -52267.011    4948.8429   -57215.854    456.55387 
   21600    285.61932    -341.2001    174800.99   -52285.312     4964.379   -57249.691    457.15776 
   21650    277.65552     259.4078    174578.91   -52286.314    4825.9592   -57112.273    457.90971 
   21700    281.65789   -106.31631    174414.27   -52298.469    4895.5249   -57193.994    458.86547 
   21750    283.09387    358.70084    174242.51   -52289.749    4920.4838   -57210.233    460.03839 
   21800    286.58477    296.41857    174312.78   -52293.072    4981.1595   -57274.231    460.82789 
   21850    279.70154    65.528319    174542.29   -52266.919    4861.5215    -57128.44      462.014 
   21900     284.9378    -272.8051    174738.25   -52281.294    4952.5334   -57233.827    463.72347 
   21950    285.27347   -142.92991    174755.08   -52277.061    4958.3676   -57235.428    465.39809 
   22000    280.31654   -179.00701    174651.82   -52291.114    4872.2107   -57163.325    466.56571 
   22050    285.15706   -51.832512    174537.71   -52273.078    4956.3444   -57229.423    467.57294 
   22100    285.11875    219.41598    174511.71   -52270.586    4955.6784   -57226.265    469.18164 
   22150    286.92669   -17.699521    174571.54   -52233.949    4987.1025   -57221.051    471.07112 
   22200    285.97184    270.97826    174702.75   -52240.362    4970.5061   -57210.868    472.62737 
   22250    285.57688   -55.608565    174907.15   -52205.749    4963.6413   -57169.391    474.32967 
   22300    287.95451    165.12313    175042.52   -52205.534     5004.967   -57210.501    475.35317 
   22350     286.7418    11.539461     175180.1   -52173.826    4983.8888   -57157.714    476.53363 
   22400    282.73603   -210.59691    175273.09   -52195.065    4914.2642   -57109.329    478.58985 
   22450    285.71115    88.595102    175202.54   -52162.798     4965.975   -57128.773     479.7589 
   22500    288.20918    298.68975    175090.36   -52151.558    5009.3935   -57160.952    480.75332 
   22550    291.39405   -133.82874    175076.49   -52157.477    5064.7501   -57222.227    482.25796 
   22600    284.85293     -293.671    175052.46   -52172.357    4951.0582   -57123.416    484.42065 
   22650    284.31319    49.262846    174936.16   -52182.679     4941.677   -57124.356    485.72747 
   22700    287.23537    360.25157    174821.68   -52163.576    4992.4677   -57156.044    486.45509 
   22750    285.33817    63.971987    174921.61   -52156.175    4959.4922   -57115.667    487.69476 
   22800    284.18251   -138.00567    175113.31   -52159.006    4939.4057   -57098.412    488.48355 
   22850    289.47304   -483.17641    175291.77   -52123.514    5031.3609   -57154.875    489.31159 
   22900    286.10514    -352.3443     175305.5   -52113.362     4972.823   -57086.185    490.91476 
   22950    291.20405    254.45168    175095.76   -52063.917    5061.4478   -57125.365    491.65811 
   23000    288.48513    161.88286    175085.69   -52079.612    5014.1898   -57093.802    493.10117 
   23050    282.79404     14.03303    175242.01   -52115.394    4915.2725   -57030.666    494.80711 
   23100    287.75084    91.915736    175286.43   -52094.393    5001.4272   -57095.821    496.52898 
   23150    289.18174   -23.581364    175245.38   -52096.928    5026.2978   -57123.226    497.46567 
   23200    286.51582     31.64947    175152.54   -52094.272    4979.9612   -57074.233    498.32303 
   23250    284.47057    79.115456    175104.62   -52106.197    4944.4123   -57050.609    499.85322 
   23300    279.37437    60.309577    175023.66   -52097.942    4855.8348   -56953.776    501.23242 
   23350     286.0546    76.965988    174888.76   -52099.145    4971.9446   -57071.089    503.19851 
   23400    286.02159    415.25866    174662.16    -52131.33    4971.3708   -57102.701     504.0277 
   23450    280.29305   -39.872381    174536.39   -52159.095    4871.8024   -57030.898     505.2326 
   23500    289.38509    9.9274566    174426.13   -52173.319    5029.8322   -57203.152    505.65002 
   23550    283.06354    468.09432    174353.09   -52156.453    4919.9567    -57076.41    506.68345 
   23600    283.84803   -32.135278    174452.62   -52168.945     4933.592   -57102.537     507.7224 
   23650    282.82565   -58.331337    174630.28   -52186.155    4915.8219   -57101.977    509.52171 
   23700    282.15815   -123.73367    174803.31   -52164.045      4904.22   -57068.265    511.45037 
   23750     286.0614   -234.10992    174816.21   -52138.094    4972.0628   -57110.156    512.80209 
   23800    286.05891   -43.780674    174710.11   -52141.416    4972.0194   -57113.435    512.53471 
   23850    284.22847    226.62481    174656.84   -52154.582    4940.2045   -57094.786    514.32031 
   23900    284.91191     106.2736    174693.84   -52142.978    4952.0834   -57095.062    515.53326 
   23950    285.75428    118.82017    174791.79   -52160.911    4966.7246   -57127.636    516.90145 
   24000    287.20858    41.749199    174947.42   -52159.362     4992.002   -57151.363    517.84683 
   24050    284.59168    127.22831    175066.63   -52175.043    4946.5174   -57121.561    519.31256 
   24100    282.03009    184.95011    175222.79   -52176.506    4901.9941     -57078.5    521.13187 
   24150    283.08607   -41.172926    175356.94   -52239.806    4920.3482   -57160.154    522.21638 
   24200    278.96412   -256.40638       175295   -52214.646    4848.7042   -57063.351    523.56687 
   24250     280.5502     89.53688    175037.56   -52192.941     4876.272   -57069.213    525.76919 
   24300    284.60959   -132.98328    174773.89   -52174.839    4946.8288   -57121.667    526.35563 
   24350    287.86194    465.51164    174478.26   -52136.283    5003.3581   -57139.641    527.40188 
   24400    282.88715    235.49355    174350.72   -52111.419    4916.8908    -57028.31    528.88949 
   24450    288.46466    30.374674    174438.46   -52128.768    5013.8341   -57142.602    530.24425 
   24500    285.22681    31.625357    174691.17   -52115.983    4957.5567   -57073.539    531.71151 
   24550    284.50535   -195.56431    174953.14   -52112.425    4945.0169   -57057.442    533.97308 
   24600    284.62518   -301.76148    175044.27    -52133.56    4947.0997    -57080.66    535.65531 
   24650    280.82391   -201.83336    174977.35   -52154.402    4881.0294   -57035.431     536.1761 
   24700    285.23324    27.616534     174811.8   -52144.933    4957.6685   -57102.601    536.46953 
   24750    290.59516    121.93511    174592.97   -52107.457    5050.8646   -57158.322    537.64817 
   24800    283.87277   -78.163214    174493.11   -52098.704    4934.0219   -57032.726    539.11583 
   24850    284.76798   -111.25816    174531.14   -52133.353    4949.5816   -57082.935    540.75772 
   24900    284.00288    143.96146    174758.75   -52123.714    4936.2833   -57059.998    542.73007 
   24950    282.85883   -298.47919    175045.88   -52122.074    4916.3986   -57038.473    544.11907 
   25000    287.38342   -303.66239    175105.91   -52148.454    4995.0409   -57143.495    544.14378 
   25050    288.66508   -171.21198    175011.08   -52132.715    5017.3177   -57150.033    544.81795 
   25100     281.5857   -204.54965    174828.97   -52163.684    4894.2701   -57057.954    546.92049 
   25150    286.98255    191.11157    174582.88   -52162.734    4988.0733   -57150.807    547.19485 
   25200    285.91781    -161.4921    174398.83   -52153.053    4969.5671    -57122.62     548.3954 
   25250    284.85862    142.76651    174176.08   -52142.261    4951.1571   -57093.418    549.00719 
   25300    282.58063    357.76647    174111.18   -52137.566    4911.5632   -57049.129    550.49182 
   25350    287.82384    370.79128    174287.22   -52126.087    5002.6959   -57128.783    551.79261 
   25400    287.54366   -325.49196    174701.25    -52085.11    4997.8261   -57082.936    553.20997 
   25450    289.28605   -224.68606    174878.47   -52038.257    5028.1108   -57066.368    555.18592 
   25500    285.14412   -370.92613    174876.31    -52030.98    4956.1194   -56987.099    557.25571 
   25550    293.30636    103.73708     174622.7   -51996.858    5097.9882   -57094.846    557.63302 
   25600    294.31306    442.80112    174495.36   -52039.462    5115.4857   -57154.948    557.99376 
   25650    290.02027   -100.36842    174722.38   -52054.718    5040.8724   -57095.591    559.11835 
   25700    290.29629    -314.2183    175016.14   -52067.522    5045.6699   -57113.192    560.04069 
   25750    286.81514   -231.86894    175163.92   -52065.465    4985.1637   -57050.628    561.63505 
   25800    288.96727   -20.926291    175226.12   -52076.258      5022.57   -57098.828    562.98969 
   25850    285.27438   -110.47627    175384.39   -52087.514    4958.3835   -57045.898    564.34938 
   25900    282.71995   -336.45227    175360.95   -52146.006    4913.9847   -57059.991    566.21251 
   25950    287.55017     -46.5216    175024.33   -52158.625    4997.9392   -57156.565    567.80032 
   26000    285.15661     61.09088    174590.05   -52196.285    4956.3365   -57152.621    568.33223 
   26050    282.79833    419.42761    174177.43   -52214.584     4915.347   -57129.931    568.86636 
   26100    284.83122    227.57385    174027.76   -52194.914    4950.6808   -57145.595    569.87904 
   26150    278.63498    281.48819    174028.08   -52193.718    4842.9833   -57036.701    571.52685 
   26200    288.67851   -116.90383    174021.62    -52204.43     5017.551   -57221.981    571.80117 
   26250    280.67307    239.78743    174100.65   -52209.896    4878.4076   -57088.304    574.12141 
   26300    279.23762    321.63699    174389.11   -52236.779     4853.458   -57090.237    575.19953 
   26350    284.65081    177.34562    174775.01   -52220.478    4947.5452   -57168.023    577.38838 
   26400    281.83303   -571.92947    175122.96   -52193.812     4898.569   -57092.381    579.17204 
   26450    285.31067   -6.4521888    175109.54   -52190.578    4959.0142   -57149.592    580.40048 
   26500    285.66973   -13.450903    174861.88   -52190.911    4965.2551   -57156.166    581.50604 
   26550    285.64594    395.96876    174538.26   -52164.319    4964.8417   -57129.161    581.98406 
   26600    284.81138   -48.962812    174326.96   -52180.114    4950.3361    -57130.45    583.06073 
   26650     282.0566    238.47247     174195.2    -52181.15    4902.4549   -57083.605    584.59641 
   26700    284.59309      142.904    174134.42   -52201.822    4946.5419   -57148.364    585.39012 
   26750    283.48923   -65.390184    174027.82    -52267.09    4927.3556   -57194.446    587.12724 
   26800    283.29042    175.70176    173901.34   -52256.657       4923.9   -57180.557    588.38895 
   26850    282.94425    11.697847    173977.61   -52256.746    4917.8832    -57174.63    590.74683 
   26900    281.96518   -159.86649    174205.63   -52247.955     4900.866   -57148.821    592.70813 
   26950    282.89905   -119.04067    174431.29   -52266.886    4917.0976   -57183.983    593.99366 
   27000    283.82881    -78.85276    174550.47   -52279.858    4933.2579   -57213.116    595.90862 
   27050    280.32146   -331.71169    174616.89   -52278.935    4872.2962   -57151.231    597.12326 
   27100    284.60599    166.91627    174513.08   -52284.112    4946.7661   -57230.878    597.66457 
   27150     284.1151   -76.550671    174483.03   -52259.477    4938.2339   -57197.711    598.15842 
   27200    280.91502   -158.94523    174461.38   -52292.561    4882.6131   -57175.174    599.40131 
   27250    281.49586    103.05294    174416.49   -52294.341    4892.7086   -57187.049    599.89729 
   27300    285.49659    396.31563    174407.14   -52280.499    4962.2457   -57242.745    601.24171 
   27350    283.54834    52.029028    174496.53   -52240.916     4928.383   -57169.299     602.3345 
   27400    284.53711    397.12118    174526.95   -52250.041    4945.5689    -57195.61    602.87813 
   27450    280.08267    106.84149    174749.86   -52267.936    4868.1458   -57136.081    603.85933 
   27500     280.8882    3.9247943    175015.54   -52280.182    4882.1469   -57162.329    605.15708 
   27550    283.05697   -208.55847    175210.04   -52253.419    4919.8424   -57173.262    607.14367 
   27600    281.19664   -22.813218    175273.73   -52277.991    4887.5078   -57165.498    609.04745 
   27650    280.38481    16.274506    175206.85   -52279.569    4873.3973   -57152.966    609.89584 
   27700    282.41534   -173.49421    175050.79   -52266.703    4908.6903   -57175.393    611.06679 
   27750    280.24081    240.60938    174692.38    -52261.51    4870.8944   -57132.404    611.09436 
   27800    288.32023    683.74207    174286.69   -52288.542    5011.3237   -57299.865    610.59859 
   27850    280.80386    205.40736    174265.08   -52297.467    4880.6809   -57178.148    611.67784 
   27900    282.81459    247.48355    174485.24   -52237.144    4915.6296   -57152.774    613.01668 
   27950    280.21888    133.27931    174928.67   -52250.427    4870.5134    -57120.94    615.75807 
   28000    287.02347   -127.15578    175339.71   -52238.388    4988.7846   -57227.173    618.01016 
   28050    281.44111   -265.15498    175603.92   -52189.656    4891.7571   -57081.413    619.89911 
   28100    280.56832   -552.33935    175601.75   -52203.585     4876.587   -57080.172    620.75166 
   28150    286.86871   -275.69583     175150.2     -52202.4    4986.0947   -57188.494    621.21251 
   28200    284.59544    105.27492    174561.09   -52206.254    4946.5829   -57152.837    620.93294 
   28250    286.15503    341.43202    174051.09   -52190.358    4973.6902   -57164.049    621.00143 
   28300     282.4229    155.13827    173721.68   -52211.842    4908.8216   -57120.664    621.62196 
   28350    287.47564    120.80177    173604.53   -52244.436    4996.6438    -57241.08    622.04968 
   28400    289.15834    90.356677    173746.16   -52200.321     5025.891   -57226.212    623.42954 
   28450    281.84713   -69.179613    173873.79   -52221.672    4898.8141   -57120.486    625.57878 
   28500    283.92215    263.43841    174005.15   -52188.625    4934.8802   -57123.505    626.22721 
   28550    281.63662    98.509375    174290.85   -52190.697    4895.1552   -57085.852    627.91835 
   28600     284.1511   -197.16026    174618.62   -52209.446    4938.8597   -57148.305    630.27259 
   28650    283.59617   -77.801194    174722.47    -52200.71    4929.2143   -57129.924    632.60253 
   28700    285.83406   -208.99231    174566.03   -52198.592    4968.1114   -57166.704    632.72787 
   28750    286.43885    176.63169    174243.64   -52229.752    4978.6233   -57208.375    633.58163 
   28800     285.2535    129.77657    174139.96   -52217.771    4958.0206   -57175.792    634.96606 
   28850    288.41698    38.484765    174221.34   -52206.935    5013.0053   -57219.941    636.58981 
   28900    286.52118   -203.22785     174436.4   -52258.231    4980.0543   -57238.286    638.36086 
   28950    282.66634   -355.21983    174548.74   -52253.706    4913.0528   -57166.759    639.65237 
   29000    286.41354    64.171472    174560.18   -52259.734    4978.1834   -57237.918    639.91504 
   29050     282.3535     171.5433    174591.78   -52232.658    4907.6154   -57140.273    641.43411 
   29100    284.68906   -124.60717    174660.56   -52221.421    4948.2101   -57169.631    642.07107 
   29150    283.33871     152.4601    174766.67    -52231.33    4924.7394   -57156.069    642.94497 
   29200    280.30197   -159.83181    174845.16   -52242.122    4871.9575   -57114.079    643.87034 
   29250    280.72821   -266.71034    174757.71   -52236.474    4879.3661    -57115.84     644.8393 
   29300    282.61442    68.912867    174567.98   -52250.024    4912.1504   -57162.175    644.48552 
   29350     280.2814     14.17076    174492.13   -52263.539       4871.6   -57135.139    645.45089 
   29400    281.79018    170.07879    174548.69   -52253.789    4897.8242   -57151.613    646.53018 
   29450    279.43524   -32.086865    174676.16   -52279.736    4856.8927   -57136.628    648.21141 
   29500    285.47988   -28.477389    174724.93   -52246.692    4961.9554   -57208.647    649.16993 
   29550    283.50005    238.41582    174728.22   -52285.895    4927.5437   -57213.439    650.81066 
   29600    285.51893    178.15911     174706.3   -52312.576     4962.634    -57275.21    651.62429 
   29650    283.73442   -152.26965    174701.15    -52333.23    4931.6174   -57264.848    652.46294 
   29700    281.67846    -54.48083    174728.49   -52335.011    4895.8824   -57230.894    652.59173 
   29750     280.2636    95.686808    174828.04   -52354.257    4871.2906   -57225.548    653.94274 
   29800    277.54218    93.962075    174943.59   -52367.471    4823.9893    -57191.46    655.53689 
   29850    281.91548   -300.76336    175072.45   -52367.112    4900.0022   -57267.114    657.50912 
   29900    281.06808   -157.77727    175019.52    -52383.25    4885.2733   -57268.523    657.82737 
   29950    280.99296   -33.985674    174784.44   -52405.696    4883.9677   -57289.664    658.28627 
   30000    280.31286   -25.233643    174492.47   -52399.425    4872.1469   -57271.572    658.66108 
   30050    283.28468    155.65188    174256.64    -52392.43    4923.8002    -57316.23    659.18607 
   30100    281.88389   -31.406374    174291.57   -52348.365    4899.4531   -57247.818    661.48585 
   30150    282.48972   -158.65057    174443.17   -52340.757    4909.9831    -57250.74    662.51032 
   30200    279.74242   -85.077007    174483.84   -52308.271     4862.232   -57170.503    664.33611 
   30250    283.63671    -92.20434    174518.25   -52305.982     4929.919   -57235.901    665.70208 
   30300    283.79574    159.88413    174573.75   -52300.602    4932.6831   -57233.285    667.44246 
   30350    281.66869   -106.36311    174684.23   -52276.171    4895.7127   -57171.884    669.00729 
   30400    285.73546    254.54621    174742.98   -52245.931    4966.3976   -57212.329     670.1066 
   30450    285.27844    -264.4812    174804.62    -52236.81     4958.454   -57195.264    671.27202 
   30500    287.72331   -309.58186    174821.48   -52202.336    5000.9485   -57203.285    671.65931 
   30550    286.30208   -115.04064    174780.06   -52191.562     4976.246   -57167.808    672.37393 
   30600    286.94764   -463.54351    174686.19   -52192.317    4987.4666   -57179.783    673.49216 
   30650    287.42773    69.593439     174466.5   -52180.287    4995.8111   -57176.099    674.24912 
   30700    280.45832    258.67615    174440.84   -52164.984     4874.675   -57039.659    674.49632 
   30750    284.03784    13.760405    174665.35   -52172.694    4936.8911   -57109.586    676.40735 
   30800     284.8107    151.89803    174892.77   -52171.411    4950.3242   -57121.736     677.7441 
   30850    285.53679   -390.03417    175135.26   -52185.219    4962.9444   -57148.163    680.46423 
   30900    287.25946   -232.71211    175250.01    -52190.84    4992.8863   -57183.726    682.24542 
   30950    287.04648   -218.89416    175171.51   -52249.792    4989.1845   -57238.977    683.42371 
   31000    284.50271    65.237352    174909.16   -52257.684     4944.971   -57202.655    683.59689 
   31050    285.04321    141.55807    174621.03   -52287.519    4954.3655   -57241.885    683.34735 
   31100     283.1919   -103.64744     174458.9   -52326.659    4922.1877   -57248.847    683.41162 
   31150    281.09512    21.318346     174420.2   -52295.968    4885.7434   -57181.712    683.87499 
   31200    284.64258    259.77077     174404.3   -52262.278    4947.4021    -57209.68    684.38055 
   31250    282.76059    117.66843    174601.75   -52238.274     4914.691   -57152.965    686.31483 
   31300    283.02297   -380.02984    174900.52   -52200.195    4919.2514   -57119.446    687.71535 
   31350    281.31345   -383.33565    175068.55   -52186.735    4889.5382   -57076.273     688.7601 
   31400    282.87825   -348.64231    174992.43   -52178.753    4916.7361   -57095.489    690.29134 
   31450    287.84965   -9.0531275    174720.01   -52175.557    5003.1446   -57178.702    689.87185 
   31500    289.39193    267.08857    174510.38   -52147.573    5029.9511   -57177.524     690.7979 
   31550    288.68778    221.50863    174622.29   -52149.868    5017.7122   -57167.581    692.22201 
   31600    283.15511    174.94667    174926.41   -52158.052    4921.5483   -57079.601     693.2533 
   31650    284.55846     -361.095    175227.05       -52162      4945.94    -57107.94    695.73757 
   31700    284.41131   -294.90532     175318.4   -52193.319    4943.3825   -57136.701    697.50141 
   31750    281.48306   -296.21498     175167.9    -52169.26    4892.4862   -57061.747      697.936 
   31800    285.22063    -119.4105    174734.78   -52143.818    4957.4493   -57101.267    698.64338 
   31850    282.63648    325.85028    174259.22   -52161.773    4912.5339   -57074.307    698.36285 
   31900    290.29002    287.82642    174005.75   -52159.912    5045.5609   -57205.473      698.796 
   31950    280.37027   -14.266908    173974.88   -52159.432    4873.1447   -57032.576    699.83684 
   32000    282.42367   -153.52964    174000.26   -52181.079     4908.835   -57089.914    700.91599 
   32050    283.07808    365.72405    174125.71   -52178.831    4920.2094    -57099.04    702.75735 
   32100    287.32682   -66.524986    174473.35    -52177.62    4994.0573   -57171.678    704.59692 
   32150    282.17539    39.944273     174839.8   -52229.406    4904.5197   -57133.925    707.47546 
   32200    282.47874    100.11508    175185.42     -52259.9    4909.7923   -57169.693    709.16269 
   32250    283.06236   -308.96709    175495.31   -52232.999    4919.9362   -57152.935    711.76751 
   32300    284.87528    -491.4383    175531.01   -52205.901    4951.4467   -57157.348    713.34624 
   32350    286.96924    12.047415    175395.94   -52187.463     4987.842   -57175.305    713.88429 
   32400    287.12086   -98.912924    175213.58   -52143.441    4990.4774   -57133.918    714.08775 
   32450    282.79361   -52.046899    175045.64   -52191.961     4915.265   -57107.226    714.79679 
   32500     287.6023    215.04151    174859.07   -52191.422    4998.8453   -57190.267    715.31386 
   32550    285.37852     206.0767     174778.3   -52165.759    4960.1936   -57125.953    715.69391 
   32600    287.32622   -97.058765    174845.13   -52137.805    4994.0467   -57131.852    717.87804 
   32650    288.91302    187.58595    174903.41   -52152.014    5021.6271   -57173.641    718.54197 
   32700    285.10548    -55.94019    174919.03   -52160.342    4955.4479    -57115.79    720.62354 
   32750    283.15563    25.624986    174979.49   -52167.757    4921.5573   -57089.314    722.86925 
   32800    285.99317   -270.18336    175045.39   -52196.413    4970.8769    -57167.29    725.01151 
   32850    286.20366   -44.105114    175078.52   -52216.282    4974.5354   -57190.817    726.82934 
   32900      286.319    45.891634    175016.69   -52160.984    4976.5402   -57137.524    728.00474 
   32950    285.21301   -172.11439    174909.63   -52152.945    4957.3168   -57110.261    728.34867 
   33000    285.82026    -215.7326    174702.56   -52182.738    4967.8715    -57150.61    729.45976 
   33050    285.52632    241.66938    174557.07    -52213.58    4962.7625   -57176.343    731.27766 
   33100    291.09192    333.44324    174666.63   -52181.008    5059.4988   -57240.507    732.59442 
   33150    283.86397   -25.108113    175032.88    -52172.26    4933.8691   -57106.129    735.58922 
   33200    280.53478   -444.62586     175228.3   -52159.334     4876.004   -57035.338    736.71933 
   33250    284.00499    352.67672    175139.71   -52165.926    4936.3202   -57102.246    737.18233 
   33300    282.89266    214.57081    175177.44   -52177.989    4916.9867   -57094.975    738.28174 
   33350    286.19949   -247.13909    175330.22   -52190.503     4974.463   -57164.966    739.51548 
   33400    284.87427    106.72981    175307.81    -52192.89    4951.4291   -57144.319    740.90625 
   33450    285.20865   -290.10673    175180.35   -52183.945    4957.2411   -57141.186    740.68816 
   33500    285.76805   -96.445502    174962.81   -52159.845     4966.964   -57126.809    741.46093 
   33550    285.64203    240.65835     174790.1     -52152.9    4964.7737   -57117.673     741.9234 
   33600    284.27088    7.9378845    174794.47   -52165.239    4940.9416   -57106.181    743.50769 
   33650    285.90372    137.34636    174865.62   -52155.576    4969.3221   -57124.898    745.30433 
   33700    286.97318   -194.59994    175084.98   -52145.071    4987.9106   -57132.981    747.90019 
   33750    287.82407   -189.25713    175293.55   -52162.525    5002.6998   -57165.225     749.6193 
   33800    282.66957    248.58366     175379.1   -52153.816     4913.109   -57066.925    751.23395 
   33850    284.59735   -199.36384    175329.35   -52171.211     4946.616   -57117.827    751.27036 
   33900    288.67158    179.24391    175033.56   -52145.743    5017.4306   -57163.173    751.18963 
   33950    285.58443    315.50051    174881.82   -52115.114    4963.7725   -57078.886    752.11054 
   34000    288.08644    222.09905    174892.96   -52127.303    5007.2603   -57134.563    753.76977 
   34050    285.61553   -175.24377    174784.26   -52121.374     4964.313   -57085.687    754.55356 
   34100    290.10997   -3.6009694    174578.38   -52094.689    5042.4314   -57137.121    754.85889 
   34150    280.81311    174.53294    174432.02   -52060.566    4880.8416   -56941.407    756.03489 
   34200    291.34987    213.26449    174337.31   -52014.208    5063.9823   -57078.191    756.69758 
   34250    292.05364    118.63174    174425.97   -52002.873    5076.2146   -57079.087    757.76004 
   34300    287.56971   -202.58655    174736.13   -52016.091    4998.2789    -57014.37    759.83536 
   34350    290.93579   -69.121962     175058.9   -52035.638    5056.7851   -57092.424    761.83615 
   34400    287.77066   -191.22119    175331.26   -52061.396    5001.7716   -57063.168    763.92982 
   34450    286.76214   -501.18901    175419.74   -52087.153    4984.2425   -57071.396    766.17779 
   34500    287.35032   -203.65976    175272.06   -52121.226    4994.4655   -57115.692    766.93175 
   34550    285.42163    331.21174    175061.42    -52103.19    4960.9428   -57064.133    766.98652 
   34600    281.30026     28.21045    174940.57   -52114.888     4889.309   -57004.197    768.20078 
   34650     284.5956    161.06011     174874.4   -52104.021    4946.5856   -57050.607     768.4904 
   34700    287.64205    313.69006    174830.46   -52148.603    4999.5362   -57148.139    770.47949 
   34750    290.36713    348.31766    174988.63   -52159.813    5046.9011   -57206.715    771.81919 
   34800     286.5893   -305.76643    175297.37   -52169.811    4981.2383   -57151.049     773.6955 
   34850    285.24806   -151.84239    175306.06   -52163.121    4957.9261   -57121.047    775.05121 
   34900    282.24614   -288.08273    175210.01   -52215.885    4905.7494   -57121.634    776.22018 
   34950    285.48083   -49.590007    175126.61   -52240.791    4961.9718   -57202.763    776.68822 
   35000    285.17041   -112.72746    175157.16   -52255.064    4956.5764    -57211.64    778.22295 
   35050     284.0823    110.05114    175258.81   -52279.248    4937.6638   -57216.912    778.98578 
   35100    284.66289   -451.73326    175438.48   -52268.047    4947.7551   -57215.802     780.7775 
   35150    283.57945   -129.88255    175427.34   -52281.565    4928.9237   -57210.488    782.20501 
   35200    283.20976   -139.57703    175346.92   -52251.207    4922.4981   -57173.705    782.18874 
   35250    287.26664   -289.16853    175277.34   -52243.588    4993.0112   -57236.599    783.47152 
   35300    284.38343   -298.94738    174975.71   -52235.249    4942.8978   -57178.147    783.92017 
   35350    282.67719    392.21802    174667.99   -52200.568    4913.2415   -57113.809    784.32766 
   35400    280.50128   -137.63676    174592.03   -52270.089    4875.4217    -57145.51    785.13377 
   35450    281.55245    323.47912    174595.76   -52271.003    4893.6922   -57164.696    786.74234 
   35500     280.6162   -191.41616    174709.63   -52300.389    4877.4192   -57177.808    788.65025 
   35550    284.80178   -150.59603    174748.71   -52290.455    4950.1692   -57240.624    791.00791 
   35600    278.20551    192.09237    174696.09   -52301.149    4835.5187   -57136.668    792.32464 
   35650    286.38215   -175.73498    174767.78   -52303.119    4977.6378   -57280.757    793.28298 
   35700    283.19134    24.622367    174844.33   -52320.903     4922.178   -57243.081    794.53669 
   35750    280.20476    1.6285458    174969.14    -52309.83    4870.2679   -57180.098    796.44503 
   35800    280.26592   -64.391417    175179.16    -52292.74    4871.3309   -57164.071    798.32992 
   35850     281.3779   -180.36185    175321.19   -52286.105    4890.6583   -57176.763    800.69868 
   35900     282.8056   -426.29652    175336.56   -52304.667    4915.4734   -57220.141    801.99941 
   35950    281.08768   -152.86237    175197.92   -52259.668     4885.614   -57145.282    803.56229 
   36000    285.30102    43.033637    174909.49   -52238.153    4958.8466       -57197    803.81912 
   36050    285.64628    451.97037    174530.12   -52228.964    4964.8474   -57193.812    803.91857 
   36100    284.45853     535.5154    174427.21   -52241.424    4944.2031   -57185.627    805.29399 
   36150    282.93993   -228.95133    174642.23   -52264.675    4917.8082   -57182.483    807.85686 
   36200    281.99436   -378.93273    174798.83   -52259.016    4901.3731   -57160.389    809.38314 
   36250    281.53795   -225.56445    174621.69   -52225.654    4893.4402   -57119.095    809.89003 
   36300     283.5985    174.35437     174325.3   -52234.324    4929.2549   -57163.579    809.54865 
   36350    286.43853    108.84331    174178.37   -52224.456    4978.6177   -57203.073    810.60223 
   36400    287.09498    59.461637    174135.77   -52212.902    4990.0276    -57202.93    811.35701 
   36450     283.0893    73.298221    174137.67   -52198.218    4920.4044   -57118.623    813.04424 
   36500    285.75431    109.44682    174220.62   -52226.307    4966.7252   -57193.032    813.68608 
   36550    281.72787   -43.389689    174462.83   -52199.987    4896.7412   -57096.728    816.80564 
   36600    286.32422    105.44864     174725.9   -52192.988    4976.6309   -57169.619     818.0194 
   36650    285.40433   -159.95264    174895.04   -52188.406    4960.6421   -57149.048    819.24585 
   36700    284.84329   -213.44104    174927.77    -52208.46    4950.8906   -57159.351    821.75985 
   36750    286.29098   -21.714159    174927.43   -52203.555    4976.0531   -57179.608    822.48583 
   36800    283.95798   -323.17762     175022.3    -52215.04    4935.5031   -57150.543    823.44708 
   36850    284.04653    294.13736    175047.17   -52229.461    4937.0421   -57166.503    824.12399 
   36900    283.72993   -165.12887    175125.85   -52225.798    4931.5392   -57157.337    824.53915 
   36950    285.76242    80.165888    175077.12   -52247.545    4966.8661   -57214.411    826.72304 
   37000    280.74509    261.08433    175004.55   -52260.245    4879.6594   -57139.904    827.72023 
   37050    284.73881    219.54243    175136.06   -52275.234    4949.0747   -57224.308    829.01966 
   37100     286.0876   -318.49923    175368.96   -52218.167    4972.5181   -57190.685    830.87942 
   37150    286.90104   -110.42473    175393.84   -52175.393    4986.6567    -57162.05    831.66143 
   37200    283.17928   -535.27889    175136.87   -52184.134    4921.9684   -57106.102    830.96608 
   37250    285.86908    359.96586    174557.85   -52222.082      4968.72   -57190.802    830.48033 
   37300    283.38295    388.16096    174063.24   -52228.698    4925.5083   -57154.206    830.41825 
   37350    285.77951      358.195    173807.62   -52256.855    4967.1632   -57224.018    830.54891 
   37400    278.97276    49.359111    173861.06   -52272.182    4848.8543   -57121.037    831.85167 
   37450    280.20469    443.84919    174024.47    -52285.18    4870.2666   -57155.447    833.12713 
   37500    284.39574   -22.121616    174473.19   -52248.863    4943.1118   -57191.975    834.81895 
   37550    284.96295   -176.71191    174871.77   -52248.298    4952.9704   -57201.268    836.96132 
   37600    283.11003    -298.2847    175008.59    -52233.49    4920.7648   -57154.255    838.64763 
   37650    282.84767   -56.831188    175005.63    -52265.89    4916.2046   -57182.095    839.63745 
   37700    286.37928   -110.85946    174786.66   -52247.561    4977.5879   -57225.149    840.20663 
   37750    280.76479    528.21479    174456.08   -52209.421    4880.0019   -57089.423    839.86454 
   37800    285.69114   -71.453143    174331.03   -52190.559    4965.6273   -57156.186    840.05464 
   37850    285.07707     392.1945     174177.5   -52202.035     4954.954   -57156.989    840.58609 
   37900     286.3788    27.703334    174055.65   -52213.454    4977.5795   -57191.033    840.87061 
   37950    284.20811    143.60231    173910.32   -52227.954    4939.8505   -57167.805    841.13963 
   38000    284.97435    242.49089    173903.95    -52218.88    4953.1686   -57172.048    842.35115 
   38050     286.6297    179.00384    174143.17   -52202.169    4981.9404   -57184.109    843.83536 
   38100    283.02622   -119.27894    174521.54   -52185.139    4919.3079   -57104.447     846.8566 
   38150    290.24193   -95.305477    174793.46   -52162.907    5044.7249   -57207.632    848.62707 
[...]
   91550    281.14211   -158.29681    174606.68   -52308.048      4886.56   -57194.608     2125.261 
   91600    280.38469    42.475205    174354.25   -52306.161    4873.3954   -57179.556    2124.7335 
   91650    285.68889    74.145854    174246.14   -52307.412    4965.5881       -57273    2125.3725 
   91700    283.42368    117.94385    174329.06   -52341.803    4926.2163   -57268.019    2127.8945 
   91750    283.45069   -228.59661    174497.48    -52310.68    4926.6857   -57237.366    2128.6596 
   91800    284.48707    192.27825    174461.81   -52322.139    4944.6991   -57266.838    2129.7368 
   91850    286.28834   -218.42191    174445.66   -52303.237    4976.0073   -57279.244    2128.4854 
   91900    282.59533    120.14884    174444.79    -52316.21    4911.8187   -57228.029    2129.3647 
   91950    288.41989   -101.13517    174555.49   -52295.316     5013.056   -57308.372    2130.6337 
   92000    276.70696   -178.55678    174685.13   -52314.893    4809.4723   -57124.366    2133.1906 
   92050    279.58561   -419.77439     174742.4   -52287.266    4859.5064   -57146.773    2134.9694 
   92100    277.89278    6.0142611    174463.02   -52322.221    4830.0832   -57152.304    2134.1656 
   92150    283.15997    207.94337    174148.01   -52299.439    4921.6327   -57221.071    2133.4007 
   92200    276.39598    3.5491165    174079.42   -52298.518    4804.0671   -57102.585    2133.8768 
   92250    284.25295  -0.16269166    174167.16    -52286.27    4940.6299     -57226.9    2135.3605 
   92300    284.46808    217.49323    174466.48   -52277.154    4944.3692   -57221.524    2139.0524 
   92350    281.48313   -547.36535    174904.62   -52255.807    4892.4874   -57148.294    2142.7182 
   92400    287.15604   -77.381022     175054.1   -52265.964    4991.0888   -57257.052    2145.7225 
   92450    282.69277   -305.29069    175159.11   -52230.207    4913.5123    -57143.72     2149.247 
   92500    283.94155   -122.39904    175081.23   -52258.147    4935.2175   -57193.364    2149.5037 
   92550    284.76175   -154.75666    174848.59   -52272.428    4949.4734   -57221.902    2148.6647 
   92600    281.83532     136.2748     174630.1    -52261.54    4898.6089   -57160.149    2149.4926 
   92650    281.24331     244.2513    174473.51   -52254.505     4888.319   -57142.824    2149.5698 
   92700     282.7824    213.13838    174420.03   -52292.514    4915.0702   -57207.584    2149.0761 
   92750     284.3152    161.16678    174501.77   -52297.155     4941.712   -57238.867    2150.8632 
   92800    285.12298   -105.58893    174567.16   -52311.945    4955.7519   -57267.697    2152.7053 
   92850    284.36563   -268.85298       174509   -52304.696    4942.5884   -57247.285    2154.1013 
   92900    283.03294      56.4447    174350.73   -52284.155    4919.4248    -57203.58    2152.9881 
   92950    287.67191    226.41659    174202.94   -52254.141    5000.0551   -57254.196    2152.5972 
   93000    286.22212    209.46714    174257.93   -52262.236    4974.8563   -57237.092    2154.0489 
   93050    285.66686   -110.79114    174540.77   -52257.482    4965.2052   -57222.687    2158.1589 
   93100    284.97498    78.240005    174825.81   -52248.856    4953.1797   -57202.036    2162.8031 
   93150    284.97024    -306.7736    174953.78   -52266.408    4953.0972   -57219.505    2165.2614 
   93200    278.21285   -20.079572    174729.68   -52305.348    4835.6463   -57140.994    2165.3737 
   93250    278.17231    251.31195    174433.12   -52327.512    4834.9417   -57162.454     2163.612 
   93300    281.63724    116.80029    174150.52   -52303.205     4895.166   -57198.371     2162.976 
   93350    281.04052    151.18955     174001.4   -52268.949    4884.7943   -57153.743    2163.4784 
   93400    284.36388    69.237617     174096.1   -52268.178     4942.558   -57210.736    2164.9122 
   93450    282.82088    295.01126    174438.09    -52267.87    4915.7389   -57183.609    2171.1527 
   93500    284.39155   -172.13343    174914.54   -52255.752     4943.039   -57198.791    2177.6625 
   93550    283.73503    96.130424    175125.13   -52239.922    4931.6279    -57171.55    2180.9593 
   93600     285.3816     -217.114    175178.34   -52227.686    4960.2471   -57187.933    2182.1847 
   93650     280.2288   -338.50564    175184.88   -52184.434    4870.6858    -57055.12    2185.1548 
   93700    291.26072   -172.04879    174987.06   -52127.465    5062.4327   -57189.897     2186.735 
   93750    287.23068     335.6027    174878.73   -52147.132    4992.3861   -57139.518    2185.7101 
   93800    282.54449   -238.10518    175036.72    -52162.33    4910.9349   -57073.265    2189.2455 
   93850    282.74575    178.50052    175084.45    -52165.17    4914.4331   -57079.603    2189.4762 
   93900    282.86645   -220.72074    174918.21   -52210.637    4916.5311   -57127.168     2188.988 
   93950     287.2856    73.598842    174576.52   -52194.307    4993.3406   -57187.648    2188.3325 
   94000    287.23033    78.517098    174337.53    -52185.63    4992.3801    -57178.01    2187.1022 
   94050    286.58413    32.514507       174111   -52195.299    4981.1483   -57176.447    2187.0505 
   94100    287.59647    104.81775    174002.18   -52179.125     4998.744   -57177.869    2189.3849 
   94150    286.43292    368.49746    174165.81   -52187.519    4978.5203   -57166.039    2193.3073 
   94200    286.90633    289.36498     174570.5   -52189.901    4986.7486    -57176.65    2198.1853 
   94250    285.58669   -221.93972    175146.46   -52172.342    4963.8118   -57136.154    2203.3628 
   94300    284.64497   -435.77347    175550.26   -52164.853    4947.4436   -57112.296    2207.4112 
   94350    284.87794    -578.5564    175507.61   -52119.288    4951.4929   -57070.781    2208.1839 
   94400      284.859    152.94111     175048.4   -52114.043    4951.1637   -57065.207    2207.0911 
   94450    285.16797    619.73666     174757.2   -52129.446    4956.5339   -57085.979    2206.2626 
   94500     283.7054   -63.776687    174757.76   -52139.513    4931.1129   -57070.626    2207.9646 
   94550    288.03037    166.60912    174698.04   -52151.423    5006.2856   -57157.709    2209.0712 
   94600    288.53364    501.75361    174712.33   -52159.346     5015.033   -57174.379    2208.9525 
   94650    287.64409    335.90832    174953.04   -52139.986    4999.5717   -57139.557    2212.6827 
   94700    282.02667   -199.85134     175294.8   -52222.265    4901.9347     -57124.2     2216.201 
   94750    282.21916    -338.2307    175448.14   -52226.756    4905.2804   -57132.036     2218.395 
   94800    284.26378    46.186467    175428.16   -52243.874    4940.8182   -57184.693    2218.7509 
   94850    283.89054    66.113398     175338.9   -52261.253    4934.3309   -57195.584    2221.3585 
   94900    287.04188    244.17148    175252.02   -52254.707    4989.1045   -57243.812    2220.6702 
   94950    284.38144   -60.433288    175279.45   -52221.968    4942.8633   -57164.832    2223.0716 
   95000    288.90329     26.42463    175203.49   -52233.397    5021.4579   -57254.855    2223.7084 
   95050    285.89657    184.19396     175086.1   -52229.569    4969.1979   -57198.767     2223.486 
   95100    282.16365   -78.889065    175050.01   -52253.052    4904.3156   -57157.368    2225.3692 
   95150    284.18148    -226.3375    174985.29   -52245.219    4939.3877   -57184.607    2225.9541 
   95200    285.31904   -235.20414    174854.25   -52271.623    4959.1597   -57230.783    2225.4627 
   95250    289.36043   -18.282999    174523.64   -52243.153    5029.4036   -57272.557    2224.8651 
   95300    284.41035     399.5035    174287.96   -52262.296    4943.3658   -57205.662    2223.8607 
   95350    283.61818    91.028687     174383.7    -52254.81     4929.597   -57184.407    2224.6784 
   95400    284.79269   -72.319342     174553.1   -52246.946    4950.0112   -57196.957     2227.792 
   95450    283.68553   -459.29874     174588.7   -52295.885    4930.7675   -57226.653    2229.6775 
   95500    279.42718   -147.35462    174500.95   -52329.527    4856.7527    -57186.28    2230.5362 
   95550    278.90715   -120.59598    174360.39   -52345.354    4847.7141   -57193.068    2230.7282 
   95600      282.362   -14.873909    174278.12   -52338.997    4907.7631    -57246.76    2229.7792 
   95650    282.20398   -362.81779    174159.73   -52323.038    4905.0165   -57228.055    2230.6421 
   95700    278.48544     198.6307    174035.31    -52358.39    4840.3842   -57198.774    2231.4165 
   95750    280.12288   -5.0573809    173970.18    -52363.38    4868.8448   -57232.225    2232.6015 
   95800    276.40863   -19.754456    173979.57   -52330.752     4804.287   -57135.039     2234.755 
   95850    279.06393    -49.66245    174024.32   -52309.217     4850.439   -57159.656    2235.9716 
   95900    286.31804   -87.731747    174152.03   -52320.305    4976.5234   -57296.828    2237.3335 
   95950     280.6603    40.058827    174326.44     -52342.9    4878.1857   -57221.086    2240.4002 
   96000     282.0577    36.101166    174597.22   -52385.496    4902.4741    -57287.97    2243.2329 
   96050    277.71476   -756.83833     174928.4   -52363.779     4826.989   -57190.768    2246.4678 
   96100    279.22709   -218.08352     174906.9   -52321.865     4853.275    -57175.14    2248.1189 
   96150    284.04544    272.71186    174704.67   -52300.449    4937.0232   -57237.472    2246.5359 
   96200    284.73167   -65.728415    174668.58   -52316.149    4948.9506   -57265.099    2248.5677 
   96250    281.78206    27.755802    174681.36   -52280.808    4897.6831   -57178.491    2249.8331 
   96300    283.44007    73.995025    174643.59   -52284.144    4926.5011   -57210.645    2250.0977 
   96350    280.66433    115.40321    174575.49   -52255.936    4878.2558   -57134.192    2251.0712 
   96400    281.83274   -88.416439    174470.81   -52255.118     4898.564   -57153.682    2251.3576 
   96450    282.76923    427.50386    174288.01   -52235.833    4914.8412   -57150.675    2252.1949 
   96500    281.70026   -197.77032    174219.29   -52232.927    4896.2613   -57129.188    2253.2911 
   96550    286.35161   -364.78471    174190.59   -52215.948    4977.1069   -57193.055    2254.7644 
   96600    285.54334    323.66156    174029.17   -52230.904    4963.0583   -57193.963    2252.8989 
   96650    283.49841    146.90619    174067.59   -52206.516    4927.5151   -57134.031     2254.459 
   96700    288.49625   -95.311053    174392.66   -52200.972    5014.3831   -57215.355    2259.4099 
   96750     282.5224   -40.847909    174685.72   -52193.996     4910.551   -57104.547    2262.4871 
   96800    283.00694   -8.6023616    174994.67   -52262.066     4918.973   -57181.038    2267.1524 
   96850    281.42186    -305.5054    175370.41   -52254.129    4891.4224   -57145.551    2273.4708 
   96900    283.19078    -25.77224       175634   -52265.122    4922.1682    -57187.29    2277.3796 
   96950    282.46411   -257.16288    175741.22   -52252.622    4909.5379    -57162.16    2278.6536 
   97000    277.71821   -76.641482       175626   -52255.176     4827.049   -57082.225    2279.6447 
   97050    283.42271    25.762615    175344.14   -52254.188    4926.1995   -57180.388    2279.4635 
   97100    282.40225   -38.065067    175062.73   -52284.417    4908.4627    -57192.88    2278.9731 
   97150    284.63364    227.26699    174805.75   -52250.402    4947.2468   -57197.648     2278.089 
   97200    284.35551    260.69688    174594.31   -52235.325    4942.4125   -57177.737    2277.7259 
   97250    283.89051   -150.78384    174443.24   -52274.432    4934.3303   -57208.762    2278.4058 
   97300    280.80187    448.00958    174222.42   -52312.027    4880.6463   -57192.673    2279.1661 
   97350    279.80569    161.38208    174305.41   -52342.881    4863.3316   -57206.212     2281.436 
   97400    280.40975   -33.908799    174670.98   -52326.858    4873.8308   -57200.689    2286.8702 
   97450    279.46393   -384.35842     174937.2     -52363.7    4857.3914   -57221.092    2290.3866 
   97500    279.86491   -15.567328    174932.07   -52397.283     4864.361   -57261.644    2290.5763 
   97550    279.91513   -207.97311    174848.48   -52379.101    4865.2339   -57244.334    2291.3228 
   97600     283.4969    475.80971    174747.19   -52364.031    4927.4889    -57291.52    2290.8879 
   97650    282.45949   -230.54233    174919.21   -52366.886    4909.4577   -57276.343    2293.6078 
   97700     285.2195   -298.50807     175050.2   -52308.176    4957.4296   -57265.606    2295.3967 
   97750    280.45042   -79.916039    175123.72   -52306.314    4874.5378   -57180.852    2296.8933 
   97800    283.35489   -4.3409207    175241.41   -52292.779    4925.0207   -57217.799    2300.2286 
   97850    282.96665    12.661133    175309.03   -52330.381    4918.2727   -57248.653     2303.067 
   97900    278.53693   -164.75367    175379.42   -52310.726    4841.2792   -57152.005    2304.8463 
   97950    282.77197   -151.43709    175311.73   -52301.037    4914.8888   -57215.926    2305.7602 
   98000    285.20161    58.571685    175169.65   -52261.085    4957.1187   -57218.203    2307.4223 
   98050    281.99049   -57.253963    175085.84   -52232.181    4901.3059   -57133.487    2307.5417 
   98100     287.2361    91.728321    174978.66   -52196.812    4992.4804   -57189.292    2308.2014 
   98150    287.17157    183.20679    174967.74   -52210.895    4991.3587   -57202.254    2308.4409 
   98200    281.73098    59.882891    175007.95   -52217.331    4896.7953   -57114.126    2310.6099 
   98250    283.80203   -680.93318    174974.76   -52208.032    4932.7924   -57140.824    2311.2926 
   98300    288.97559   -118.68157    174616.39   -52189.242    5022.7146   -57211.957    2309.9471 
   98350    279.72669    382.50269    174211.97   -52188.785    4861.9585   -57050.744     2307.554 
   98400    285.65407    270.49172    174062.31   -52178.808     4964.983   -57143.791     2307.792 
   98450    283.80908   -277.45921    174190.17   -52175.814     4932.915   -57108.729    2309.4727 
   98500    283.03625     37.98456    174298.45   -52196.648    4919.4823    -57116.13    2310.7998 
   98550    285.61018    85.837001    174334.47     -52179.6    4964.2201    -57143.82    2313.4607 
   98600    285.57049    184.02178    174461.01   -52179.366    4963.5303   -57142.897    2315.3719 
   98650    286.09304   -22.390039    174672.24   -52166.737    4972.6127    -57139.35    2317.8915 
   98700     281.7931   -65.106593    174806.07   -52163.131     4897.875   -57061.006    2321.3297 
   98750    287.76381   -293.43952    174733.94   -52177.565    5001.6525   -57179.217    2321.3862 
   98800    284.88269    284.27687    174484.94   -52169.258    4951.5754   -57120.833    2320.2123 
   98850    284.44778    192.45827    174297.11   -52186.846    4944.0163   -57130.863    2319.1551 
   98900    288.57435    -111.0003    174203.33   -52148.978    5015.7406   -57164.718    2317.4799 
   98950    286.28513     585.1423    174144.66   -52117.115    4975.9514   -57093.066    2319.1096 
   99000    288.41263     42.16269    174376.54   -52122.402    5012.9298   -57135.331    2322.9663 
   99050     288.5725   -417.38474     174760.2   -52080.125    5015.7084   -57095.833    2327.8456 
   99100    279.13456   -294.06466    174942.59    -52101.75    4851.6667   -56953.416    2332.0752 
   99150    285.64291   -100.40529    174972.41   -52123.372    4964.7889    -57088.16    2333.1755 
   99200    280.80438    52.621076    174962.76   -52172.314    4880.6899   -57053.004    2333.9325 
   99250    283.78195    137.60416    174987.01   -52154.954    4932.4434   -57087.397    2334.9299 
   99300    283.14347    49.061101    175142.87   -52166.227     4921.346   -57087.573    2337.4623 
   99350    283.00762   -27.778832    175210.91   -52135.607    4918.9848   -57054.592    2338.8425 
   99400    288.09826   -116.52911    175100.25   -52146.575    5007.4656    -57154.04    2339.9146 
   99450    284.90354   -44.742234    174965.17   -52108.891    4951.9379   -57060.829      2339.28 
   99500     290.1104   -11.394347    174783.69   -52129.334    5042.4388   -57171.772    2339.5591 
   99550    290.39572    270.72669    174583.06   -52138.855    5047.3981   -57186.253    2338.7025 
   99600    281.20807    127.53149    174525.89   -52143.887    4887.7065   -57031.594    2339.8262 
   99650    282.15942    359.33367    174523.46   -52121.807    4904.2421    -57026.05    2339.9821 
   99700    289.86899    -66.24168    174749.65   -52147.675    5038.2429   -57185.918    2343.3515 
   99750    289.05307   -338.45785    175076.91   -52192.487    5024.0612   -57216.549    2346.7771 
   99800    282.79145   -135.20718    175191.98   -52167.685    4915.2275   -57082.913    2349.0588 
   99850    284.41988   -60.172122    175127.74   -52208.431    4943.5313   -57151.962    2351.0429 
   99900    282.66838   -74.143706    174969.42   -52252.939    4913.0884   -57166.027    2350.9489 
   99950    281.50118    14.495657     174826.2   -52279.658    4892.8012   -57172.459    2351.6327 
  100000    280.59675    143.96575    174793.78   -52299.621    4877.0811   -57176.702    2354.1912 
  100050    278.89643   -39.818203    174777.67   -52344.214    4847.5278   -57191.742    2353.8542 
  100100    281.64767    7.1113905     174584.8   -52367.157    4895.3473   -57262.505    2353.2548 
  100150    289.81688    130.55948    174324.17   -52335.648    5037.3371   -57372.985    2352.7217 
  100200    273.61452    61.382352    174078.36   -52340.395    4755.7223   -57096.117    2350.9056 
  100250    280.92838    314.88037    173874.46   -52375.694    4882.8453   -57258.539    2348.4047 
  100300    282.25665    351.26858    173899.59    -52389.46    4905.9321   -57295.392    2350.5655 
  100350    284.34247    32.420646    174327.34   -52336.812    4942.1859   -57278.998    2355.2714 
  100400    281.48993   -451.20689    174781.73   -52332.442    4892.6056   -57225.048    2360.1706 
  100450    279.78751   -160.23132    174907.86   -52323.816    4863.0157   -57186.832    2363.2525 
  100500    282.04583    -307.1353       174817   -52333.382    4902.2677    -57235.65    2364.3563 
  100550    281.08299    2.5333173    174546.31   -52346.319    4885.5325   -57231.852    2360.4832 
  100600     284.0112    343.95482    174283.41   -52334.794    4936.4281   -57271.222    2357.8546 
  100650    284.25731    144.97657    174299.84   -52339.237    4940.7056   -57279.943    2359.0276 
  100689    280.90321   -11.559558    174446.06    -52327.37    4882.4078   -57209.778     2359.459 
Loop time of 174.983 on 6 procs for 100000 steps with 5832 atoms

Performance: 493.763 ns/day, 0.049 hours/ns, 571.485 timesteps/s
99.2% CPU use with 6 MPI tasks x no OpenMP threads

MPI task timing breakdown:
Section |  min time  |  avg time  |  max time  |%varavg| %total
---------------------------------------------------------------
Pair    | 131.87     | 133.66     | 134.69     |   9.0 | 76.39
Neigh   | 17.718     | 17.804     | 17.96      |   2.0 | 10.17
Comm    | 17.407     | 18.567     | 20.324     |  24.6 | 10.61
Output  | 0.11584    | 0.11861    | 0.12999    |   1.5 |  0.07
Modify  | 3.775      | 3.8005     | 3.8182     |   0.9 |  2.17
Other   |            | 1.03       |            |       |  0.59

Nlocal:        972.000 ave         984 max         956 min
Histogram: 1 1 0 0 0 0 1 0 2 1
Nghost:        1808.67 ave        1825 max        1789 min
Histogram: 1 0 0 1 1 0 0 2 0 1
Neighs:        0.00000 ave           0 max           0 min
Histogram: 6 0 0 0 0 0 0 0 0 0
FullNghs:      28206.7 ave       28651 max       27738 min
Histogram: 2 0 0 0 0 1 0 2 0 1

Total # of neighbors = 169240
Ave neighs/atom = 29.019204
Neighbor list builds = 13659
Dangerous builds = 0
undump 1
reset_timestep 0
#unfix 2
#unfix 3
#unfix 4


write_data data.water_1atm_LG
System init for write_data ...

Total wall time: 0:02:56
