
# Define the lattice
#
variable	    lattice_constant equal 6.36339
lattice		    diamond ${lattice_constant}
lattice		    diamond 6.36339
Lattice spacing in x,y,z = 6.3633900 6.3633900 6.3633900

# Define region
# multiples of lattice spacing
#
region 		    simbox block 0 9 0 9 0 9

# Create Atoms
#
create_box          1 simbox
Created orthogonal box = (0.0000000 0.0000000 0.0000000) to (57.270510 57.270510 57.270510)
  1 by 2 by 3 MPI processor grid
create_atoms        1 box
Created 5832 atoms
  create_atoms CPU = 0.000 seconds
mass                1 18.015

# Define potential
#
pair_style          sw
pair_coeff          * * ML.sw mW
Reading sw potential file ML.sw with DATE: 2019-02-27

# Add velocity/set timestep
#
velocity            all create ${TEMP} 120598 rot yes dist gaussian
velocity            all create 289 120598 rot yes dist gaussian
timestep            5.0

# Define output
#
compute	            1 all msd
thermo              100
thermo_style        custom step temp press vol etotal ke pe c_1[4]

# Neighbor lists
#
neigh_modify        delay 0 every 1 check yes

# Set fixes
#
fix                 1 all momentum 10 linear 1 1 1 rescale
fix                 2 all nph iso ${PRES} ${PRES} ${PCOUPL}
fix                 2 all nph iso 1 ${PRES} ${PCOUPL}
fix                 2 all nph iso 1 1 ${PCOUPL}
fix                 2 all nph iso 1 1 10000.0
fix                 3 all temp/csvr ${TEMP} ${TEMP} ${TCOUPL} 837492
fix                 3 all temp/csvr 289 ${TEMP} ${TCOUPL} 837492
fix                 3 all temp/csvr 289 289 ${TCOUPL} 837492
fix                 3 all temp/csvr 289 289 5000.0 837492

# Run 0.5 ns equilibration
#
dump		    1 all custom 1000 eq.${NAME}.dump id type x y z vx vy vz
dump		    1 all custom 1000 eq.ice_289K_1atm_LG.dump id type x y z vx vy vz
run                 100000
Neighbor list info ...
  update every 1 steps, delay 0 steps, check yes
  max neighbors/atom: 2000, page size: 100000
  master list distance cutoff = 6.0032907
  ghost atom cutoff = 6.0032907
  binsize = 3.0016454, bins = 20 20 20
  1 neighbor lists, perpetual/occasional/extra = 1 0 0
  (1) pair sw, perpetual
      attributes: full, newton on
      pair build: full/bin/atomonly
      stencil: full/bin/3d
      bin: standard
Per MPI rank memory allocation (min/avg/max) = 4.838 | 4.838 | 4.838 Mbytes
Step Temp Press Volume TotEng KinEng PotEng c_1[4] 
       0          289   -639.88797    187842.19   -65721.735    5023.1389   -70744.874            0 
     100    144.25436   -485.71055    187387.24    -65453.14       2507.3    -67960.44  0.069183942 
     200    151.57144     173.4997    186369.73    -65212.02    2634.4789   -67846.499  0.074653567 
     300    160.52959    670.08482    185569.85   -64978.507    2790.1814   -67768.688   0.09348916 
     400    175.73869    749.28861     185547.6   -64766.421    3054.5323   -67820.954  0.096092412 
     500    167.58029    298.34011     186280.2    -64583.15    2912.7303   -67495.881  0.083517078 
     600    181.52242   -201.19073    187241.55   -64402.401      3155.06   -67557.461  0.082779481 
     700    182.49525   -559.73939    187809.28   -64213.596    3171.9688   -67385.564  0.086123282 
     800    182.40971   -549.57376    187723.16    -64047.48     3170.482   -67217.962  0.088859774 
     900    190.37025   -160.58223     187170.9   -63905.676     3308.845   -67214.521   0.09613548 
    1000      202.655    318.15847    186587.73    -63736.67    3522.3675   -67259.037  0.092750791 
    1100    200.13121    446.39809    186364.97   -63581.263    3478.5012   -67059.764  0.099034519 
    1200    208.03682    343.13978    186618.48   -63456.007    3615.9095   -67071.917   0.10558036 
    1300    207.14464   -17.188698    187159.99   -63341.352    3600.4024   -66941.755  0.095026379 
    1400     215.0557   -263.01117    187654.03   -63175.913    3737.9053   -66913.818   0.10312736 
    1500    217.58818   -324.28263    187822.16   -63070.309    3781.9227   -66852.232   0.10107996 
    1600     225.4526   -109.96024    187610.51   -62927.605     3918.615    -66846.22  0.083387173 
    1700    224.30748    115.48512    187207.71   -62826.764    3898.7116   -66725.476   0.10494192 
    1800    225.04925    269.31374    186903.24   -62709.273    3911.6042   -66620.877   0.11030994 
    1900    233.69593    310.35835    186901.92    -62591.81    4061.8932   -66653.703   0.10494702 
    2000    231.67127    105.38052    187204.11   -62463.762    4026.7023   -66490.465   0.11807264 
    2100    237.08611   -79.460123    187610.52    -62374.76    4120.8182   -66495.578   0.10454123 
    2200     237.5907     -244.788    187874.25   -62240.369    4129.5885   -66369.957   0.11485209 
    2300    239.95723   -220.08019    187859.01   -62168.106    4170.7215   -66338.828   0.11713752 
    2400    240.91971   -91.421784    187614.13   -62086.835    4187.4505   -66274.285    0.1131665 
    2500    243.61171    151.10416    187319.33   -62071.217    4234.2404   -66305.457   0.12710354 
    2600    245.04161    191.96109    187172.77    -61983.59    4259.0936   -66242.684   0.12400133 
    2700    245.84608    134.19964    187273.12   -61917.189    4273.0762   -66190.265   0.11518559 
    2800     248.2876    16.592936    187561.85   -61859.756    4315.5124   -66175.269    0.1202109 
    2900    249.43277   -120.83271    187852.77   -61786.724    4335.4167   -66122.141   0.11533283 
    3000    250.76239   -149.87494     187970.3   -61741.986    4358.5271   -66100.513   0.11780539 
    3100    251.82516   -104.21049    187861.09   -61640.261    4376.9991    -66017.26   0.12595094 
    3200    258.36364    49.184317    187621.41   -61567.454    4490.6451   -66058.099    0.1134518 
    3300    253.13237    141.75226    187431.83   -61509.506    4399.7198   -65909.226   0.13539335 
    3400    261.10915    210.38408    187414.49   -61499.202    4538.3652   -66037.567    0.1201183 
    3500    254.46118     53.82192    187576.81   -61481.654    4422.8161   -65904.471   0.12230428 
    3600    258.73413   -44.147639    187807.74   -61429.702    4497.0847   -65926.787   0.13637092 
    3700    263.36889   -131.38147    187958.17    -61354.86     4577.642   -65932.502   0.12390048 
    3800    259.66253   -142.02384    187955.59   -61266.079    4513.2213     -65779.3   0.12873874 
    3900    267.94337   -11.015283    187821.16   -61183.571    4657.1513   -65840.723   0.12975109 
    4000    266.73199    82.142005    187662.71   -61178.541    4636.0962   -65814.637   0.12822625 
    4100    262.90751    99.335505     187590.3   -61139.083    4569.6226   -65708.705     0.135581 
    4200    263.88004    104.04165    187653.76   -61121.425    4586.5262   -65707.951   0.13179353 
    4300    271.02634    25.224398     187809.3   -61066.909    4710.7369   -65777.646   0.12185134 
    4400    267.24204    -94.89699    187963.28   -61029.951    4644.9615   -65674.913   0.13939209 
    4500    271.57868   -109.69363    188017.78   -60990.284    4720.3371   -65710.621   0.13080245 
    4600    270.06332   -76.510893     187953.7   -60940.328    4693.9985   -65634.326   0.13001638 
    4700    270.62493   0.43331348    187825.53   -60900.144      4703.76   -65603.904    0.1460118 
    4800    272.21628    70.318305    187717.59   -60873.725    4731.4194   -65605.145   0.13299871 
    4900    277.66231    126.74124    187702.95   -60838.105    4826.0772   -65664.182   0.12789115 
    5000     274.6691    68.861643    187797.99   -60800.231     4774.052   -65574.283    0.1403839 
    5100    275.65041   -23.142063    187941.15   -60790.405    4791.1083   -65581.513    0.1263415 
    5200    280.92875   -106.38568     188047.6   -60754.959    4882.8516   -65637.811   0.13940322 
    5300    279.45293   -56.709534    188045.61   -60685.092    4857.2003   -65542.292   0.13055386 
    5400    277.33261   -69.307688    187955.63   -60668.129    4820.3468   -65488.476   0.14205394 
    5500    280.31418    61.497956    187846.21   -60637.639    4872.1697   -65509.809   0.14605641 
    5600    279.67211    88.711981    187802.91     -60612.8    4861.0099   -65473.809   0.13829068 
    5700     286.0554    74.031469    187856.07   -60567.767    4971.9585   -65539.725   0.13316091 
    5800    278.58946    19.437175    187977.59   -60565.327    4842.1922   -65407.519   0.14051838 
    5900    282.79736   -74.009453     188099.2   -60529.225    4915.3302   -65444.555   0.13762891 
    6000    283.06042   -79.243059    188145.23   -60518.458    4919.9024   -65438.361   0.13423079 
    6100    282.36361   -90.038963    188087.75   -60535.948    4907.7912   -65443.739   0.15374884 
    6200     288.5072    42.000854    187961.05    -60482.79    5014.5735   -65497.363   0.12648595 
    6300    285.18752    92.883635     187852.4   -60460.768    4956.8738   -65417.641   0.14475531 
    6400    284.03985    88.147557     187825.2    -60419.96     4936.926   -65356.886   0.14062333 
    6500    282.46142     13.12398    187910.65   -60400.759    4909.4911    -65310.25    0.1456873 
    6600    281.22601   -83.808374    188056.24   -60441.549    4888.0184   -65329.568   0.15460114 
    6700    286.94207   -102.14888    188155.09   -60460.664    4987.3698   -65448.034   0.13311318 
    6800    284.51171   -91.965683    188133.48   -60462.646    4945.1275   -65407.774   0.13799548 
    6900    281.69641    -27.01022    187998.36   -60481.126    4896.1945   -65377.321   0.15088901 
    7000    286.11462    92.327147    187832.09   -60445.535    4972.9877   -65418.523   0.13871549 
    7100    288.23433    127.97577    187757.66   -60399.559    5009.8307    -65409.39   0.14545718 
    7200    286.55321    49.764866    187823.47   -60367.062    4980.6109   -65347.673   0.15173138 
    7300    289.26703    23.811825    187986.93   -60334.341    5027.7802   -65362.121   0.14028363 
    7400    285.46954   -120.37171    188153.73   -60332.906    4961.7755   -65294.682    0.1475519 
    7500    289.11384   -123.26745    188207.34   -60322.213    5025.1175   -65347.331    0.1476208 
    7600    285.61833   -74.540944    188107.44   -60354.581    4964.3616   -65318.943    0.1384255 
    7700    287.55596    49.206645    187911.67   -60338.479    4998.0399   -65336.519    0.1532137 
    7800     282.7942    145.59046    187746.77   -60371.698    4915.2752   -65286.973   0.13815011 
    7900    288.76953    190.71007    187737.24   -60324.248     5019.133   -65343.381    0.1402382 
    8000    287.24362    98.757966    187901.27   -60321.944     4992.611   -65314.555   0.14765017 
    8100    284.36284   -66.870629    188128.29   -60348.887    4942.5399   -65291.427   0.13526037 
    8200    289.68105   -195.83649    188263.77   -60349.736    5034.9763   -65384.713    0.1480718 
    8300    285.28612   -146.29215    188201.59    -60337.67    4958.5875   -65296.257   0.15689323 
    8400    283.21028   -25.420058    187979.05   -60366.091    4922.5071   -65288.598   0.14414905 
    8500    288.07973    121.01956     187743.3   -60342.361    5007.1436   -65349.504   0.15103726 
    8600    292.23933    197.17184    187653.89   -60310.462     5079.442   -65389.904    0.1461605 
    8700     287.3816     158.2622    187781.59   -60262.816    4995.0093   -65257.825   0.13845374 
    8800    287.66112   -34.372042    188063.34   -60222.997    4999.8677   -65222.865   0.15819278 
    8900    292.15011   -146.99175    188323.59   -60207.064    5077.8913   -65284.955   0.14156958 
    9000     291.0854   -241.55249    188406.37   -60191.966    5059.3855   -65251.351     0.152798 
    9100    293.70016   -109.47304    188245.38   -60190.325    5104.8329   -65295.158   0.14606237 
    9200    291.63988    82.900996    187932.63   -60167.434    5069.0228   -65236.457   0.14171315 
    9300    294.58463    241.29264    187671.17   -60205.133    5120.2059   -65325.339   0.14624879 
    9400    291.70727    214.92498    187642.99   -60214.602    5070.1942   -65284.797   0.15906189 
    9500    291.22622    58.695353    187875.82   -60218.004    5061.8331   -65279.837   0.14102245 
    9600    292.43295    -101.4708    188230.72   -60223.708    5082.8073   -65306.516   0.14836595 
    9700    291.07742   -235.72052    188473.33   -60204.723    5059.2468   -65263.969   0.14426175 
    9800    291.43586   -200.64806    188433.51   -60235.835    5065.4768   -65301.312   0.13736802 
    9900    292.50276   -51.754219    188124.39    -60205.13    5084.0206    -65289.15   0.15647843 
   10000    290.12658     165.7263       187741   -60209.603    5042.7201   -65252.323   0.14397339 
   10100    291.36532    298.30677    187541.71   -60219.063    5064.2507   -65283.314    0.1459031 
   10200    291.60098     224.4154    187664.98   -60216.823    5068.3468    -65285.17   0.15235415 
   10300    293.80012   -3.3890063    188034.05   -60164.908    5106.5703   -65271.478   0.14303612 
   10400     292.3519   -231.78798    188429.59   -60189.919    5081.3986   -65271.318    0.1534499 
   10500    290.86011   -322.73585    188587.67   -60155.175    5055.4696   -65210.644   0.15080553 
   10600    289.18892   -232.97424    188397.39   -60167.685    5026.4225   -65194.107   0.14559741 
   10700    293.21406    52.148121    187974.52   -60195.872    5096.3839   -65292.256   0.14769331 
   10800    295.67227     297.8335    187585.73   -60187.605    5139.1103   -65326.715   0.14831887 
   10900    291.93306    339.60987    187487.81   -60206.185    5074.1186   -65280.304    0.1384751 
   11000    291.92504    172.36144    187750.63   -60233.332    5073.9793   -65307.311   0.14920779 
   11100    291.64106   -81.963762    188195.98   -60263.303    5069.0434   -65332.346   0.14607082 
   11200    289.34751   -300.77239    188529.11   -60252.664    5029.1791   -65281.843   0.14301149 
   11300    288.53431   -330.95741    188535.42   -60270.302    5015.0447   -65285.347    0.1588483 
   11400    287.46717   -134.61695    188189.72   -60270.441    4996.4967   -65266.938   0.13828824 
   11500     289.4527    222.24953    187714.42   -60208.051    5031.0073   -65239.058   0.14495311 
   11600    287.14218    340.02638    187448.62   -60244.156    4990.8479   -65235.004   0.14618789 
   11700    288.83496    306.59561    187559.33   -60265.314    5020.2704   -65285.584   0.14172979 
   11800    285.52861    17.690672    187967.62   -60318.332    4962.8022   -65281.134   0.15044316 
   11900    292.31577   -234.00195    188404.12   -60308.457    5080.7706   -65389.227   0.14527466 
   12000    290.32566   -346.77435     188575.9   -60322.024    5046.1803   -65368.204   0.13856784 
   12100    286.03234   -216.09251    188363.65   -60306.659    4971.5577   -65278.216   0.15314665 
   12200    289.54998    58.461611    187910.67   -60281.841    5032.6982   -65314.539   0.14685164 
   12300    286.63939    267.17834    187527.51   -60253.438    4982.1089   -65235.547   0.14831576 
   12400    291.40763    307.24243     187459.4    -60246.69    5064.9861   -65311.676   0.15210042 
   12500    290.31197    152.56539    187736.56    -60248.24    5045.9423   -65294.182   0.14248383 
   12600    290.82964   -99.289794    188177.12   -60254.397      5054.94   -65309.337   0.14465072 
   12700    286.25308   -292.17585    188480.68   -60260.521    4975.3944   -65235.915   0.15470239 
   12800    286.75717   -293.71584    188453.77   -60268.059    4984.1561   -65252.215   0.14592075 
   12900    293.12256   -46.699994    188138.33   -60277.202    5094.7936   -65371.996   0.14489525 
   13000    288.24506    173.81668    187756.24   -60237.915    5010.0172   -65247.932   0.14803281 
   13100    288.06533    263.87288    187566.76   -60225.038    5006.8933   -65231.931   0.13962359 
   13200    291.40332    181.26428    187689.44   -60209.183    5064.9113   -65274.094   0.15370067 
   13300    292.98347    21.111741    188018.29   -60234.846     5092.376   -65327.222   0.13884785 
   13400    290.77135   -183.80347    188328.99   -60226.572    5053.9269   -65280.499    0.1410045 
   13500    292.96509    -218.8583    188416.48   -60232.144    5092.0565   -65324.201   0.14932784 
   13600    292.56816    -110.9474    188245.59   -60223.676    5085.1575   -65308.833   0.13998656 
   13700     287.3023    12.890226    187953.78   -60239.492     4993.631   -65233.123   0.14707584 
   13800     290.2376    181.18374    187739.19   -60214.867    5044.6497   -65259.516   0.14832937 
   13900    289.11075    144.17776    187741.08   -60225.165    5025.0638   -65250.229   0.14461238 
   14000     292.1082    64.599372    187927.21     -60238.4    5077.1628   -65315.563   0.14711991 
   14100    288.92648   -54.988944    188157.54   -60224.628     5021.861   -65246.489   0.14899646 
   14200    289.62509   -134.48639    188285.46    -60249.15    5034.0036   -65283.153   0.14126696 
   14300    287.01093    -110.4097    188250.81   -60276.027    4988.5667   -65264.594   0.14492158 
   14400    288.15536   -55.640089    188086.51   -60289.509    5008.4581   -65297.967   0.14439741 
   14500    286.40618     66.67745    187903.86    -60265.05    4978.0555   -65243.106   0.13902419 
   14600    289.57511     144.7386    187817.85   -60269.168    5033.1349   -65302.303   0.15499261 
   14700     289.0583    77.319677    187866.06   -60246.799    5024.1522   -65270.951   0.13929642 
   14800    291.27008    13.401811    188008.03   -60246.518    5062.5954   -65309.113   0.14383724 
   14900    291.45147   -90.395664    188156.42   -60272.971    5065.7481   -65338.719   0.14524727 
   15000    288.15785   -113.63809    188224.74   -60311.682    5008.5013   -65320.183   0.13762642 
   15100    282.53524   -138.05788    188168.02   -60337.924    4910.7742   -65248.698   0.15182191 
   15200    291.22301    -1.986082    188002.76   -60363.251    5061.7773   -65425.028   0.14186019 
   15300    286.59353    63.351016    187834.22   -60355.277    4981.3118   -65336.588   0.14452572 
   15400    288.26774    97.531874    187770.59   -60406.897    5010.4114   -65417.308   0.14496528 
   15500    280.03201    60.319891    187839.69   -60476.552    4867.2653   -65343.818   0.14216193 
   15600    284.80511   -8.7007249    187987.28   -60430.146    4950.2272   -65380.373   0.13987265 
   15700    287.52588   -105.79029    188119.11   -60380.003    4997.5171    -65377.52   0.15253998 
   15800    281.49185   -145.57071    188142.59   -60386.092    4892.6389   -65278.731   0.14503907 
   15900    288.91154   -39.375328       188036   -60376.115    5021.6014   -65397.716   0.14319855 
   16000    287.53645    48.565897    187870.62   -60365.282    4997.7008   -65362.982   0.15038818 
   16100    282.06082     153.3857     187760.7   -60374.832    4902.5283   -65277.361   0.14006866 
   16200    284.91074    92.046164    187789.45   -60314.792     4952.063   -65266.855   0.15003085 
   16300     285.4446    29.906748    187949.77   -60298.907    4961.3422    -65260.25   0.14749926 
   16400    291.80322   -73.545828    188148.98   -60309.429    5071.8619   -65381.291   0.13615769 
   16500    290.09815   -155.26405    188257.21   -60312.103     5042.226   -65354.329   0.14969622 
   16600    285.22161   -80.283143     188186.4   -60343.612    4957.4663   -65301.079   0.14122462 
   16700     290.5953     11.47415    187989.85   -60309.452     5050.867   -65360.319   0.14252288 
   16800    288.85837    99.813357    187799.71   -60291.016    5020.6772   -65311.693   0.15283829 
   16900    289.79905    141.45683    187739.15   -60287.726    5037.0273   -65324.753   0.14113554 
   17000     286.1522    62.935223    187848.96   -60300.424     4973.641   -65274.065   0.14718656 
   17100    293.80625   -10.958275    188052.82   -60282.308    5106.6769   -65388.985   0.14970062 
   17200    288.05649   -139.25782    188212.18   -60284.114    5006.7397   -65290.853   0.14127259 
   17300    286.86228   -157.75227    188223.83   -60332.424     4985.983   -65318.407   0.14924424 
   17400    286.37926   -83.221682    188076.99   -60336.409    4977.5876   -65313.996   0.15066588 
   17500    288.45134    76.096943    187863.07    -60374.56    5013.6026   -65388.163   0.14253289 
   17600    285.19242    142.34161    187711.71   -60374.349    4956.9589   -65331.308   0.14740448 
   17700     284.4566    119.11706    187720.31   -60389.186    4944.1696   -65333.355   0.14564693 
   17800    287.04445    45.251441    187880.11     -60416.7    4989.1493   -65405.849   0.13966356 
   17900    285.42486   -81.035739    188077.18    -60432.28     4960.999   -65393.279   0.15267225 
   18000    284.67261   -160.35405    188186.64   -60445.777     4947.924   -65393.701   0.14129795 
   18100    285.69912   -112.65152    188143.29   -60456.614    4965.7659    -65422.38   0.14297902 
   18200    284.00862   -13.060065    187960.23   -60488.846    4936.3833    -65425.23    0.1480634 
   18300    284.24861    82.761236    187745.22   -60496.466    4940.5546    -65437.02   0.13505514 
   18400    285.46172    184.56612    187638.97   -60496.599    4961.6396   -65458.239   0.15004967 
   18500    282.78555    114.60374    187715.31   -60459.696    4915.1249   -65374.821   0.14528653 
   18600     284.1313    30.603264    187934.69   -60450.008    4938.5155   -65388.524   0.14535704 
   18700    288.47684   -143.70985    188165.96   -60407.237    5014.0459   -65421.282   0.14962807 
   18800    287.57885   -176.95888    188259.63   -60364.089    4998.4378   -65362.526   0.14586036 
   18900    286.47633   -121.73053    188158.47   -60405.888    4979.2748   -65385.163    0.1453809 
   19000    280.85653    44.380541    187913.99   -60402.935    4881.5964   -65284.531   0.15210468 
   19100    286.62362    172.31626    187686.93   -60405.038    4981.8348   -65386.873   0.14562396 
   19200    286.04744     195.7716    187635.64     -60378.3    4971.8202    -65350.12   0.14184124 
   19300    288.22554    119.11955    187807.47   -60370.762    5009.6779    -65380.44       0.1502 
   19400    292.38689   -31.645557    188095.31   -60342.521    5082.0067   -65424.527   0.13583753 
   19500    286.21355   -173.23837    188325.21   -60355.143    4974.7073    -65329.85   0.14708795 
   19600    285.46061   -222.93771     188341.5   -60358.449    4961.6203   -65320.069   0.14992807 
   19700    283.89618   -90.004524     188125.8   -60363.514    4934.4289   -65297.943    0.1386034 
   19800    285.53901    98.469106    187816.34   -60361.306    4962.9831   -65324.289   0.15178255 
   19900     294.8488    268.16828    187604.91   -60330.149    5124.7975   -65454.947   0.13813327 
   20000    290.01206    220.62069    187641.65   -60356.771    5040.7297   -65397.501   0.14192197 
   20100    286.48791    42.138283    187910.65   -60406.158     4979.476   -65385.634   0.14507084 
   20200    286.07429   -160.69287    188235.95   -60395.935    4972.2868   -65368.222   0.14167512 
   20300    287.25653   -234.36606    188400.57   -60381.558    4992.8355   -65374.394   0.14157103 
   20400    282.22965   -220.83777    188295.56   -60378.208    4905.4628   -65283.671   0.15011415 
   20500    281.84747    9.2301409    187979.86   -60376.234      4898.82   -65275.054   0.13944697 
   20600    285.37116    209.50161     187665.2   -60368.296    4960.0657   -65328.362   0.14269722 
   20700     286.9878    286.50839       187554   -60364.531    4988.1646   -65352.696   0.14685848 
   20800    286.09437    160.33143    187725.58   -60359.431    4972.6358   -65332.066   0.13834157 
   20900    284.19635   -49.783563    188074.77    -60338.69    4939.6462   -65278.336   0.14976414 
   21000     287.7004   -239.52099    188363.16   -60362.175    5000.5503   -65362.725   0.14091664 
   21100    285.85759   -279.37372    188399.47   -60359.238    4968.5203   -65327.759   0.14293549 
   21200    287.22956   -134.08223    188150.29   -60349.604    4992.3667   -65341.971   0.15216652 
   21300    284.85622    89.775234       187775   -60345.262    4951.1155   -65296.378   0.14555262 
   21400    287.95692    303.60065    187529.43   -60331.184     5005.009   -65336.193   0.14565078 
   21500    292.10015    246.31205    187586.83   -60317.021    5077.0229   -65394.044   0.14827272 
   21600    285.84107    47.302596    187924.06   -60287.684    4968.2333   -65255.917   0.13986085 
   21700    287.60957   -189.64368    188345.06   -60271.825    4998.9717   -65270.797   0.14906247 
   21800    292.68562   -346.28842    188582.49   -60232.512     5087.199   -65319.711   0.15114376 
   21900    292.28212   -254.75646    188471.61   -60241.528    5080.1857   -65321.713   0.14246177 
   22000    289.84846   -2.0189954    188064.58    -60245.83     5037.886   -65283.716   0.14852609 
   22100    289.42216    277.23823    187613.42   -60233.008    5030.4764   -65263.484    0.1443471 
   22200    291.91985    404.32272    187413.03   -60214.118    5073.8892   -65288.007   0.14178801 
   22300    291.55205    292.47667    187621.26    -60154.62    5067.4963   -65222.117   0.15176593 
   22400    291.83761   -17.118266    188129.61   -60183.177    5072.4596   -65255.637   0.14804592 
   22500    292.18911   -331.00124    188619.64    -60169.11    5078.5692    -65247.68   0.14670174 
   22600    291.60384   -459.69152    188764.71    -60175.78    5068.3966   -65244.177   0.15755062 
   22700    292.52111   -214.24698    188436.85   -60190.325    5084.3396   -65274.665   0.14207197 
   22800    291.41066    130.52625    187842.04   -60232.082    5065.0388    -65297.12   0.14796728 
   22900    290.07633    399.90907    187364.87    -60238.17    5041.8467   -65280.016   0.14954029 
   23000    293.26366     450.6072       187322    -60231.36    5097.2461   -65328.606   0.13717282 
   23100    295.52803    194.64351    187759.43   -60209.249    5136.6032   -65345.852   0.14820432 
   23200    288.93643   -217.92199       188392    -60211.83     5022.034   -65233.864   0.14584449 
   23300    287.53563   -466.41295    188798.98    -60217.71    4997.6866   -65215.397   0.14578725 
   23400    292.56667   -382.64992    188707.28   -60226.482    5085.1316   -65311.614     0.150902 
   23500    283.60905   -133.97272    188169.51   -60263.582    4929.4382    -65193.02   0.14741106 
   23600    285.90703    301.99973    187543.45   -60237.048    4969.3797   -65206.428   0.14791991 
   23700    289.97951    503.66102    187254.42   -60205.008    5040.1639   -65245.172   0.14741842 
   23800    288.76177    333.09954    187482.04    -60182.92    5018.9982   -65201.918   0.14674687 
   23900    292.28636   -11.135761    188060.08   -60208.056    5080.2594   -65288.316     0.142921 
   24000    290.08972   -346.41541    188589.52   -60221.741    5042.0794    -65263.82   0.15350565 
   24100    288.35486   -417.79662    188718.91   -60182.136    5011.9257   -65194.062   0.14478159 
   24200    293.05561   -239.29316    188412.97   -60201.116    5093.6298   -65294.745    0.1543784 
   24300    295.77174    112.01325     187908.1   -60213.763    5140.8392   -65354.602   0.14682418 
   24400    292.77208    306.62995    187539.93   -60223.157    5088.7018   -65311.859   0.14291949 
   24500     292.6258    314.75697    187521.32    -60218.82    5086.1592   -65304.979   0.15474804 
   24600     290.6034    162.22645    187829.39    -60203.95    5051.0078   -65254.958   0.14183451 
   24700    289.18257   -125.80997    188248.41   -60170.983    5026.3121   -65197.295   0.15209438 
   24800    289.23871   -271.65401    188501.52     -60132.9    5027.2879   -65160.188   0.15409352 
   24900    291.07614   -245.17622    188448.27    -60119.85    5059.2246   -65179.074   0.14847227 
   25000    292.36708   -50.215337     188159.7   -60148.515    5081.6624   -65230.177   0.14908771 
   25100    289.17183      145.052    187840.81   -60132.371    5026.1255   -65158.496   0.15352993 
   25200    288.54605    202.54061    187691.14   -60191.197    5015.2487   -65206.445   0.14614411 
   25300    287.10529    152.93063    187784.24   -60218.627    4990.2067   -65208.834   0.15331988 
   25400    288.91588    9.9877193    188025.52   -60235.234    5021.6768    -65256.91   0.14787809 
   25500    290.22661    -126.7063    188247.44   -60220.398    5044.4588   -65264.856   0.14511464 
   25600    293.15464   -165.06117    188320.88   -60267.441     5095.351   -65362.792   0.15029135 
   25700    287.72011   -112.76324    188202.48   -60245.386    5000.8929   -65246.279   0.15004345 
   25800    293.02182    38.575489    187993.78   -60240.042    5093.0426   -65333.085   0.14362952 
   25900    294.03513    139.45846    187834.68   -60232.065    5110.6551    -65342.72   0.15194816 
   26000    290.51604    123.30781    187814.11   -60228.851    5049.4893   -65278.341   0.14340242 
   26100    287.67462    43.337542    187939.31   -60287.266    5000.1023   -65287.368   0.14916575 
   26200    287.49664   -59.495302     188106.4    -60274.56    4997.0088   -65271.568   0.15347657 
   26300    287.04049   -126.72802    188201.89   -60315.453    4989.0805   -65304.533   0.14067764 
   26400    285.50621   -98.056338    188161.62   -60310.989     4962.413   -65273.402    0.1516371 
   26500    286.47451 -0.025471121    188021.31   -60308.206     4979.243   -65287.449   0.14853058 
   26600    284.38063     86.39914    187877.28   -60301.314    4942.8491   -65244.163   0.14517979 
   26700    288.78176     109.9466    187826.19   -60289.411    5019.3457   -65308.757   0.15224716 
   26800    292.54501    72.552642    187897.44   -60318.345    5084.7551     -65403.1   0.14361651 
   26900    288.36011   -4.8892272    188046.85   -60293.556    5012.0168   -65305.573   0.14551862 
   27000    289.27613   -81.733719     188174.4   -60314.222    5027.9384   -65342.161   0.14513079 
   27100    285.78369    -73.90813    188195.12   -60320.808    4967.2359   -65288.044   0.14481659 
   27200     287.4927   -37.182577    188096.35   -60290.486    4996.9404   -65287.427    0.1496391 
   27300    290.11254    10.261238     187937.1   -60297.364    5042.4761   -65339.841   0.15378233 
   27400     289.7323    123.91631    187818.11   -60270.362    5035.8671   -65306.229   0.14393217 
   27500    289.45771    125.19835    187822.15    -60261.13    5031.0944   -65292.224   0.15149448 
   27600    290.23305    39.493418    187936.59   -60280.266    5044.5706   -65324.836   0.15385129 
   27700    290.23841   -85.938489    188075.52   -60272.651    5044.6638   -65317.315   0.14468359 
   27800    285.65865   -111.76197    188154.73    -60256.09    4965.0626   -65221.152   0.15980342 
   27900    287.37055   -67.844193    188117.92   -60262.148    4994.8172   -65256.965   0.14734471 
   28000    285.98015   -56.075462    187999.63   -60257.899    4970.6506    -65228.55   0.15449354 
   28100    290.92824    83.036052    187871.49   -60279.608    5056.6538   -65336.261   0.15299269 
   28200    285.18996    68.901442    187813.54   -60284.644    4956.9161   -65241.561   0.15201025 
   28300    288.05742    68.155091    187856.69   -60302.276    5006.7558   -65309.031   0.15127323 
   28400    293.28118   -3.7129111    187979.01   -60270.898    5097.5506   -65368.448   0.15157044 
   28500    290.41261   -79.908291     188102.6   -60294.453    5047.6916   -65342.145   0.14839408 
   28600    293.71397   -74.630259    188147.63   -60291.277    5105.0728   -65396.349   0.14943052 
   28700    287.08886   -67.531075    188080.58   -60312.516    4989.9211   -65302.437   0.15225395 
   28800    291.02667    39.007222    187928.68   -60309.564    5058.3646   -65367.929   0.14088214 
   28900    289.49522     130.9742     187802.3   -60339.498    5031.7463   -65371.245   0.15371992 
   29000    286.92861    107.68871    187789.45   -60363.482    4987.1359   -65350.618   0.14968184 
   29100    284.10269     32.86474     187900.7    -60368.82    4938.0183   -65306.838    0.1464189 
   29200    287.19619   -72.369646    188069.42    -60395.68    4991.7867   -65387.466   0.15625474 
   29300    287.12915   -114.44128    188169.92   -60394.928    4990.6214    -65385.55   0.14437755 
   29400     284.7872   -123.11063    188130.95   -60379.931    4949.9157   -65329.846   0.14884129 
   29500    286.57728   -29.486173    187975.02   -60352.935    4981.0293   -65333.965   0.15324701 
   29600    287.12728    121.92128    187799.71   -60330.344    4990.5889   -65320.933   0.14552276 
   29700    290.19518    171.85157    187735.88   -60315.065    5043.9124   -65358.977   0.15031105 
   29800    285.55354    67.005327     187844.3   -60272.443    4963.2356   -65235.679   0.15125053 
   29900    291.73346   -24.311578    188061.49   -60253.075    5070.6494   -65323.724    0.1452522 
   30000    287.29371   -129.50761    188250.99   -60244.485    4993.4817   -65237.967   0.15570655 
   30100    292.73273   -147.69704    188281.87   -60240.412    5088.0178    -65328.43   0.14915543 
   30200    288.48497   -79.935784    188135.08   -60250.645    5014.1872   -65264.833   0.14836145 
   30300    290.06274    98.458873    187898.24   -60284.106    5041.6105   -65325.716   0.14953081 
   30400    287.67508    184.78531    187719.72   -60341.413    5000.1104   -65341.523   0.14319196 
   30500      286.301    133.82253    187725.17   -60320.221    4976.2273   -65296.448   0.14738507 
   30600    291.41997    36.420578    187920.35   -60273.426    5065.2006   -65338.627   0.15212464 
   30700    291.73472   -98.199925    188185.12   -60250.509    5070.6713    -65321.18   0.14404158 
   30800    293.64238    -195.9831    188350.36   -60237.683    5103.8286   -65341.512   0.15222989 
   30900    289.22627   -169.16761    188299.09   -60227.626    5027.0717   -65254.697   0.15246633 
   31000    291.89636   -7.9279375    188042.22   -60245.162    5073.4808   -65318.643   0.14200291 
   31100    286.96776    103.52786    187723.78   -60207.347    4987.8163   -65195.164   0.15984969 
   31200    288.50518    262.89873    187552.26   -60229.014    5014.5384   -65243.552   0.15084232 
   31300    290.54672    227.09499     187670.9   -60244.703    5050.0226   -65294.726   0.14468395 
   31400    285.85705   -62.825265    188030.69    -60240.55    4968.5109   -65209.061    0.1611099 
   31500     291.2349    -258.2239    188392.57   -60279.321     5061.984   -65341.305   0.14649327 
   31600    288.71531   -264.25988    188505.51   -60268.836    5018.1906   -65287.026   0.15089948 
   31700    293.05351   -154.69244    188270.09   -60212.555    5093.5933   -65306.148    0.1503762 
   31800    292.58623    94.124337    187810.89   -60248.493    5085.4715   -65333.965   0.14779747 
   31900    292.81959    317.69622    187423.21   -60218.993    5089.5276   -65308.521   0.15434813 
   32000    288.51973    375.02522    187377.94   -60219.365    5014.7913   -65234.156    0.1540969 
   32100    285.76028    116.54438    187741.73   -60252.675     4966.829   -65219.504   0.14861007 
   32200    289.76917   -169.94855    188295.39   -60226.247    5036.5079   -65262.755   0.15180626 
   32300    291.58084   -410.13445    188669.82   -60226.377    5067.9967   -65294.374   0.14852402 
   32400     285.5546   -414.68752    188595.59    -60244.89     4963.254   -65208.144   0.14880056 
   32500    283.50862   -131.95621    188091.08   -60222.859    4927.6927   -65150.552   0.16268771 
   32600    290.87314    293.61471    187471.88   -60236.052    5055.6962   -65291.748   0.14618495 
   32700    289.15237    509.65294    187160.72   -60234.485    5025.7872   -65260.273   0.15017183 
   32800    294.33279    370.11852    187370.01   -60221.627    5115.8287   -65337.456   0.15114253 
   32900    294.29017    17.230352    187969.59   -60216.322    5115.0879    -65331.41   0.14391244 
   33000    291.18774   -373.97162    188571.22   -60198.138    5061.1642   -65259.303   0.15494073 
   33100    288.66461   -474.35341    188768.51   -60205.198    5017.3094   -65222.507   0.15215879 
   33200    296.39383   -262.55103    188443.86   -60200.996    5151.6519   -65352.648   0.14430411 
   33300    292.73277    103.99798     187838.6    -60180.63    5088.0186   -65268.649   0.15252869 
   33400    294.28635    377.66489    187373.23   -60160.214    5115.0214   -65275.236   0.15034025 
   33500    295.68724    402.53257    187344.89   -60086.466    5139.3704   -65225.836   0.14988735 
   33600    295.37609    189.08639    187750.02   -60084.936    5133.9624   -65218.898   0.15227976 
   33700    295.59628   -164.78579    188302.47   -60112.958    5137.7895   -65250.748   0.14746918 
   33800    290.12212   -363.53091    188639.17    -60146.31    5042.6426   -65188.952   0.15086669 
   33900    289.74196   -319.12098    188562.19    -60149.48    5036.0349   -65185.515   0.15829527 
   34000    290.06501   -69.559653    188152.11   -60160.938      5041.65   -65202.588   0.14584734 
   34100    290.48484    151.10449    187689.22   -60176.775    5048.9471   -65225.723   0.15393098 
   34200    293.21104    324.06691     187469.3   -60219.934    5096.3314   -65316.265   0.14893237 
   34300    289.94385    235.54952    187598.74   -60244.487     5039.544   -65284.031   0.14809883 
   34400    288.18101    27.704159    187952.04   -60266.738     5008.904   -65275.642   0.15490826 
   34500    285.48729   -194.49311    188284.93   -60260.011    4962.0841   -65222.095   0.15096721 
   34600    293.57049   -210.57262    188396.62   -60230.152     5102.579   -65332.731   0.14426076 
   34700    289.80878   -116.82834    188242.89    -60257.74    5037.1964   -65294.937   0.15613942 
   34800    287.89802    29.798141    187938.21   -60297.435    5003.9852    -65301.42   0.14729272 
   34900    285.56602    187.47673    187691.07   -60286.855    4963.4526   -65250.308   0.15216296 
   35000    288.42348    219.92473    187647.01   -60307.565    5013.1183   -65320.684   0.15157515 
   35100    291.43681     97.95907    187825.47   -60310.462    5065.4933   -65375.955   0.14303115 
   35200    284.81591   -115.15375    188094.35   -60314.217    4950.4147   -65264.631   0.15235813 
   35300    284.26858   -149.49093    188261.36   -60271.979    4940.9015   -65212.881   0.14978426 
   35400    288.91844   -164.84568    188236.25   -60258.873    5021.7213   -65280.595   0.14719926 
   35500    293.28776    17.322611    188043.41   -60276.632    5097.6649   -65374.297   0.14473243 
   35600    287.14412    95.153376    187826.21   -60262.256    4990.8816   -65253.138   0.14845236 
   35700    288.67518    171.95732    187730.79   -60252.214    5017.4932   -65269.707   0.14606147 
   35800     290.4839    120.59387    187819.97   -60261.805    5048.9307   -65310.735   0.15317445 
   35900    290.41316   0.57179806    188032.71   -60238.723    5047.7011   -65286.424   0.14153403 
   36000    291.51841   -124.45277    188236.66   -60257.736    5066.9116   -65324.648   0.14591427 
   36100    291.04496   -124.63965    188297.53   -60255.246    5058.6826   -65313.929   0.14984669 
   36200    290.74352   -116.67171    188172.72   -60271.695    5053.4432   -65325.138   0.14202673 
   36300      286.129   -3.1665221     187942.9   -60293.071    4973.2377   -65266.309   0.15270952 
   36400    291.59389    155.31338    187750.43   -60272.888    5068.2236   -65341.112   0.14594972 
   36500    294.63537    184.15677    187717.55   -60225.195    5121.0878   -65346.283   0.14316834 
   36600    288.55536    43.597245    187869.45     -60277.5    5015.4106    -65292.91   0.15251708 
   36700    288.85611   -66.885716    188099.82   -60299.656    5020.6379   -65320.294   0.14588886 
   36800    287.56391   -137.14735    188258.61   -60280.226     4998.178   -65278.404   0.14598869 
   36900    291.60657   -151.33837    188242.54   -60282.764     5068.444   -65351.208    0.1470936 
   37000    289.34955   -36.435597    188059.15   -60298.468    5029.2144   -65327.682   0.14589676 
   37100    291.60298    143.12145    187833.03   -60254.327    5068.3815   -65322.709   0.14466137 
   37200    289.06902    137.20841    187726.68   -60268.117    5024.3385   -65292.455   0.15349297 
   37300    292.93467    156.07896    187811.26    -60270.22    5091.5279   -65361.748   0.13788113 
   37400    289.38192    7.5495461    188039.18   -60249.796     5029.777   -65279.573   0.14678229 
   37500    291.84257   -159.41643    188264.75   -60238.642     5072.546   -65311.188   0.14910657 
   37600    287.81734   -200.62372    188330.13   -60271.703    5002.5829   -65274.286    0.1441855 
   37700    292.93754   -100.42029    188189.23   -60275.647    5091.5778   -65367.224   0.15151765 
   37800    291.97798    56.050734    187933.47    -60241.35    5074.8994   -65316.249    0.1428365 
   37900    288.64895    162.48937    187733.11   -60285.676    5017.0372   -65302.713   0.14547647 
   38000    284.43172    171.86104    187710.87   -60312.183    4943.7371    -65255.92   0.14926194 
   38100    287.82052    111.05882    187885.62   -60304.781    5002.6382    -65307.42   0.14247516 
   38200    288.05504   -104.42334    188143.06   -60296.312    5006.7145   -65303.026   0.14673307 
   38300    285.69455    -211.6414    188300.85   -60292.164    4965.6866   -65257.851   0.15091799 
   38400    291.27897   -168.27592    188260.34   -60257.373    5062.7498   -65320.122   0.14378235 
   38500    289.05709   -70.810672    188062.31   -60252.451    5024.1311   -65276.582   0.15183802 
   38600    286.98695    94.815634    187822.27   -60268.372    4988.1499   -65256.522   0.14936143 
   38700     286.1586    164.16349    187697.59     -60273.3    4973.7522   -65247.053   0.14671937 
   38800    285.20604    147.38731    187773.66   -60294.422    4957.1957   -65251.618    0.1462193 
   38900    286.26278    7.6664033    187999.85   -60329.777     4975.563    -65305.34   0.14467582 
   39000    287.35896    -146.6348    188235.55   -60336.735    4994.6159   -65331.351   0.14182515 
   39100    290.75642   -188.78669    188328.91   -60345.971    5053.6674   -65399.638   0.14752191 
   39200    288.07359   -110.08131    188212.55   -60355.027    5007.0368   -65362.064   0.13761358 
   39300    283.80919    66.332919    187961.74   -60327.462    4932.9168   -65260.379   0.14205294 
   39400    288.87594    172.95513    187751.05   -60350.575    5020.9825   -65371.557   0.14596057 
   39500    282.62578    170.16428    187720.87    -60392.18    4912.3478   -65304.528   0.14222496 
   39600    285.30746    76.245573    187881.38    -60423.25    4958.9585   -65382.209   0.14711228 
   39700    284.68351   -59.291403    188119.95   -60431.459    4948.1135   -65379.572   0.14152101 
   39800     284.8272   -175.84427    188279.74   -60408.011    4950.6111   -65358.622   0.14012211 
   39900    288.13359   -138.42857    188252.74   -60425.363    5008.0797   -65433.443   0.14427687 
   40000    284.67933   -29.055667    188045.98   -60438.779    4948.0409    -65386.82   0.14074422 
   40100    286.02041    121.85657    187791.49   -60402.466    4971.3504   -65373.817   0.14375522 
   40200    284.33105    220.71559    187672.37   -60411.768    4941.9874   -65353.755   0.14205902 
   40300    287.00865    124.78126    187774.15   -60398.216    4988.5271   -65386.743   0.14256871 
   40400    289.20041   -1.7443699    188033.52   -60398.777    5026.6222   -65425.399   0.13935252 
   40500    285.18436   -188.43224    188287.66    -60381.39    4956.8189   -65338.209   0.14929534 
   40600    287.44692   -194.94503    188363.85   -60415.708    4996.1446   -65411.852   0.14036233 
   40700    280.35272   -121.42451    188209.62   -60413.243    4872.8395   -65286.083   0.14223769 
   40800    281.21209    27.972045     187920.1   -60449.423    4887.7764   -65337.199   0.14711031 
   40900    285.80824    225.88894     187679.8    -60412.06    4967.6625   -65379.723   0.13540747 
   41000      287.555    258.70468    187658.24   -60395.641    4998.0232   -65393.665   0.14355586 
   41100    285.60956    48.542391    187880.73   -60422.243    4964.2093   -65386.452   0.14001906 
   41200    287.99124   -101.21353    188202.72   -60389.728    5005.6055   -65395.334   0.14001875 
   41300    285.47416   -253.37668    188418.21   -60377.038    4961.8558   -65338.894   0.14736399 
   41400    288.71486   -193.93233    188378.15   -60368.985    5018.1829   -65387.168   0.14003171 
   41500    289.64955   -53.033734    188097.78   -60376.277    5034.4289   -65410.706   0.14472956 
   41600    284.77711    169.35539    187754.78   -60377.153    4949.7403   -65326.893   0.14414448 
   41700    285.57028    251.13901    187584.22   -60360.985    4963.5265   -65324.512   0.14101172 
   41800    287.23609     199.1689     187720.4   -60389.696    4992.4801   -65382.176   0.14033526 
   41900     289.1371   -8.1576697       188094   -60321.159    5025.5219   -65346.681   0.14528561 
   42000    287.21685   -228.36407    188473.59   -60342.532    4992.1457   -65334.677   0.13917334 
   42100    286.68044   -360.88163    188601.94   -60362.063    4982.8223   -65344.885   0.14596643 
   42200     286.3448   -172.60047    188371.53   -60353.979    4976.9885   -65330.967   0.14025863 
   42300    284.03338    38.192132     187924.5   -60435.886    4936.8135   -65372.699   0.13962655 
   42400    286.64222    292.05897    187536.73   -60449.917     4982.158   -65432.075   0.14281871 
   42500    290.55585    329.90856    187465.26   -60436.471    5050.1814   -65486.653   0.13779733 
   42600     284.3798    162.30027    187770.64   -60468.594    4942.8348   -65411.429   0.13648028 
   42700    283.71828   -141.78722    188260.52   -60486.245    4931.3368   -65417.582   0.14057547 
   42800    287.46061   -334.01216    188612.79   -60454.535    4996.3826   -65450.918   0.13363938 
   42900    286.23703   -341.07933    188589.35   -60442.187    4975.1154   -65417.302   0.14473562 
   43000    285.41825   -82.676351    188189.51   -60431.901    4960.8841   -65392.785   0.14054965 
   43100    285.48819    216.56425    187669.42   -60448.322    4962.0998   -65410.421   0.13760784 
   43200    285.74824    404.10719    187376.34   -60432.904    4966.6197   -65399.524   0.14372652 
   43300    285.41396    303.20558    187508.04   -60424.137    4960.8096   -65384.946    0.1426796 
   43400     282.8299    4.6513998    187979.77   -60435.938    4915.8958   -65351.834    0.1419955 
   43500    286.11521   -271.19929    188481.02   -60404.753     4972.998   -65377.751   0.14729664 
   43600    285.16269   -364.01447    188679.39   -60438.171    4956.4423   -65394.613    0.1390219 
   43700    285.15577   -258.12614    188445.99   -60369.311     4956.322   -65325.633   0.14327848 
   43800    286.75487    45.471273    187945.19   -60394.633     4984.116   -65378.749   0.14337931 
   43900    282.84471    274.19488    187503.51   -60386.104    4916.1531   -65302.257   0.14395194 
   44000    287.20279    381.88376    187397.19   -60418.786    4991.9014   -65410.687   0.14256206 
   44100    287.75954    190.23203    187685.57   -60410.164    5001.5782   -65411.742   0.14565259 
   44200    284.03478   -94.018986    188167.31   -60449.115    4936.8378   -65385.953   0.13857492 
   44300    284.88483   -312.16829    188520.17   -60416.514    4951.6127   -65368.127   0.14640073 
   44400    283.48216   -331.10513    188513.99   -60415.556    4927.2327   -65342.788   0.14862922 
   44500    283.09019   -100.61854    188177.96   -60385.646    4920.4199   -65306.066   0.14195684 
   44600    289.28187    125.04943    187755.67   -60358.873    5028.0381   -65386.911   0.14823075 
   44700    286.19794    281.33683    187524.25   -60358.387    4974.4361   -65332.823   0.14043882 
   44800     284.2745    280.22454    187618.18   -60334.639    4941.0044   -65275.644   0.14819144 
   44900     285.6976    13.830797    187956.19   -60301.679    4965.7395   -65267.418   0.14739473 
   45000     287.0037   -205.32044    188291.62    -60367.04     4988.441   -65355.481   0.14468289 
   45100    286.19752   -264.59157    188409.36   -60378.293    4974.4286   -65352.721   0.14565237 
   45200    286.28994   -176.13287    188249.05   -60369.937     4976.035   -65345.972   0.14753797 
   45300    283.55611    21.885084    187929.67   -60409.554    4928.5181   -65338.073   0.14242722 
   45400    288.96359    202.26049    187664.26   -60423.071     5022.506   -65445.577   0.14254818 
   45500    285.13764    225.34157    187620.61    -60396.88    4956.0068   -65352.886   0.14265596 
   45600    286.35199    124.70417    187807.33   -60413.735    4977.1136   -65390.849   0.13772658 
   45700    286.92336   -23.660976    188084.86   -60409.759    4987.0446   -65396.804    0.1449301 
   45800    285.26927   -171.84029    188278.93   -60381.485    4958.2947   -65339.779   0.14516084 
   45900    285.39439   -179.18178    188281.77   -60396.598    4960.4694   -65357.068   0.14406413 
   46000    285.29799   -89.578916    188092.16   -60388.169    4958.7939   -65346.963   0.14491627 
   46100    284.23175    60.875094    187837.97   -60392.788    4940.2615   -65333.049   0.14031266 
   46200    284.51826    160.63455    187677.69   -60423.483    4945.2413   -65368.724   0.14920732 
   46300     283.6944    176.73944    187700.22   -60414.286    4930.9217   -65345.208   0.14368635 
   46400    286.44458    38.999385    187889.86   -60396.159    4978.7228   -65374.882   0.14175288 
   46500    289.50607   -88.915105    188125.39   -60419.719     5031.935   -65451.654   0.14463976 
   46600     288.5084   -151.03168    188247.97   -60398.664    5014.5943   -65413.258    0.1386907 
   46700    284.62587    -116.1005    188187.27   -60369.621    4947.1117   -65316.732   0.14628617 
   46800    284.55097   -30.703845    187997.96   -60363.643    4945.8098   -65309.453   0.14975338 
   46900    283.42522    114.87103    187811.49   -60339.067    4926.2431   -65265.311   0.14480296 
   47000    288.34333    159.87917    187761.72   -60318.166    5011.7252   -65329.891   0.14462786 
   47100    288.32345    81.318578    187881.76   -60303.352    5011.3797   -65314.732   0.14839286 
   47200    287.39267   -64.378112    188077.22   -60300.798    4995.2017       -65296    0.1421786 
   47300    288.96047   -115.11432    188224.45   -60252.555    5022.4518   -65275.007   0.15186245 
   47400    287.71175   -119.97632    188238.17   -60231.039    5000.7477   -65231.786   0.14779396 
   47500    290.00497   -56.103052    188119.35   -60199.468    5040.6064   -65240.075   0.14791437 
   47600    294.88843    74.511392    187955.94    -60184.29    5125.4864   -65309.776   0.14766538 
   47700    289.31412     126.8527    187855.15   -60194.076    5028.5987   -65222.674   0.14539478 
   47800    291.68201      137.444    187879.21   -60136.899    5069.7552   -65206.654   0.14375303 
   47900    297.68085    78.948471    188012.81   -60143.342    5174.0216   -65317.364   0.14702076 
   48000    291.24888   -66.045974    188170.84   -60159.593    5062.2269    -65221.82   0.14675381 
   48100    293.08866   -147.32805    188249.43   -60155.719    5094.2043   -65249.923   0.15207575 
   48200    289.10367   -117.64049    188190.42   -60171.354    5024.9408   -65196.294   0.15045971 
   48300    293.03874    16.116352     188028.5   -60154.296    5093.3366   -65247.632   0.14251723 
   48400    292.85648    98.396971    187869.51   -60160.139    5090.1687   -65250.308   0.15014132 
   48500    291.29891    139.76406    187807.79   -60224.722    5063.0965   -65287.819   0.14701067 
   48600    291.05461     103.4273    187879.81   -60211.232    5058.8502   -65270.083   0.14105628 
   48700    294.25038    21.472279    188041.39   -60173.883    5114.3963    -65288.28   0.14748522 
   48800    287.68153   -66.122502    188193.14   -60152.388    5000.2224    -65152.61   0.14637963 
   48900    288.32846   -111.42164    188255.17   -60150.409    5011.4668   -65161.876   0.14400654 
   49000     291.5326   -80.819881    188186.39   -60148.004    5067.1583   -65215.162   0.15009541 
   49100    295.36375   -19.694266    188036.73   -60160.653    5133.7479   -65294.401   0.14661078 
   49200     294.1711    80.177411     187894.2   -60168.756    5113.0183   -65281.774    0.1478506 
   49300    290.35817    74.198188    187846.82   -60150.487    5046.7453   -65197.232    0.1551608 
   49400    296.80961    136.23888    187923.67   -60151.652    5158.8786   -65310.531   0.13672017 
   49500    292.41601     -55.2347    188101.15     -60173.3    5082.5129   -65255.813   0.15036297 
   49600    289.76201   -145.16075    188255.46   -60176.531    5036.3835   -65212.914   0.14884771 
   49700    292.12724   -128.22971    188282.09   -60156.136    5077.4937   -65233.629   0.14475346 
   49800     289.4001    -58.90426     188149.8   -60200.704    5030.0931   -65230.797    0.1528906 
   49900    289.69416    68.182604    187931.44   -60174.753    5035.2041   -65209.958   0.14405235 
   50000    296.29514    163.34057    187776.13   -60171.444    5149.9364    -65321.38   0.14749011 
   50100    292.02385    157.67928    187780.79   -60195.624    5075.6967   -65271.321   0.15002214 
   50200    293.04626    26.874798    187946.34     -60197.4    5093.4674   -65290.867   0.14699421 
   50300    293.13067   -89.889302     188169.5   -60202.531    5094.9345   -65297.466   0.14612176 
   50400    289.66971   -192.46878    188306.41    -60201.65    5034.7793   -65236.429   0.15278272 
   50500    291.67351   -110.50708       188250   -60210.623    5069.6074    -65280.23   0.14201341 
   50600    284.82996    1.0255255    188034.82   -60251.638    4950.6589   -65202.297   0.15219076 
   50700    289.51669    150.10318    187792.67   -60233.567    5032.1194   -65265.687   0.15039147 
   50800    288.00427    181.02693    187687.67    -60251.26    5005.8319   -65257.092   0.14621287 
   50900    288.23426    107.92536    187793.27   -60197.756    5009.8295   -65207.586   0.15495052 
   51000     291.6727    2.4893095    188046.09   -60200.108    5069.5933   -65269.701   0.14858495 
   51100    288.72696   -153.43516    188280.27    -60243.55    5018.3932   -65261.943   0.14672748 
   51200     291.0002    -190.7022     188333.6   -60206.931    5057.9045   -65264.835   0.15364844 
   51300    291.90684   -83.540288    188167.03   -60168.548     5073.663   -65242.211   0.14427469 
   51400     292.0778    58.552734    187886.19    -60170.06    5076.6345   -65246.695   0.15223913 
   51500    289.72107    197.96328    187674.73   -60182.059    5035.6718   -65217.731   0.15358811 
   51600    290.06362    173.80162    187671.21   -60175.114    5041.6258    -65216.74    0.1502097 
   51700    293.44004    84.495547    187897.45   -60167.141    5100.3117   -65267.453   0.15186229 
   51800    292.70662   -117.84947    188209.15   -60187.288     5087.564   -65274.852   0.15010095 
   51900    291.81486   -239.53954    188405.23   -60134.875    5072.0642   -65206.939   0.14793386 
   52000    289.64217   -235.96382    188349.36   -60105.673    5034.3005   -65139.973   0.15858151 
   52100    292.68392   -29.981669    188055.21   -60095.076    5087.1694   -65182.246   0.15260461 
   52200    294.74404    205.35428    187715.75   -60106.137    5122.9767   -65229.114   0.14511523 
   52300    297.77239    307.30653    187574.96   -60081.456    5175.6126   -65257.069   0.15220341 
   52400    296.62557    212.04442    187739.92   -60076.264    5155.6797   -65231.944   0.14605252 
   52500    292.90813    -42.72778    188123.22    -60130.95    5091.0665   -65222.017   0.14969793 
   52600    292.10272   -260.08199    188478.66    -60094.19    5077.0676   -65171.257   0.15506455 
   52700     294.7592   -264.51374    188569.87   -60099.075    5123.2402   -65222.316   0.14472243 
   52800    292.00322   -138.93395    188319.23   -60114.447    5075.3382   -65189.785   0.14967458 
   52900    289.06195    111.36382    187864.87   -60107.987    5024.2156   -65132.203   0.15297343 
   53000    292.49977    295.83543    187518.48   -60128.507    5083.9688   -65212.476   0.14835379 
   53100    290.88107    313.05689    187520.14   -60142.229    5055.8339   -65198.063    0.1554123 
   53200    290.50257    95.510091    187886.77   -60159.689    5049.2552   -65208.944   0.14442246 
   53300    291.51856   -197.68388    188403.36   -60189.472    5066.9142   -65256.386   0.14629682 
   53400    290.58397   -433.96954    188714.04   -60169.342    5050.6701   -65220.012   0.15505664 
   53500    292.34605   -343.22154    188586.45   -60185.387    5081.2969   -65266.684   0.15032426 
   53600    291.89387   -28.820971    188080.11   -60184.356    5073.4376   -65257.793   0.14880049 
   53700    291.72603    325.54182    187528.24   -60159.737    5070.5203   -65230.257   0.15035664 
   53800    290.10391    431.42237    187302.67   -60162.281     5042.326   -65204.607   0.14619932 
   53900    297.22399    291.58231     187564.6   -60158.595    5166.0808   -65324.675   0.15131097 
   54000    293.76396   -87.469912    188153.65   -60151.511    5105.9417   -65257.453   0.15212734 
   54100    289.89202   -371.90177    188675.38   -60148.857    5038.6432     -65187.5   0.14823104 
   54200    290.25021   -439.46754    188787.01    -60195.32     5044.869   -65240.188   0.15198939 
   54300    291.20079   -217.99976    188397.47   -60200.781     5061.391   -65262.172   0.14481347 
   54400    292.84856     162.0537    187759.05   -60201.097    5090.0311   -65291.128   0.14388491 
   54500    290.80323    414.89583    187303.05   -60192.001     5054.481   -65246.482   0.15591763 
   54600    291.30694    396.58324    187319.99   -60161.983     5063.236   -65225.219   0.14714788 
   54700    289.65624    159.75528    187789.78   -60154.077     5034.545   -65188.622   0.14963162 
   54800    293.90548    -209.8176    188391.61   -60118.313    5108.4016   -65226.715   0.15450669 
   54900    294.65124   -422.79074    188727.16   -60122.288    5121.3638   -65243.651   0.14815436 
   55000    294.29744   -327.84837    188587.14   -60153.517    5115.2142   -65268.731   0.14969552 
   55100    289.46308   -74.955372    188080.79   -60177.712    5031.1878     -65208.9   0.14856859 
   55200    298.63585    280.36047    187567.69   -60155.591    5190.6206   -65346.212   0.14660641 
   55300    290.62443    351.78038    187382.69   -60197.701    5051.3732   -65249.075   0.15442449 
   55400    294.85459    282.41357    187606.51   -60200.252    5124.8981    -65325.15   0.14321488 
   55500    289.59012   -11.631032    188068.83   -60236.808    5033.3959   -65270.204   0.14249313 
   55600     284.8091   -268.79509    188443.81   -60224.641    4950.2964   -65174.937   0.15360746 
   55700    286.84579   -297.97549    188511.77    -60202.44    4985.6963   -65188.137   0.14627822 
   55800    292.63455   -156.55749    188272.07   -60218.084    5086.3113   -65304.396   0.14920412 
   55900    293.84848    67.450742    187907.24   -60209.198    5107.4108   -65316.609   0.14902198 
   56000    292.03534    214.91547    187656.02   -60190.869    5075.8964   -65266.765   0.14143052 
   56100     289.7949    209.20626    187661.69   -60207.836    5036.9551   -65244.791   0.14658502 
   56200    291.39058    75.102212    187891.88   -60218.631    5064.6899   -65283.321   0.14740982 
   56300    288.03929   -103.00547    188188.38   -60206.882    5006.4407   -65213.323   0.14767594 
   56400    289.14091   -238.94802    188368.25   -60229.764     5025.588   -65255.352   0.15374337 
   56500    289.81447    -181.2297    188319.11   -60230.169    5037.2952   -65267.464   0.14386546 
   56600    292.67785     2.586177    188090.09   -60236.209     5087.064   -65323.273    0.1409296 
   56700    290.58586    140.70864    187834.83    -60221.01    5050.7029   -65271.712   0.14744205 
   56800    289.59494     175.0509    187709.21   -60173.453    5033.4795   -65206.933   0.14508139 
   56900    290.93306     118.9714    187800.48   -60185.201    5056.7376   -65241.938   0.15285864 
   57000    290.12235   -36.345762    188043.35   -60197.062    5042.6465   -65239.709   0.15035416 
   57100    292.15887   -164.19629    188262.85   -60200.485    5078.0436   -65278.528    0.1473716 
   57200    295.39483   -165.97311    188305.13   -60215.114     5134.288   -65349.402   0.14506398 
   57300     292.4461   -98.866884    188150.24   -60234.102     5083.036   -65317.138   0.15013548 
   57400     292.5091    59.437228    187904.51   -60256.438    5084.1309   -65340.568   0.14278965 
   57500    286.81555    133.82163     187734.2   -60219.199    4985.1708    -65204.37    0.1544501 
   57600    289.00696    184.78206    187741.28   -60222.004    5023.2598   -65245.264   0.14749776 
   57700    291.86483    57.915799    187918.09   -60254.365    5072.9328   -65327.298   0.14452244 
   57800    291.96793   -82.888487    188144.76   -60275.838    5074.7248   -65350.563   0.14657118 
   57900    292.68873   -160.59509    188264.88   -60264.361    5087.2532   -65351.615   0.14303956 
   58000    286.98047   -143.61661    188210.82   -60282.936    4988.0372   -65270.974   0.14962616 
   58100    285.31896    -76.81286    188016.86    -60325.23    4959.1583   -65284.388   0.15337386 
   58200    289.16177    120.46942    187801.58   -60308.928    5025.9506   -65334.879   0.13997958 
   58300    286.05767    157.14521     187695.3   -60336.443    4971.9979   -65308.441   0.14768546 
   58400    288.51069    116.49513    187757.69   -60297.536    5014.6342   -65312.171   0.14287305 
   58500    286.27875   -11.486723    187962.72   -60286.494    4975.8405   -65262.335   0.14693946 
   58600    280.59269   -157.19627    188180.59   -60302.101    4877.0105   -65179.112   0.15455142 
   58700    287.38049   -187.47005    188247.74   -60343.105      4994.99   -65338.095    0.1467774 
   58800    287.85636   -107.76512    188120.89   -60328.222    5003.2612   -65331.483   0.14538513 
   58900    289.36033    60.764156    187888.37   -60340.112    5029.4018   -65369.514    0.1442082 
   59000    284.08646    177.39941    187699.51    -60382.27    4937.7362   -65320.006   0.14228866 
   59100    286.55815    155.59949    187675.99   -60375.737    4980.6969   -65356.434   0.14440864 
   59200    290.35358      74.5767    187833.37   -60301.215    5046.6656   -65347.881   0.15296781 
   59300    289.24533   -83.053438    188082.06    -60300.36    5027.4029   -65327.763   0.14604125 
   59400    292.02686   -145.73982    188276.22   -60262.536     5075.749   -65338.285   0.14741669 
   59500    290.64622   -177.13645    188293.99   -60270.377     5051.752   -65322.129   0.14627768 
   59600    290.52884   -61.688104    188126.16   -60280.237    5049.7118   -65329.949   0.14115369 
   59700    288.19359    110.10296    187890.57    -60272.35    5009.1227   -65281.473   0.14815165 
   59800    289.44106    181.04563    187757.76   -60255.656    5030.8049   -65286.461   0.14651939 
   59900    289.72901    162.19615    187810.85     -60245.1    5035.8099    -65280.91   0.14345939 
   60000    291.43726    3.2479355       188014    -60226.42    5065.5012   -65291.921    0.1502647 
   60100    294.99183   -116.17037    188228.74   -60189.293    5127.2835   -65316.576   0.14268018 
   60200    291.47834   -175.04403    188310.51   -60211.404    5066.2151   -65277.619   0.14930423 
   60300    292.79553   -74.227587     188200.2   -60170.797    5089.1093   -65259.906   0.14929029 
   60400     293.1939    27.872571     187978.1   -60160.072    5096.0336   -65256.105   0.14854498 
   60500    291.33032    155.13216    187791.67   -60193.502    5063.6425   -65257.145   0.14826473 
   60600    293.55923    176.36872    187760.96   -60217.784    5102.3833   -65320.168   0.14652694 
   60700    293.76752    107.45608    187907.42   -60200.727    5106.0037   -65306.731   0.14184402 
   60800    291.05837   -57.935631    188147.53   -60170.036    5058.9157   -65228.952   0.14857267 
   60900    292.34698   -162.72067    188328.33   -60183.438    5081.3131   -65264.751   0.14988387 
   61000    288.38844   -187.14779    188332.78   -60207.841    5012.5093    -65220.35    0.1475266 
   61100    290.48382   -68.744985     188144.8   -60196.829    5048.9294   -65245.758   0.15370633 
   61200    290.25897    99.067716    187873.53   -60216.246    5045.0211   -65261.267   0.14307714 
   61300    286.24867    177.49559    187692.36   -60222.407    4975.3177   -65197.725   0.14912522 
   61400    288.88631    183.40175    187719.58   -60214.259    5021.1628   -65235.422   0.15034017 
   61500    290.63272    41.590961    187952.16   -60207.377    5051.5174   -65258.895   0.14546512 
   61600    290.40564   -141.50561    188246.86   -60193.835    5047.5704   -65241.405   0.15066212 
   61700    289.43414   -225.73949    188405.76   -60179.712    5030.6846   -65210.396   0.14971698 
   61800    294.28405   -196.34494     188316.4   -60214.547    5114.9814   -65329.528   0.14352638 
   61900    287.12215   -25.947189    188029.61   -60221.917    4990.4998   -65212.417   0.15119644 
   62000    285.24416    144.60567    187726.05   -60239.003    4957.8583   -65196.861    0.1509431 
   62100     290.7514     225.5949     187605.1    -60243.57    5053.5802   -65297.151   0.14628064 
   62200     287.8209    150.06692       187753   -60206.342    5002.6447   -65208.987   0.14846007 
   62300    290.16601   -3.9321095     188082.9   -60198.398    5043.4054   -65241.804   0.14532548 
   62400    288.99652   -201.94763    188385.28   -60199.305    5023.0784   -65222.383   0.14485118 
   62500    291.01684   -283.97839    188464.16   -60208.841    5058.1938   -65267.035   0.15349803 
   62600    292.83542   -123.07925    188244.59   -60232.443    5089.8027   -65322.246   0.14168215 
   62700    290.52915    62.829405    187863.32   -60232.105    5049.7172   -65281.822   0.14989485 
   62800    291.77082      274.125    187556.68   -60158.635    5071.2988   -65229.934   0.15107952 
   62900    291.99551    278.31429    187533.55   -60142.022    5075.2042   -65217.226   0.14744824 
   63000    292.95124    87.189085    187819.24   -60145.056    5091.8158   -65236.872   0.15245374 
   63100    293.02658   -131.71685     188237.9    -60155.29    5093.1253   -65248.415   0.14673238 
   63200    292.41406   -295.21709    188513.67   -60151.073    5082.4791   -65233.552   0.14651842 
   63300    292.77006   -250.19022    188453.51   -60110.506    5088.6666   -65199.173   0.15042828 
   63400    291.37415   -57.541582    188098.62   -60110.104    5064.4043   -65174.508   0.15068595 
   63500    294.10183    225.27897    187680.18   -60080.057    5111.8144   -65191.871   0.14819425 
   63600    296.03631     321.4061    187483.14   -60090.976    5145.4377   -65236.414   0.15045095 
   63700    291.79732    202.27639    187632.67     -60119.6    5071.7594   -65191.359   0.14966969 
   63800    291.54643   -36.442875     188031.2   -60150.036    5067.3987   -65217.434   0.15323992 
   63900    294.58217   -241.28321    188404.07   -60114.511    5120.1631   -65234.674   0.15099668 
   64000    294.14161   -293.27583    188502.06   -60130.959    5112.5058   -65243.465   0.14771392 
   64100    291.70686   -164.39947    188264.44    -60145.18    5070.1871   -65215.367   0.14951922 
   64200    294.83699    98.779074    187842.79   -60129.175    5124.5921   -65253.767   0.15057103 
   64300    294.56423    299.91194    187522.17   -60129.053    5119.8513   -65248.905   0.14492854 
   64400    290.82367    266.12164    187524.24    -60131.39    5054.8363   -65186.226   0.15426254 
   64500    292.70477    103.66897    187846.33   -60202.963    5087.5319   -65290.495   0.14272405 
   64600    292.99817   -129.86102    188271.35   -60151.119    5092.6314   -65243.751    0.1475688 
   64700    286.57518   -310.45229       188516   -60173.563    4980.9928   -65154.556   0.15457815 
   64800    290.96483   -253.37634    188425.02   -60172.867    5057.2898   -65230.157   0.14896155 
   64900    293.96748   -18.604513    188081.76    -60167.75    5109.4791   -65277.229   0.14710628 
   65000    293.68467    189.95913    187720.22   -60196.305    5104.5636   -65300.869    0.1468941 
   65100    293.52582    288.21649    187576.29   -60181.825    5101.8026   -65283.628   0.14297473 
   65200    290.35265     162.7447    187740.13   -60210.318    5046.6494   -65256.968   0.15259876 
   65300    286.31289   -47.665787    188085.71   -60208.285    4976.4339   -65184.719   0.15048325 
   65400    289.34477   -232.79222    188376.59   -60240.635    5029.1314   -65269.766   0.14913365 
   65500    288.60371   -242.55725    188415.87   -60250.673     5016.251   -65266.924   0.14605731 
   65600     288.0948   -102.89935    188184.85    -60231.66    5007.4054   -65239.066   0.14862848 
   65700    292.39974    96.429562    187839.95   -60252.399    5082.2301   -65334.629   0.14510415 
   65800    291.18575    270.13387    187615.05   -60235.101    5061.1297   -65296.231   0.14905254 
   65900    289.39959    257.37149    187653.87   -60215.808    5030.0842   -65245.892   0.14371933 
   66000    289.47452    40.505522    187931.38   -60226.421    5031.3865   -65257.807   0.14541968 
   66100    289.28738   -111.17692    188252.07   -60263.991    5028.1338   -65292.125   0.14627826 
   66200    290.16797   -233.48233    188398.66   -60252.589    5043.4395   -65296.029   0.14050855 
   66300    287.29655   -167.28415    188296.91   -60270.524    4993.5311   -65264.055   0.15055441 
   66400    288.30996   -17.246183    188033.06   -60284.045    5011.1452    -65295.19   0.14497859 
   66500    289.81408    130.76184    187776.04   -60296.163    5037.2886   -65333.452   0.14268407 
   66600    289.26374    178.12574    187679.52   -60298.613     5027.723   -65326.336   0.14766113 
   66700    286.79984    123.97977    187787.74   -60304.281    4984.8977   -65289.178   0.14566968 
   66800    289.28441    7.3586071    188015.97   -60291.705    5028.0822   -65319.787   0.14310787 
   66900    287.26527   -129.14177    188213.46    -60299.01    4992.9874   -65291.997   0.14472894 
   67000    287.06715   -161.18167    188264.79   -60281.171    4989.5438   -65270.715    0.1462525 
   67100    288.32406   -57.265445    188155.16   -60278.224    5011.3903   -65289.614   0.14498446 
   67200    285.40789    21.860825    187967.78   -60329.387     4960.704   -65290.091   0.14610627 
   67300    287.96995    114.78477    187818.43   -60333.139    5005.2356   -65338.374   0.14064097 
   67400    285.98278    122.38447    187794.08   -60335.948    4970.6962   -65306.645   0.14594637 
   67500    286.09625    55.226723    187890.97   -60305.362    4972.6685   -65278.031   0.14800405 
   67600    288.83682   -28.550409    188042.95   -60290.318    5020.3027   -65310.621   0.14250858 
   67700    289.35054   -98.650514    188160.13   -60277.718    5029.2317   -65306.949   0.14881826 
   67800    289.02559   -117.38358    188169.55   -60222.772    5023.5837   -65246.356   0.14350797 
   67900    289.01659   -33.944448    188070.13   -60227.255    5023.4272   -65250.682   0.14378109 
   68000    289.36744    37.327654    187936.08   -60234.484    5029.5254   -65264.009   0.15005583 
   68100    287.55995     67.76366    187853.32   -60263.143    4998.1093   -65261.252   0.14752806 
   68200    290.45281    72.110677    187864.59   -60313.836    5048.3902   -65362.226    0.1460895 
   68300    289.19439    22.867618    187947.77   -60274.451    5026.5176   -65300.968      0.14572 
   68400    291.27062   -42.051096    188055.84   -60276.209    5062.6047   -65338.813    0.1433365 
   68500    292.22772   -67.733589    188129.94   -60254.694    5079.2403   -65333.934   0.14643583 
   68600    287.24585   -67.733208    188126.74   -60231.604    4992.6499   -65224.254   0.14697117 
   68700    289.95957    18.057431    188051.68   -60220.072    5039.8172    -65259.89   0.14200663 
   68800    290.56391    24.417714    187978.01   -60192.305    5050.3214   -65242.627    0.1494231 
   68900    288.54871    25.612211    187955.91   -60232.129    5015.2949   -65247.424   0.14266534 
   69000    287.64106   -10.577719    187992.96   -60248.562     4999.519   -65248.081   0.14703171 
   69100    288.21197   -30.453749     188058.2   -60257.216     5009.442   -65266.658    0.1469285 
   69200    291.14336   -22.702152    188110.75   -60278.603    5060.3928   -65338.996     0.141773 
   69300    291.32999   -48.312008    188120.12   -60299.868    5063.6367   -65363.505   0.14145517 
   69400    285.19797    -50.65565    188090.02    -60301.05    4957.0554   -65258.105   0.15113775 
   69500    285.48081   -14.905112    188036.96   -60353.498    4961.9715   -65315.469   0.13981679 
   69600    285.75262    29.595044    187985.24   -60306.721    4966.6958   -65273.416   0.14498878 
   69700     291.6003    48.202281       187962   -60268.618    5068.3349   -65336.953   0.14126168 
   69800    289.36379    46.310693    187978.38   -60275.877     5029.462   -65305.339   0.13911605 
   69900    290.06099    18.020248    188027.34   -60260.667      5041.58   -65302.247    0.1488622 
   70000    291.04082   -7.1659606    188077.43   -60241.773    5058.6106   -65300.384   0.14019099 
   70100    290.66304   -14.008096    188093.68   -60250.427    5052.0444   -65302.471   0.14428049 
   70200    289.51267   -31.161357    188068.25   -60232.357    5032.0496   -65264.407   0.14580401 
   70300    289.16906    13.885115    188021.24   -60283.555    5026.0774   -65309.633   0.14170937 
   70400    291.17993    40.319441    187978.52   -60250.797    5061.0285   -65311.826   0.14385025 
   70500    287.71864   -1.6771018    187958.96   -60249.195    5000.8675   -65250.062   0.14927831 
   70600    297.72014    33.386094    187961.37   -60182.594    5174.7045   -65357.298   0.14145382 
   70700    295.39574   -14.658429    187990.46   -60197.781    5134.3039   -65332.085     0.145764 
   70800    289.66608   -40.038172    188018.78   -60258.871    5034.7162   -65293.587   0.14774636 
   70900    290.65164   -31.794932    188019.07   -60268.274    5051.8463    -65320.12   0.14424062 
   71000     290.5817   -42.965006    187994.89   -60293.681    5050.6305   -65344.311   0.15259273 
   71100    289.88649    1.6711798    187951.73   -60304.565    5038.5471   -65343.112   0.14487979 
   71200      286.572    58.491543    187918.98    -60295.43    4980.9376   -65276.368   0.14359997 
   71300    287.92773    18.929545    187931.49   -60257.014    5004.5016   -65261.516   0.15040204 
   71400    290.57808    7.9693122    187986.58   -60235.805    5050.5676   -65286.373   0.14520113 
   71500    294.60233   -18.780525    188052.19   -60216.776    5120.5136   -65337.289   0.14817306 
   71600    290.01254    -67.41416    188081.43   -60245.279     5040.738   -65286.017   0.14740619 
   71700     290.4542   -57.597037    188052.81   -60239.027    5048.4145   -65287.442   0.14556435 
   71800     292.3826    11.609934    187977.53   -60217.745    5081.9322   -65299.677   0.15011392 
   71900    288.46747    7.3568703    187906.38   -60227.028    5013.8829    -65240.91   0.15112726 
   72000    291.75456    75.239879    187879.07    -60263.74    5071.0163   -65334.756   0.14374448 
   72100    286.33003    26.337145    187908.51   -60310.777    4976.7319   -65287.508    0.1476656 
   72200     287.1118    2.0028744    187967.86   -60274.924    4990.3198   -65265.244   0.14480144 
   72300    289.82549   -35.053309    188027.76   -60273.696    5037.4867   -65311.183   0.14655094 
   72400    286.28028    -89.88568    188053.01   -60272.343    4975.8672    -65248.21    0.1502745 
   72500     287.3838   -37.481739    188013.36   -60254.067    4995.0475   -65249.114   0.14442679 
   72600    286.38149     38.34862    187929.14   -60253.972    4977.6264   -65231.598   0.14685275 
   72700    290.34068    65.401267     187855.3   -60302.537    5046.4415   -65348.979   0.14492964 
   72800    287.19299    55.092865    187826.55   -60331.461    4991.7311   -65323.193   0.14678575 
   72900    287.06301    38.311296    187866.62   -60289.605    4989.4718   -65279.076   0.14709005 
   73000    284.85875    16.319662    187956.14   -60322.067    4951.1593   -65273.227    0.1445589 
   73100    287.30163   -62.288272    188048.68   -60345.065    4993.6193   -65338.684   0.14231199 
   73200    289.25898   -87.768673    188081.55   -60364.011    5027.6402   -65391.651   0.14810039 
   73300     289.4496   -84.194505    188013.87   -60345.113    5030.9534   -65376.066   0.14397078 
   73400    290.06941    18.275689    187886.14   -60330.343    5041.7264   -65372.069   0.14689229 
   73500    285.11092     85.04609    187791.15   -60326.619    4955.5424   -65282.162   0.14751466 
   73600     286.4515     110.5686    187801.52   -60300.582    4978.8432   -65279.425   0.14102686 
   73700    290.42799    77.708051    187931.78   -60327.053     5047.959   -65375.012   0.14394019 
   73800    288.87842   -96.498152    188114.38   -60310.339    5021.0258   -65331.364    0.1487713 
   73900    283.91973   -126.59912    188221.54   -60358.239    4934.8381   -65293.077   0.14450109 
   74000    288.32349   -84.332947    188159.33   -60348.967    5011.3805   -65360.347   0.14060666 
   74100    289.60463    23.221592    187959.72   -60333.892    5033.6481    -65367.54   0.14391571 
   74200    285.85657    140.15333    187762.12   -60358.561    4968.5027   -65327.063   0.14206023 
   74300    285.78421    198.91524    187705.13   -60346.128     4967.245   -65313.373   0.14673251 
   74400    287.21286    113.00948    187843.55   -60321.798    4992.0764   -65313.874   0.14171269 
   74500    286.80317   -56.031603    188099.54   -60345.419    4984.9556   -65330.374   0.14165209 
   74600    287.84947   -177.57707    188295.49   -60312.744    5003.1415   -65315.885   0.14480919 
   74700     287.6635   -158.52434    188291.29   -60318.861     4999.909    -65318.77   0.14176314 
   74800    285.79576   -60.178383    188091.62   -60337.862    4967.4457   -65305.308   0.14580486 
   74900     288.5267    114.64501    187823.73   -60319.138    5014.9124    -65334.05   0.14590373 
   75000    293.59088    260.69427    187671.77   -60300.817    5102.9334    -65403.75   0.13876698 
   75100    283.82222    125.49778     187745.1    -60277.68    4933.1433   -65210.823   0.15073095 
   75200    288.01836   -35.853419    187991.45   -60277.371    5006.0768   -65283.448   0.14951092 
   75300    293.55324   -146.48567     188250.2   -60290.822    5102.2792   -65393.101   0.14441653 
   75400    289.83908    -196.8243    188339.36   -60269.485     5037.723   -65307.208   0.14624909 
   75500    288.70167   -139.81703    188196.67    -60251.39    5017.9536   -65269.344   0.14934604 
   75600    290.94438    89.082353    187906.56   -60245.662    5056.9343   -65302.596    0.1453957 
   75700    293.82992    192.52594    187674.02   -60231.986    5107.0882   -65339.074   0.14839998 
   75800    292.49546    188.85074    187657.71   -60214.105    5083.8939   -65297.999     0.144394 
   75900    287.65728     105.2766    187873.15   -60236.563     4999.801   -65236.364   0.14913425 
   76000    285.32862   -113.72228     188192.1   -60199.234    4959.3263   -65158.561   0.15197551 
   76100    293.26939   -200.76695    188406.76   -60202.081    5097.3455   -65299.427   0.14258718 
   76200     289.1143   -205.23125    188374.66   -60214.108    5025.1256   -65239.234   0.14988946 
   76300    289.97558   -40.525555    188104.55   -60204.633    5040.0955   -65244.728   0.14456207 
   76400     293.7246    184.81972     187768.9   -60167.033    5105.2576   -65272.291   0.14173357 
   76500    290.48819    273.47067    187604.44   -60176.999    5049.0052   -65226.004    0.1479148 
   76600    291.46941    185.07991    187723.68   -60217.753      5066.06   -65283.813   0.14619825 
   76700    290.94504   -24.236395    188053.73   -60222.394    5056.9458    -65279.34   0.14631021 
[...]
   81800    293.03196    103.97084    187869.66   -60167.549    5093.2188   -65260.768   0.14634584 
   81900    293.25256    75.566864    187983.95   -60149.636    5097.0531   -65246.689   0.14366069 
   82000    293.86338   -35.956614    188160.35   -60130.624    5107.6698   -65238.293   0.14742808 
   82100    289.32721   -100.44942    188279.19   -60163.061    5028.8262   -65191.887   0.14698838 
   82200     290.3342   -128.59611    188264.67   -60195.367    5046.3288   -65241.696   0.14674522 
   82300    294.02502   -28.623371    188127.09   -60194.612    5110.4793   -65305.091   0.15013467 
   82400    291.88574    105.80303    187964.54   -60197.848    5073.2962   -65271.144   0.14317743 
   82500    291.41098     140.7383    187889.87   -60217.033    5065.0444   -65282.077   0.14139876 
   82600    294.26637    112.74076    187941.95   -60237.387    5114.6741   -65352.061   0.14712606 
   82700    289.04339   -35.890548    188073.12   -60273.364    5023.8931   -65297.257   0.14187111 
   82800    287.67548   -83.488884    188192.29   -60237.072    5000.1172    -65237.19   0.14898332 
   82900    285.98393   -109.35238    188219.32   -60255.167    4970.7162   -65225.883   0.14879363 
   83000    287.29432   -29.274055    188140.17   -60240.823    4993.4922   -65234.315   0.14390663 
   83100    287.87735    3.0261901     188020.5    -60230.98    5003.6259   -65234.606   0.15121755 
   83200    290.72578    75.804781    187929.72   -60267.658    5053.1348   -65320.793   0.14195243 
   83300    285.76617    63.109727    187919.78    -60311.12    4966.9313   -65278.051   0.14537311 
   83400    289.64246    29.774377    187985.13   -60284.533    5034.3056   -65318.838    0.1464912 
   83500    290.23638   -6.3938424     188074.7    -60300.38    5044.6286   -65345.009   0.14129336 
   83600    290.34964   -34.997062    188123.98   -60311.078    5046.5971   -65357.675   0.14003631 
   83700    289.02815   -63.678681    188096.68   -60292.014    5023.6281   -65315.642    0.1491167 
   83800    286.69838   -11.314078       188003   -60255.123    4983.1342   -65238.257   0.14609282 
   83900    290.09343    61.101716    187906.96   -60288.323     5042.144   -65330.467   0.14546918 
   84000    285.86905    54.363734    187866.25   -60285.581    4968.7194     -65254.3   0.14996077 
   84100    285.54183    3.8364759    187898.42   -60259.712     4963.032   -65222.744   0.14726524 
   84200    290.45161    49.399461    187969.11   -60267.733    5048.3694   -65316.102   0.14472414 
   84300    288.17467   -46.806692     188039.3   -60283.493    5008.7938   -65292.287   0.14550219 
   84400    290.14205   -57.964125    188054.94   -60285.461     5042.989    -65328.45   0.14958192 
   84500    291.26565   -45.880445    188006.45   -60283.652    5062.5183    -65346.17   0.14911298 
   84600    292.88858    36.151922    187930.47   -60280.939    5090.7268   -65371.666   0.14275729 
   84700    290.60467    54.066705    187873.49   -60289.763    5051.0297   -65340.793   0.14694644 
   84800    288.85427    54.728199    187869.05   -60272.499    5020.6059   -65293.105   0.15045467 
   84900    290.46325    48.571789    187922.48   -60246.057    5048.5717   -65294.629   0.14451408 
   85000    285.93552   -18.120047    188004.62   -60227.948    4969.8748   -65197.823   0.15302004 
   85100    290.11496   -86.199014    188062.61   -60197.661    5042.5181   -65240.179   0.15508744 
   85200     294.2983   -58.714719    188070.96   -60202.439    5115.2291   -65317.669   0.14366944 
   85300     292.7185    -12.97224    188022.81   -60178.354    5087.7705   -65266.125   0.15283732 
   85400    293.16396    13.605283     187945.9   -60185.547    5095.5131    -65281.06   0.14821535 
   85500    292.68655    42.612725    187885.07   -60205.198    5087.2152   -65292.413   0.15233152 
   85600    290.54884    48.545812    187868.79   -60199.759    5050.0595   -65249.818    0.1502602 
   85700    294.33092     29.89949    187912.32   -60215.383    5115.7962   -65331.179   0.14799678 
   85800    291.69864   -39.900561     187977.6   -60210.172    5070.0443   -65280.216   0.15332118 
   85900    291.48395   -18.763991    188012.73   -60205.688    5066.3126   -65272.001   0.15007185 
   86000    289.19466   -41.150432    188010.18   -60154.311    5026.5223   -65180.833   0.14940654 
   86100    290.93336    3.1599741     187976.1    -60155.54    5056.7428   -65212.283   0.15357295 
   86200    290.30046     7.731392    187939.96   -60152.782    5045.7424   -65198.524    0.1553712 
   86300     292.6958    32.872964    187929.61   -60150.568    5087.3759   -65237.944   0.14501181 
   86400    297.44058    26.559668    187956.81    -60145.86    5169.8455   -65315.705   0.14949823 
   86500    294.62865     11.36111    188005.59   -60147.147    5120.9711   -65268.118   0.14442849 
   86600     288.5396   -99.712234    188048.73   -60133.441    5015.1367   -65148.578   0.15433718 
   86700    292.76162   -38.369919    188047.04   -60129.788      5088.52   -65218.308    0.1508681 
   86800    294.41483   -21.581068    187994.13   -60174.199    5117.2546   -65291.454   0.14812887 
   86900     294.4137    36.479726    187912.73   -60193.509     5117.235   -65310.744   0.14925553 
   87000     290.7952    84.194769    187866.74   -60198.966    5054.3414   -65253.307   0.14727556 
   87100    291.99483    26.946578    187903.03   -60185.441    5075.1923   -65260.633   0.14763725 
   87200    288.76817    4.8530993     187998.6   -60159.505    5019.1094   -65178.614   0.15105129 
   87300    291.93811   -90.101093    188103.38    -60169.44    5074.2065   -65243.646   0.15177851 
   87400    290.63039   -99.426594    188140.47    -60135.74    5051.4768   -65187.217   0.14631326 
   87500    291.83725   -49.656974    188078.24   -60172.803    5072.4534   -65245.256   0.14996907 
   87600    293.47448    1.5896884    187936.75   -60199.458    5100.9103   -65300.368   0.14939271 
   87700    292.63998    104.16419     187801.5   -60221.046    5086.4057   -65307.451   0.14522784 
   87800    288.29872    137.97344    187769.19   -60219.222    5010.9498   -65230.172   0.14989935 
   87900    293.36127    72.858178    187877.49   -60181.972    5098.9426   -65280.914   0.14714548 
   88000    291.65044   -33.591725    188070.41   -60153.207    5069.2064   -65222.414   0.14774497 
   88100    290.10843   -125.57797    188230.81   -60148.998    5042.4045   -65191.403   0.14758891 
   88200    289.89439   -140.87955    188252.89   -60163.486    5038.6844    -65202.17   0.14723154 
   88300    290.52675   -52.471708    188116.54   -60151.055    5049.6756   -65200.731   0.15026655 
   88400     294.4777    82.176218    187907.52   -60162.322    5118.3474   -65280.669   0.15052221 
   88500    292.45779    163.14762    187773.17   -60151.779    5083.2391   -65235.018   0.14926106 
   88600     288.3338    114.73783    187820.14   -60162.094    5011.5596   -65173.653   0.15291176 
   88700    291.18525   -5.1083447    188030.61   -60162.399    5061.1209    -65223.52   0.14855711 
   88800    296.20085   -124.79068     188273.7   -60136.141    5148.2977   -65284.439   0.14663556 
   88900    289.91906   -228.65757    188380.81   -60179.745    5039.1132   -65218.858   0.15595932 
   89000    290.61937   -131.75024    188262.13   -60181.353    5051.2854   -65232.639   0.14673617 
   89100    292.83932    24.296439       187977    -60167.96    5089.8706   -65257.831   0.14940862 
   89200    292.36834    214.85227    187711.06   -60161.715    5081.6843   -65243.399   0.14763136 
   89300    293.60686    229.14938    187660.76   -60150.524    5103.2112   -65253.735   0.14809784 
   89400    295.07421    110.32524    187878.07   -60123.357    5128.7154   -65252.072   0.14775116 
   89500    297.65629   -96.483099    188234.16   -60140.311    5173.5947   -65313.906   0.14869761 
   89600    296.93546   -270.10012    188487.35   -60166.438    5161.0659   -65327.503   0.14671138 
   89700    289.84319   -263.09246    188464.07   -60204.088    5037.7944   -65241.883   0.14957677 
   89800    294.19863   -42.005429    188171.53   -60188.564    5113.4968   -65302.061   0.14193704 
   89900    290.23621    186.57345     187798.3   -60220.427    5044.6255   -65265.052   0.14332723 
   90000    289.13993    260.92781    187587.96   -60211.948    5025.5711   -65237.519    0.1501074 
   90100    290.07159     198.5821    187673.13   -60239.352    5041.7643   -65281.116   0.14423839 
   90200     290.6419    16.556952    187995.92   -60260.012    5051.6769   -65311.688   0.14852618 
   90300    286.04225   -204.65186    188345.63   -60283.422    4971.7299   -65255.152   0.14511975 
   90400      292.225   -244.42844    188484.02   -60288.316    5079.1929   -65367.509   0.14049776 
   90500    290.64227   -164.24497     188323.5   -60267.531    5051.6833   -65319.215   0.14620661 
   90600    285.59568    16.240035    187971.57   -60266.878    4963.9681   -65230.846   0.14715768 
   90700    288.50637     226.4532    187664.27   -60290.928     5014.559   -65305.487    0.1453421 
   90800     287.9383    235.36084    187600.95   -60328.181    5004.6853   -65332.867   0.14651388 
   90900    289.34293    117.77086    187818.99   -60313.364    5029.0994   -65342.463   0.14329367 
   91000    287.81643      -85.014    188185.73   -60329.983    5002.5672    -65332.55   0.14164615 
   91100    290.76663   -276.23314    188443.77   -60322.829    5053.8448   -65376.673   0.14772475 
   91200    288.89199    -229.4025    188414.71    -60316.01    5021.2616   -65337.271   0.14155404 
   91300    282.54221   -79.701916    188122.88   -60313.765    4910.8954   -65224.661   0.14922564 
   91400    284.37127    163.47281    187763.18   -60326.892    4942.6865   -65269.578   0.14207007 
   91500    287.90598     273.3337    187568.89     -60314.7    5004.1236   -65318.824   0.14221102 
   91600    290.98575    194.54361    187665.36   -60307.755    5057.6533   -65365.408   0.14549726 
   91700     287.8579    14.565255    187991.61   -60301.073     5003.288   -65304.361   0.14189971 
   91800    287.93571   -185.87291    188343.35   -60304.382    5004.6403   -65309.022   0.14325266 
   91900    287.30659   -297.20323    188484.03   -60293.428    4993.7055   -65287.134   0.14686942 
   92000    288.03212   -169.05195     188307.2   -60319.431     5006.316   -65325.747   0.14230846 
   92100    289.07225    58.595735    187925.12    -60319.32    5024.3948   -65343.715   0.14273845 
   92200    287.77051    255.32368    187582.05   -60311.079     5001.769   -65312.848   0.14494381 
   92300    287.02407    316.07022     187509.5   -60303.829    4988.7951   -65292.624   0.14004113 
   92400    288.14484    162.29448    187760.92    -60295.31    5008.2752   -65303.585   0.14596682 
   92500    286.62513   -84.388236    188168.17   -60325.793     4981.861   -65307.654    0.1423711 
   92600    284.17255   -262.84758    188460.06   -60336.593    4939.2325   -65275.826   0.14336614 
   92700    285.81934   -264.11241    188448.92    -60323.93    4967.8555   -65291.786   0.14456198 
   92800    287.95828   -76.673921    188150.64   -60310.028    5005.0327   -65315.061   0.14120655 
   92900    288.14569     149.5745    187776.41   -60283.556      5008.29   -65291.846   0.14335733 
   93000    292.60582    274.67404    187579.25   -60219.242     5085.812   -65305.054   0.14684706 
   93100    293.47623    259.04952    187690.91   -60226.897    5100.9407   -65327.837    0.1400275 
   93200    289.90011     2.504928    188035.64   -60257.047    5038.7838   -65295.831   0.14261809 
   93300    292.47011   -187.94494    188378.95   -60250.998    5083.4533   -65334.452   0.14189587 
   93400    288.17226   -259.10514    188505.65   -60225.846    5008.7519   -65234.598   0.14201526 
   93500    290.65903    -163.2099    188344.24   -60242.608    5051.9746   -65294.583   0.14480796 
   93600    290.06337    46.246228    188015.17   -60213.978    5041.6215     -65255.6   0.14067434 
   93700    289.22352    217.53151    187743.47    -60182.23    5027.0239   -65209.254   0.13829426 
   93800    292.69281     255.8671    187705.44   -60216.644     5087.324   -65303.968   0.14039321 
   93900    293.07357    138.42935    187913.66   -60216.131    5093.9421   -65310.073   0.13643821 
   94000    287.59342   -89.266313    188223.41   -60248.202    4998.6909   -65246.893   0.14528184 
   94100    290.42363   -233.51742    188432.02   -60295.225    5047.8831   -65343.108   0.14296265 
   94200    286.43946   -206.87698    188399.99   -60295.875    4978.6338   -65274.509   0.14203741 
   94300    288.10591   -69.748474    188155.33   -60267.767    5007.5986   -65275.366   0.13878647 
   94400    289.47029    133.70709    187860.22   -60287.518     5031.313   -65318.831   0.14000041 
   94500    290.07541    196.02653    187712.19   -60300.331    5041.8308   -65342.161   0.13844659 
   94600    287.62444    139.89501    187803.59    -60286.49    4999.2302    -65285.72   0.14222883 
   94700    287.97568    19.270937    188067.17   -60290.556     5005.335   -65295.891   0.14097699 
   94800    284.17839   -167.21524    188334.37   -60341.672    4939.3341   -65281.006   0.13693424 
   94900    287.67221   -214.54811    188413.04   -60363.515    5000.0604   -65363.575   0.14360238 
   95000    285.55152   -115.99724     188250.6   -60384.016    4963.2006   -65347.216    0.1373635 
   95100    282.10868    37.359779    187966.65   -60377.958    4903.3602   -65281.318   0.14039875 
   95200    288.01943    197.00748    187739.99   -60371.974    5006.0955   -65378.069    0.1419718 
   95300    287.94445    183.44422    187708.53   -60400.133    5004.7922   -65404.925   0.13862163 
   95400    284.56403     83.66143    187874.05   -60377.078    4946.0368   -65323.115   0.14088133 
   95500    287.05058   -58.423196    188121.11    -60357.65    4989.2559   -65346.906   0.14069195 
   95600    289.83451   -150.86734    188287.35   -60341.508    5037.6435   -65379.151   0.13997653 
   95700    285.78777   -166.67167    188282.57    -60327.83    4967.3069   -65295.136   0.14028363 
   95800    284.42194   -53.072665    188125.35   -60309.128    4943.5672   -65252.695   0.14459334 
   95900    290.61182    60.857108    187921.65    -60308.03    5051.1541   -65359.184   0.14049256 
   96000    288.04777    178.72284     187805.5   -60286.871    5006.5882   -65293.459   0.14209786 
   96100    289.16749    131.56602    187846.31    -60315.44    5026.0501    -65341.49   0.13715736 
   96200      289.693    29.338274    188006.98   -60329.591    5035.1839   -65364.775   0.13884194 
   96300    282.55513   -122.70618     188168.8   -60315.865    4911.1199   -65226.985   0.14989011 
   96400    283.80765   -135.07483    188219.08   -60334.114    4932.8901   -65267.004   0.14179119 
   96500    284.62424   -53.278832    188136.77   -60315.811    4947.0833   -65262.894   0.14206018 
   96600    285.60675    26.581306    187986.68   -60355.971    4964.1604   -65320.131   0.14180769 
   96700    289.14235    142.27209    187877.61   -60389.776    5025.6131   -65415.389   0.13509063 
   96800    285.66806    73.969595    187872.71   -60427.629    4965.2262   -65392.855    0.1378434 
   96900    284.90676    20.342697    187956.63   -60397.767    4951.9939   -65349.761   0.14427104 
   97000    287.28122   -25.892185    188067.89   -60365.709    4993.2646   -65358.974   0.13797179 
   97100    285.81669   -77.025172    188133.67   -60360.041    4967.8095   -65327.851   0.14646217 
   97200    288.38501   -26.738713    188118.88   -60368.096    5012.4496   -65380.546   0.13443812 
   97300    290.30685    29.935154    188036.07   -60333.716    5045.8534    -65379.57   0.13828504 
   97400    288.64092    54.491781    187950.26   -60317.108    5016.8977   -65334.006   0.14542164 
   97500     289.8197    62.356005    187922.82   -60301.931    5037.3862   -65339.317   0.13710377 
   97600    288.31993    52.752585    187969.55   -60287.275    5011.3185   -65298.593   0.14125552 
   97700    288.56226    21.019959     188064.3    -60278.21    5015.5305    -65293.74   0.14242925 
   97800    289.48506   -57.075185     188157.4   -60286.528    5031.5697   -65318.097   0.14156794 
   97900    289.33039   -78.108224    188183.81   -60271.158    5028.8814   -65300.039   0.14236998 
   98000    289.07963   -53.843461    188121.64    -60246.33    5024.5229   -65270.853   0.14712314 
   98100    284.49198    6.7103935    188013.19   -60262.407    4944.7845   -65207.192    0.1432546 
   98200    291.21033    100.95524    187925.93   -60262.026    5061.5569   -65323.582   0.14281801 
   98300    294.55622      67.5411    187921.68    -60214.07    5119.7122   -65333.782   0.14171304 
   98400     291.6729    35.051454    188007.65   -60192.195    5069.5968   -65261.791   0.14164323 
   98500    293.97894   -47.361213    188125.03    -60247.44    5109.6784   -65357.118   0.14629884 
   98600    288.28233   -51.501325    188190.85    -60256.84    5010.6649   -65267.505   0.13784053 
   98700    284.95251   -88.267903    188180.47   -60212.449     4952.789   -65165.238   0.14828104 
   98800    293.58097   -11.561204    188117.96   -60217.638    5102.7612     -65320.4   0.14537013 
   98900    292.01062    17.381763    188047.83   -60232.325    5075.4668   -65307.791   0.14049099 
   99000    296.39123    14.400573    188004.99   -60222.488    5151.6066   -65374.094   0.14262845 
   99100    289.61191    26.253774    188003.17   -60240.425    5033.7745   -65274.199   0.14562433 
   99200    285.14088   -13.403128     188036.6   -60299.546    4956.0632   -65255.609   0.14490494 
   99300    291.01339   -4.1212207    188075.39   -60324.692    5058.1338   -65382.826   0.14050748 
   99400    285.55002   -29.204868    188084.44   -60394.075    4963.1745    -65357.25    0.1412265 
   99500     289.7993    23.317616    188048.65   -60376.528    5037.0316   -65413.559   0.13482302 
   99600    282.80256    7.1742949    187995.22   -60414.063    4915.4205   -65329.483   0.14613914 
   99700    289.61552    37.407489    187954.21   -60366.873    5033.8373    -65400.71   0.14053617 
   99800    287.17301     30.54261    187960.65   -60369.508    4991.3837   -65360.891   0.14508304 
   99900    288.19551    9.0911414    188006.82   -60383.549    5009.1559   -65392.705   0.14656576 
  100000    288.70984   -8.5726409    188067.27   -60371.973    5018.0956   -65390.069   0.13629667 
Loop time of 72.5819 on 6 procs for 100000 steps with 5832 atoms

Performance: 595.190 ns/day, 0.040 hours/ns, 1377.753 timesteps/s
98.3% CPU use with 6 MPI tasks x no OpenMP threads

MPI task timing breakdown:
Section |  min time  |  avg time  |  max time  |%varavg| %total
---------------------------------------------------------------
Pair    | 48.513     | 49.402     | 50.427     |   8.1 | 68.06
Neigh   | 6.7865     | 6.9353     | 7.2086     |   5.9 |  9.56
Comm    | 9.8769     | 11.192     | 12.233     |  21.3 | 15.42
Output  | 0.22444    | 0.22578    | 0.2315     |   0.5 |  0.31
Modify  | 3.7649     | 3.787      | 3.8052     |   0.8 |  5.22
Other   |            | 1.04       |            |       |  1.43

Nlocal:        972.000 ave         987 max         958 min
Histogram: 2 0 1 0 0 0 1 0 1 1
Nghost:        1621.33 ave        1640 max        1609 min
Histogram: 3 0 0 0 0 1 0 0 1 1
Neighs:        0.00000 ave           0 max           0 min
Histogram: 6 0 0 0 0 0 0 0 0 0
FullNghs:      27699.3 ave       28148 max       27266 min
Histogram: 2 0 1 0 0 0 0 1 1 1

Total # of neighbors = 166196
Ave neighs/atom = 28.497257
Neighbor list builds = 6292
Dangerous builds = 0

undump              1
unfix               2
unfix               3



################################################
#######         Run Simulation         #########
################################################

reset_timestep      0
log                 log.run_${NAME}
log                 log.run_ice_289K_1atm_LG
