
# Set production fixes - Nose/Hoover
#
fix                 2 all nph iso ${PRES} ${PRES} ${PCOUPL}
fix                 2 all nph iso 1 ${PRES} ${PCOUPL}
fix                 2 all nph iso 1 1 ${PCOUPL}
fix                 2 all nph iso 1 1 10000.0
fix                 3 all temp/csvr ${TEMP} ${TEMP} ${TCOUPL} 837492
fix                 3 all temp/csvr 289 ${TEMP} ${TCOUPL} 837492
fix                 3 all temp/csvr 289 289 ${TCOUPL} 837492
fix                 3 all temp/csvr 289 289 5000.0 837492

# Define Order parameter
#
compute             2 all orientorder/atom nnn NULL cutoff 3.5
thermo              200
thermo_style        custom step temp press vol etotal ke pe c_1[4]

# Run 1ns simulation
dump		    1 all custom 400 prod.${NAME}.dump id type x y z vx vy vz c_2[*]
dump		    1 all custom 400 prod.ice_289K_1atm_LG.dump id type x y z vx vy vz c_2[*]
run                 200000
Neighbor list info ...
  update every 1 steps, delay 0 steps, check yes
  max neighbors/atom: 2000, page size: 100000
  master list distance cutoff = 6.0032907
  ghost atom cutoff = 6.0032907
  binsize = 3.0016454, bins = 20 20 20
  2 neighbor lists, perpetual/occasional/extra = 1 1 0
  (1) pair sw, perpetual
      attributes: full, newton on
      pair build: full/bin/atomonly
      stencil: full/bin/3d
      bin: standard
  (2) compute orientorder/atom, occasional, copy from (1)
      attributes: full, newton on
      pair build: copy
      stencil: none
      bin: none
Per MPI rank memory allocation (min/avg/max) = 5.886 | 5.887 | 5.887 Mbytes
Step Temp Press Volume TotEng KinEng PotEng c_1[4] 
       0    288.70984   -8.5726409    188067.27   -60371.973    5018.0956   -65390.069   0.13629667 
     200    286.98066    33.405847    188030.32   -60353.835    4988.0405   -65341.876   0.14245482 
     400    289.03157   -16.856406     188027.5   -60342.712    5023.6876   -65366.399   0.14134577 
     600    287.34142   -30.159641    188063.75   -60378.143    4994.3109   -65372.454   0.13921612 
     800    288.18744    22.154272    188059.46   -60390.424    5009.0157    -65399.44   0.13611748 
    1000    287.74424    16.353474    188012.67   -60408.178    5001.3123   -65409.491   0.14060266 
    1200    284.56819    23.810255    188011.61   -60424.889    4946.1091   -65370.998   0.13909762 
    1400    282.11703   -13.938643    188036.44   -60412.695    4903.5053     -65316.2   0.13978613 
    1600    283.14988    14.609027    187994.51    -60411.34    4921.4573   -65332.797   0.14452385 
    1800     282.4065    18.509952    187952.44   -60419.503    4908.5367    -65328.04   0.14519529 
    2000    287.13859   -22.891179    188019.77   -60370.122    4990.7856   -65360.908    0.1424815 
    2200    284.54708   -43.033467    188066.43   -60329.816    4945.7423   -65275.558   0.14091634 
    2400    286.77792    12.444363    187999.04   -60344.627    4984.5167   -65329.144   0.14357667 
    2600    285.52175    12.620562    187955.68   -60400.598    4962.6831   -65363.281   0.14596584 
    2800    281.23829   -25.931659    188059.66   -60415.812    4888.2317   -65304.044   0.14317354 
    3000    283.04013   -57.257417     188076.7   -60427.912    4919.5497   -65347.461   0.14308449 
    3200    287.13731    43.470895    187935.51   -60364.934    4990.7633   -65355.698   0.14715784 
    3400    288.11499    14.914544    188000.27   -60405.382    5007.7565   -65413.139   0.14268744 
    3600    284.32459   -68.661783    188141.88   -60431.281    4941.8751   -65373.156     0.139237 
    3800    289.33925     36.66106    187995.75   -60353.223    5029.0354   -65382.259   0.14107713 
    4000    287.81224    96.516768     187863.6   -60346.296    5002.4943   -65348.791   0.14296242 
    4200    286.81086   -53.595091    188083.72   -60363.682    4985.0892   -65348.771   0.14156207 
    4400     286.4355   -65.838994    188150.52    -60335.46    4978.5651   -65314.025   0.14417496 
    4600    287.60441    61.659896    187885.69   -60305.244     4998.882   -65304.126    0.1497728 
    4800    291.61625    101.73986     187855.8   -60294.245    5068.6122   -65362.857   0.14544452 
    5000    291.95678   -86.506994    188130.64   -60270.368     5074.531   -65344.899   0.14619383 
    5200    286.03353   -51.594924    188116.54   -60268.813    4971.5784   -65240.391   0.14526659 
    5400    291.70828    105.94989    187857.44    -60225.53    5070.2118   -65295.742   0.14799808 
    5600    291.28121     38.63516    187958.06    -60208.34    5062.7889   -65271.129   0.14914355 
    5800    291.45739   -88.102601    188197.13   -60194.718     5065.851   -65260.569   0.14247873 
    6000      291.703     -11.0477    188063.33   -60179.912    5070.1201   -65250.032   0.14588895 
    6200    294.81399    119.34121    187880.19   -60172.438    5124.1925   -65296.631   0.14737529 
    6400    291.70772   -9.1702875    188092.42   -60137.078    5070.2021    -65207.28   0.14658139 
    6600    288.49668   -138.18395    188290.34   -60181.903    5014.3906   -65196.293   0.15016287 
    6800    289.53963    15.839895    188009.67   -60225.569    5032.5183   -65258.087   0.15112186 
    7000    294.86397    171.64281    187779.57   -60230.189    5125.0612    -65355.25   0.14656281 
    7200    290.59229   -49.621203    188138.16    -60170.77    5050.8146   -65221.585   0.14738257 
    7400    291.47332   -177.96477    188384.52   -60152.727    5066.1279   -65218.855   0.14891926 
    7600    290.84347    67.702256    187963.82    -60191.58    5055.1804   -65246.761   0.14722262 
    7800    293.38734    173.29006    187749.68   -60224.396    5099.3956   -65323.791   0.14564738 
    8000    293.30308   -86.641991    188226.74   -60187.429    5097.9312    -65285.36   0.14446927 
    8200    293.95369   -188.06428     188357.5    -60227.73    5109.2394    -65336.97   0.14769845 
    8400    292.11932    141.18665    187801.38   -60257.294    5077.3561    -65334.65   0.15031651 
    8600    296.30744    201.69267     187786.3   -60212.032    5150.1503   -65362.183   0.14058212 
    8800    292.69166   -197.18921    188455.29   -60133.418     5087.304   -65220.722    0.1445998 
    9000    291.00046   -205.64991    188372.38   -60110.263     5057.909   -65168.172   0.15356846 
    9200    292.23737    253.28835    187652.05   -60093.523     5079.408   -65172.931    0.1510937 
    9400    289.04616    96.155996    187887.51   -60147.924    5023.9411   -65171.865   0.14357103 
    9600    290.41289   -293.78862    188562.82   -60159.237    5047.6964   -65206.933    0.1450826 
    9800    295.85797   -40.559894    188187.99   -60180.188     5142.338   -65322.526   0.14126166 
   10000    293.61814    332.18712    187532.57   -60158.071    5103.4072   -65261.478   0.14566233 
   10200      290.466    3.0504964       188060   -60171.563    5048.6196   -65220.183    0.1443286 
   10400    286.69895   -355.10252    188640.12   -60143.671    4983.1442   -65126.816   0.15086358 
   10600    292.19173    50.618938    187958.88    -60128.84    5078.6147   -65207.455   0.15118739 
   10800    293.95028    365.49701    187506.55    -60152.05    5109.1802   -65261.231   0.14331647 
   11000    295.49217   -153.58473    188291.01   -60201.366      5135.98   -65337.346   0.14322349 
   11200    289.01374   -302.88177    188558.37   -60222.885    5023.3777   -65246.263   0.14782107 
   11400    290.16114    193.12833    187717.52   -60243.555    5043.3207   -65286.876   0.14439888 
   11600    289.79045    263.46121    187601.49   -60220.747    5036.8777   -65257.624   0.14094812 
   11800    287.17379   -236.08419    188367.85    -60293.94    4991.3973   -65285.338    0.1462431 
   12000    288.45387   -173.84967    188270.53    -60301.67    5013.6465   -65315.317   0.15168627 
   12200    289.16165     208.5853    187612.42   -60262.447    5025.9486   -65288.396   0.14787896 
   12400     290.4341    109.95605    187801.47   -60229.289    5048.0651   -65277.354   0.14487448 
   12600    290.23591    -173.8335    188299.93   -60236.904    5044.6204   -65281.524   0.14840616 
   12800    284.37212   -80.628925    188097.48   -60253.006    4942.7012   -65195.707   0.15295243 
   13000    293.26218    161.33609    187741.87   -60224.959    5097.2203   -65322.179   0.14437155 
   13200    292.99809    18.271059    187985.35   -60196.159    5092.6301   -65288.789   0.14568856 
   13400    288.74467   -153.20609    188241.86   -60214.559    5018.7009    -65233.26   0.15149445 
   13600    291.17866    37.877331     187996.9   -60213.431    5061.0065   -65274.437   0.14494171 
   13800    290.48045    100.26133    187832.13   -60205.975    5048.8708   -65254.846   0.14439543 
   14000    292.85027   -20.922439    188057.17    -60228.48    5090.0608   -65318.541     0.144973 
   14200    290.38036   -117.50278    188172.69   -60240.081    5047.1311   -65287.212   0.15182504 
   14400    292.79829    46.040364    187939.87   -60280.603    5089.1573   -65369.761   0.14571653 
   14600    291.27791    114.49212     187860.7   -60261.949    5062.7315    -65324.68   0.14306336 
   14800    286.87739   -77.281245    188120.33   -60238.257    4986.2456   -65224.503    0.1477884 
   15000    290.84862   -64.852583    188165.82   -60305.597    5055.2699   -65360.867   0.14370256 
   15200    287.52259    98.238363    187875.13   -60356.419    4997.4598   -65353.879   0.13729769 
   15400    282.96594    92.807404    187868.73   -60402.564    4918.2603   -65320.824   0.13845326 
   15600    285.84087   -116.75545    188177.03   -60425.949    4968.2297   -65394.179   0.14543637 
   15800    288.76226   -63.475399    188109.84   -60383.586    5019.0067   -65402.592   0.14445049 
   16000    288.96988    83.082961    187834.51   -60362.259    5022.6154   -65384.874    0.1407164 
   16200    295.63114    69.380835    187943.14   -60314.388    5138.3954   -65452.783   0.14003145 
   16400    286.61883   -125.06526     188263.8   -60307.274    4981.7515   -65289.025   0.14553688 
   16600    287.48994   -39.195844    188118.97    -60342.66    4996.8924   -65339.553   0.14068305 
   16800     288.9359    164.35505    187775.04    -60289.91    5022.0248   -65311.934   0.14053635 
   17000    293.66028    41.456054    187989.89   -60301.415    5104.1397   -65405.555    0.1411409 
   17200     289.6522    -153.0451    188312.38   -60284.339    5034.4749   -65318.814   0.14398389 
   17400    285.82462     -13.0552    188025.44   -60335.964    4967.9473   -65303.912   0.14043269 
   17600    289.43904    197.60767    187670.68     -60374.7    5030.7698   -65405.469   0.13825138 
   17800    283.74529   -25.081696    188007.29   -60416.469    4931.8062   -65348.275   0.14624904 
   18000    286.00058   -215.04673    188318.65   -60447.168    4971.0057   -65418.174   0.14341684 
   18200    282.47684    40.379692    187898.67   -60490.895    4909.7591   -65400.654   0.14202908 
   18400    280.62677    205.55945    187622.74   -60496.763    4877.6028   -65374.366   0.14192775 
   18600    284.39159   -63.883366    188104.01   -60451.833    4943.0397   -65394.873   0.14335737 
   18800    288.09774   -201.15038    188349.79   -60366.697    5007.4565   -65374.154   0.14038749 
   19000    285.94128    121.23331     187813.1   -60408.271     4969.975   -65378.246   0.13623274 
   19200    285.04362    218.22125    187696.74   -60381.996    4954.3727   -65336.369   0.14226146 
   19400    290.87767   -161.15096    188332.42   -60345.551    5055.7749   -65401.326   0.14186646 
   19600    286.83568     -185.379     188333.1   -60361.471    4985.5206   -65346.992   0.14281214 
   19800    285.81207    271.48876    187563.55   -60363.491    4967.7292    -65331.22   0.14265426 
   20000    289.42771    152.73104    187721.46   -60359.774    5030.5729   -65390.347   0.14440955 
   20200    288.06755   -335.92305    188519.58   -60397.561    5006.9318   -65404.492    0.1433905 
   20400    285.65935     -104.915    188147.04   -60380.261    4965.0747   -65345.336   0.13958463 
   20600    283.45666    402.76001    187339.72   -60369.391    4926.7895   -65296.181   0.14329834 
   20800     288.4831    43.215307    187910.22   -60362.045    5014.1546     -65376.2   0.14496418 
   21000    283.47606   -454.09196    188701.75   -60361.929    4927.1266   -65289.056    0.1469341 
   21200     283.1457    30.363305    187887.54   -60351.303    4921.3847   -65272.688   0.13992255 
   21400    290.85342    513.34496    187253.31   -60332.582    5055.3533   -65387.935    0.1452917 
   21600    286.81799   -181.40602    188259.96   -60290.342    4985.2131   -65275.555   0.15202224 
   21800    287.02411   -368.33933    188674.49   -60230.988    4988.7958   -65219.784   0.14480393 
   22000    287.50972    244.56128    187633.87   -60245.186    4997.2361   -65242.423   0.14489025 
   22200    283.67648    307.16595    187472.22   -60214.643    4930.6103   -65145.253   0.15498707 
   22400    290.10356    -265.2519    188463.59   -60182.648      5042.32   -65224.968   0.14967691 
   22600    290.39456   -232.93076    188460.49   -60177.677    5047.3778   -65225.055   0.14335039 
   22800     291.1324     232.0485    187658.96   -60234.787    5060.2024    -65294.99   0.14385755 
   23000    291.77406     167.2835    187781.22   -60234.932    5071.3551   -65306.287   0.14602006 
   23200    289.59308   -215.57864    188346.31   -60212.922    5033.4472   -65246.369    0.1475874 
   23400    291.64706    -73.53216    188161.25   -60229.264    5069.1478   -65298.412   0.14458317 
   23600    292.26268    193.51336     187752.7   -60240.651    5079.8478   -65320.498   0.14682134 
   23800    287.71747   -3.1491052    187994.54   -60185.586     5000.847   -65186.433   0.15372601 
   24000    291.94721   -154.73784    188274.26   -60223.022    5074.3646   -65297.387   0.14446127 
   24200    292.99438    68.647487    187968.86   -60202.382    5092.5656   -65294.948   0.14115966 
   24400    291.15312    72.388334    187822.31   -60225.881    5060.5625   -65286.443   0.14977774 
   24600    290.94323   -33.536061    188105.29   -60203.954    5056.9144   -65260.868   0.14333067 
   24800    288.90711   -84.931986    188213.24   -60134.195    5021.5244    -65155.72   0.14457483 
   25000    296.86023    34.104593    187974.72   -60150.221    5159.7583    -65309.98   0.14707709 
   25200    290.68027    64.571482     187911.8   -60193.335    5052.3438   -65245.679   0.15067713 
   25400    295.19565    -89.01259     188167.1   -60236.581    5130.8262   -65367.407   0.14619702 
   25600    297.46329   -66.569428    188144.11   -60267.698    5170.2402   -65437.938   0.14197794 
   25800    290.04925    68.742696    187845.45   -60239.268    5041.3761   -65280.644    0.1496463 
   26000    291.34001    38.038249    187892.11   -60228.531    5063.8108   -65292.342   0.15008631 
   26200    288.26916   -112.76038    188155.46   -60274.102    5010.4361   -65284.538   0.14646206 
   26400    293.82581   -33.552784    188015.93    -60310.85    5107.0168   -65417.867   0.14525229 
   26600    290.03773    145.82824    187755.99   -60300.049    5041.1757   -65341.225   0.15062118 
   26800    284.09999    24.059529    187949.27   -60315.084    4937.9714   -65253.056   0.14930515 
   27000    286.45246   -131.81537    188166.25   -60311.344    4978.8598   -65290.204   0.14599737 
   27200    290.61079    32.084427    187902.75   -60288.135    5051.1361   -65339.271   0.15201049 
   27400    289.89942    110.91421    187758.24    -60267.76    5038.7718   -65306.532   0.15154195 
   27600    289.78494   -42.821754    188085.07   -60277.043     5036.782   -65313.825   0.14851128 
   27800    285.01413   -116.61515    188164.07    -60252.56    4953.8601   -65206.421   0.15130835 
   28000     287.8223    75.698774    187842.34   -60255.731    5002.6691   -65258.401   0.15455865 
   28200    288.10318    57.372816    187852.19   -60282.841    5007.5512   -65290.392   0.15036566 
   28400    286.44527   -115.58018    188155.63   -60268.423    4978.7349   -65247.158   0.14781047 
   28600    290.83687   -57.487938    188080.13   -60289.279    5055.0658   -65344.345   0.14953591 
   28800    286.65883     109.7368    187789.18   -60308.121    4982.4467   -65290.568   0.14838776 
   29000    287.22301    38.415925    187921.23   -60363.016    4992.2529   -65355.269   0.14899733 
   29200    286.37715   -170.86422    188199.89   -60395.171    4977.5509   -65372.722   0.14742172 
   29400    284.70995  -0.04925936    187966.83    -60379.75    4948.5731   -65328.323   0.14694604 
   29600    285.29581    158.54515     187709.9   -60330.778    4958.7561   -65289.534   0.14952798 
   29800    288.76284   -37.053963     188073.7   -60273.377    5019.0168   -65292.394   0.14377709 
   30000     286.1142    -241.9018    188371.13    -60244.72    4972.9806   -65217.701   0.14585497 
   30200     287.6572    71.680625    187902.49   -60250.937    4999.7996   -65250.737   0.14581649 
   30400    290.70521    263.07257    187632.86   -60343.896    5052.7774   -65396.673   0.14389434 
   30600    292.23287   -133.30994    188253.31   -60274.293    5079.3298   -65353.623   0.14372995 
   30800    288.64843   -229.55881    188472.06   -60237.422    5017.0282   -65254.451    0.1450272 
   31000    291.50149    155.49467    187747.78   -60246.386    5066.6175   -65313.004   0.14896525 
   31200    291.78596    259.30045    187630.85   -60231.884     5071.562   -65303.446     0.145602 
   31400    290.15591   -225.61925    188484.14   -60243.203      5043.23   -65286.433   0.14466564 
   31600    290.72808   -237.57868    188441.65   -60272.282    5053.1749   -65325.457   0.14547235 
   31800    290.21604    262.91066    187515.86   -60251.963     5044.275   -65296.238   0.15117074 
   32000    286.79848     160.1631    187755.42   -60226.158     4984.874   -65211.032   0.14658129 
   32200     292.9786   -346.16249    188626.61   -60229.262    5092.2914   -65321.553   0.14382733 
   32400    288.12284    -101.1906    188207.28   -60251.899    5007.8929   -65259.792   0.15124858 
   32600    290.04501    358.91817    187451.43   -60240.948    5041.3023    -65282.25   0.14928373 
   32800    294.03081    11.682782     187992.4   -60227.435      5110.58   -65338.015     0.144659 
   33000    292.91876   -320.02144    188570.85   -60202.291    5091.2512   -65293.543   0.14903497 
   33200    292.28562    61.812391    187982.17   -60205.842    5080.2466   -65286.088   0.14600508 
   33400    290.71326    278.97655    187610.28   -60166.413    5052.9172   -65219.331   0.15078343 
   33600    293.05799   -114.85582    188245.33   -60090.202    5093.6712   -65183.873   0.14527504 
   33800    290.50499   -238.53674    188471.41   -60152.415    5049.2973   -65201.712    0.1503154 
   34000    289.60941    127.51317    187831.84   -60166.486    5033.7311   -65200.217   0.15178103 
   34200    289.52845    214.14948    187725.76   -60227.087     5032.324   -65259.411   0.14182465 
   34400     287.4368   -166.32733    188336.95   -60271.495    4995.9687   -65267.464    0.1466817 
   34600    293.31587   -144.59484    188337.44   -60236.624    5098.1534   -65334.777   0.14647523 
   34800    287.68758    149.67212     187752.7   -60303.368    5000.3275   -65303.696   0.14647976 
   35000    289.22808    121.39865    187792.86   -60315.241    5027.1031   -65342.344   0.14375784 
   35200    289.25121   -182.44489    188295.79   -60321.028    5027.5052   -65348.533   0.14455064 
   35400    288.01927   -104.69799    188162.33   -60265.952    5006.0927   -65272.044   0.15010481 
   35600      287.309    160.30407    187719.33   -60269.975    4993.7474   -65263.723   0.14855278 
   35800    289.42057     45.86932    187926.97   -60269.238    5030.4489   -65299.687    0.1432339 
   36000    288.58032   -216.69068    188338.61   -60262.258    5015.8443   -65278.102   0.14613282 
   36200    290.70775   -45.513706    188057.63   -60277.704    5052.8214   -65330.526   0.14739023 
   36400    291.58563    217.51852    187706.54   -60278.495      5068.08   -65346.575   0.14074066 
   36600    286.77702   -25.131423    188080.78   -60283.258    4984.5011   -65267.759   0.14300875 
   36800    286.85427   -172.39156    188296.16    -60284.35    4985.8438   -65270.194   0.15120216 
   37000    288.93174    65.617488    187839.01   -60302.289    5021.9525   -65324.241   0.14961556 
   37200    288.32812    158.60922    187692.49   -60272.433    5011.4609   -65283.894   0.14767196 
   37400    292.20413   -131.96039    188185.88   -60253.211    5078.8302   -65332.041   0.14979793 
   37600    290.57957   -127.29753    188268.19   -60274.895    5050.5935   -65325.489   0.14719792 
   37800    288.75344    139.96956    187774.95   -60243.676    5018.8533   -65262.529   0.15238709 
   38000    289.93833    149.20318    187789.05   -60315.827    5039.4481   -65355.275   0.14150447 
   38200     286.0838   -163.04763     188267.4   -60297.749    4972.4522   -65270.201   0.15077979 
   38400    284.80764     -93.5062     188157.5   -60258.077     4950.271   -65208.348   0.15372776 
   38600    288.48896    165.01717    187720.96   -60271.308    5014.2564   -65285.564   0.14883019 
   38800    285.14377    54.175307    187895.63   -60297.307    4956.1133    -65253.42   0.14839368 
   39000    289.13187   -158.46528    188279.56   -60337.566    5025.4309   -65362.997   0.14475563 
   39200    283.31751    -28.10452    188002.21   -60357.041    4924.3709   -65281.412   0.15153478 
   39400    292.63849    199.80173    187669.12   -60353.066    5086.3798   -65439.446   0.14072988 
   39600    287.62543    -8.935058    188015.49    -60426.55    4999.2473   -65425.797   0.14233645 
   39800    287.37073   -169.22919    188254.69   -60411.819    4994.8204   -65406.639   0.14804997 
   40000    286.66178    50.822604    187839.22   -60442.801    4982.4981   -65425.299   0.14435705 
   40200    280.23293    169.45927    187646.45   -60413.907    4870.7575   -65284.664   0.14874361 
   40400    285.22063    -109.0734    188099.25   -60400.387    4957.4492   -65357.836   0.14506854 
   40600    288.07163     -151.155    188222.83   -60418.166    5007.0028   -65425.169   0.15010621 
   40800    285.17312    128.36658    187715.81   -60452.358    4956.6235   -65408.981   0.14234403 
   41000      289.489    164.07958    187704.26   -60398.065    5031.6382   -65429.703   0.14185036 
   41200    289.65122    -150.6223     188231.8   -60389.698    5034.4578   -65424.156   0.14851457 
   41400    285.65143   -83.069846    188130.48   -60367.947     4964.937   -65332.884   0.14714951 
   41600    285.16765     217.3018    187622.43   -60374.983    4956.5283   -65331.511   0.14537464 
   41800    290.89535    81.176552    187850.02   -60387.435    5056.0821   -65443.517   0.14196928 
   42000    285.02207   -202.43377    188358.66   -60338.609    4953.9981   -65292.607   0.15085769 
   42200    286.89412   -79.560349    188041.57   -60351.676    4986.5364   -65338.213   0.14719551 
   42400    282.33073    246.86869    187547.78   -60446.431    4907.2196   -65353.651   0.14186148 
   42600    285.17997   -10.755445    187956.45   -60464.002    4956.7425   -65420.745   0.14717222 
   42800    288.73256   -282.08001    188408.29    -60450.79    5018.4905   -65469.281   0.14477754 
   43000    285.10277    23.410205    187921.37   -60428.368    4955.4007   -65383.769   0.14489315 
   43200    285.68481    286.68554    187562.47   -60428.635    4965.5173   -65394.152   0.14051422 
   43400    286.73026   -87.860872     188142.1   -60429.718    4983.6883   -65413.406   0.14535482 
   43600    288.20087   -251.03709     188392.6   -60435.106    5009.2492   -65444.356   0.14458635 
   43800    285.29586    144.00309    187771.33   -60390.412    4958.7569   -65349.169   0.14123918 
   44000    284.42944    193.86324    187654.69   -60417.537    4943.6975   -65361.235   0.14507704 
   44200     281.4041    -188.9268    188293.98   -60445.447    4891.1138   -65336.561   0.14666149 
   44400    287.54906   -176.76083    188256.99   -60413.836    4997.9199   -65411.756   0.14337714 
   44600    284.01188    239.34044    187623.83   -60355.702    4936.4399   -65292.142   0.14205591 
   44800    286.67557    79.004141    187840.25   -60334.395    4982.7378   -65317.133   0.14543802 
   45000    286.46813   -251.83591    188435.88   -60364.197    4979.1322   -65343.329   0.14717948 
   45200     289.1561   -38.662553    188072.04   -60369.121    5025.8521   -65394.973   0.14030125 
   45400    288.06495    264.62084    187532.54   -60421.923    5006.8866   -65428.809   0.14243814 
   45600    285.60268   -2.6744468    187997.68     -60412.6    4964.0896   -65376.689   0.14094585 
   45800    284.47359   -251.51589     188462.2   -60379.146     4944.465   -65323.611   0.14329692 
   46000    285.71543    47.073412    187962.17   -60387.201    4966.0495   -65353.251   0.13696915 
   46200    286.57151    244.05401    187612.71   -60422.998    4980.9291   -65403.927    0.1387161 
   46400     283.9936   -98.321443    188117.21   -60395.839     4936.122   -65331.961   0.14813982 
   46600    283.75699   -190.83933    188328.23   -60397.802    4932.0095   -65329.811   0.14404859 
   46800    289.83129    98.781457       187848   -60365.355    5037.5877   -65402.943   0.14138551 
   47000    289.61506    152.94011    187786.99   -60318.043    5033.8293   -65351.872   0.14341299 
   47200    288.38699   -142.25021    188242.21   -60301.126    5012.4841    -65313.61   0.14980894 
   47400    289.30933   -110.66861    188219.44    -60232.75    5028.5154   -65261.265   0.14495851 
   47600    292.12553    164.64343    187839.21   -60183.675     5077.464   -65261.139    0.1395371 
   47800    294.72497    55.683756    187976.92   -60138.118    5122.6452   -65260.763   0.14963036 
   48000    291.17175   -161.34931    188324.36    -60159.36    5060.8863   -65220.246   0.14899671 
   48200    290.80037   -26.581495    188106.33   -60171.535    5054.4313   -65225.966   0.14527071 
   48400    292.21976    141.10134    187820.42   -60160.284    5079.1019   -65239.386   0.14292994 
   48600    293.08779   -58.475093    188061.77   -60212.692    5094.1891   -65306.881   0.14947375 
   48800    290.32193   -111.17762    188238.43    -60154.07    5046.1154   -65200.185   0.14856283 
   49000    292.45616    42.277867    187989.96   -60149.106    5083.2108   -65232.316   0.14153207 
   49200    292.78063    121.74807    187861.74   -60168.671    5088.8504   -65257.521    0.1441203 
   49400    291.20665   -43.616532    188140.09   -60152.421    5061.4929   -65213.914   0.14603181 
   49600     288.7864   -121.84003    188195.86   -60176.978    5019.4263   -65196.404   0.14605068 
   49800    294.05331    70.138883    187884.12   -60203.388    5110.9711   -65314.359   0.13994606 
   50000    291.07419    73.554882    187903.66   -60172.468    5059.1906   -65231.659   0.14511564 
   50200    295.32275   -57.665171    188205.73       -60198    5133.0352   -65331.035   0.14380804 
   50400    289.91199   -71.977921    188131.96   -60203.408    5038.9902   -65242.398    0.1470358 
   50600    287.69216    108.71423    187878.29   -60253.314    5000.4072   -65253.722   0.14187578 
   50800    288.90677    41.967003     187988.6   -60253.437    5021.5184   -65274.955   0.14304051 
   51000    288.90654   -129.30802    188217.64   -60202.626    5021.5145    -65224.14   0.14838854 
   51200    292.74236   -9.2108783    188065.64   -60209.871    5088.1852   -65298.056   0.13629684 
   51400    288.38449    105.47089    187844.29   -60171.377    5012.4406   -65183.817   0.14443922 
   51600    294.87294   -10.956671    188068.07   -60179.144     5125.217   -65304.361   0.14765098 
   51800    290.04012   -134.05427     188264.9   -60190.405    5041.2174   -65231.622   0.14856404 
   52000    293.20118    34.167353     187994.8   -60109.437    5096.1601   -65205.597   0.14568367 
   52200    294.69688    111.95298    187846.73   -60110.082    5122.1569   -65232.239   0.15196106 
   52400    293.01069   -49.362798    188122.92   -60078.093    5092.8491   -65170.942   0.15344734 
   52600    290.25654    -66.04925    188184.14   -60096.848    5044.9789   -65141.827   0.14578629 
   52800     289.0974    59.476562    187917.59   -60117.293    5024.8318   -65142.125   0.14744082 
   53000    293.15942    69.786288     187926.4   -60130.111    5095.4342   -65225.545   0.14839652 
   53200    291.45404   -47.456457    188207.08   -60160.078    5065.7928   -65225.871   0.14735222 
   53400    290.93438   -54.928544    188143.41   -60172.703    5056.7605   -65229.464   0.14530831 
   53600    291.92888    115.77058    187872.19    -60186.42    5074.0461   -65260.466   0.14503273 
   53800    291.11976    43.360751    187974.89   -60167.085    5059.9826   -65227.067   0.15228479 
   54000    290.93765   -105.64497    188167.01   -60151.732    5056.8174    -65208.55   0.15147965 
   54200    293.55927    17.636292    188002.05   -60198.859    5102.3839   -65301.243   0.14398561 
   54400    286.29731    34.013506    187842.43   -60203.535    4976.1631   -65179.698   0.15795216 
   54600    287.68569   -15.965898    188031.37   -60164.591    5000.2947   -65164.886   0.15855081 
   54800    293.51033   -54.636522    188164.74   -60119.283    5101.5335   -65220.817   0.14414799 
   55000    292.62268    17.200068     188023.5   -60156.262     5086.105   -65242.367   0.14520656 
   55200    288.73796    70.349111    187903.38   -60156.805    5018.5843   -65175.389   0.15300323 
   55400    291.74444    18.157491    188041.39   -60201.264    5070.8403   -65272.104   0.14711031 
   55600    290.38365   -45.292929    188084.94   -60225.646    5047.1882   -65272.834   0.14420324 
   55800    288.04795    29.815467    187921.18   -60217.724    5006.5913   -65224.315   0.15306392 
   56000    291.78931    32.830823    187929.26   -60191.218    5071.6201   -65262.838   0.15596423 
   56200    290.84676   -38.114697    188086.47   -60218.343    5055.2377    -65273.58   0.14568276 
   56400    289.86617   -29.903146    188060.39   -60229.567    5038.1939   -65267.761   0.14689875 
   56600    293.86416    57.789996    187920.21    -60236.11    5107.6834   -65343.793   0.14666065 
   56800    285.51941    44.631509    187987.97   -60172.366    4962.6424   -65135.009   0.15347948 
   57000    292.04035   -40.166355    188163.24   -60195.678    5075.9835   -65271.662   0.14342297 
   57200    291.57368    1.0898717    188060.94   -60214.541    5067.8722   -65282.413   0.14588117 
   57400    289.50121    73.479504    187904.09   -60256.012    5031.8506   -65287.862   0.15037111 
   57600    286.77596     3.107514    187998.18   -60222.409    4984.4826   -65206.892   0.14993345 
   57800     291.4541   -60.070377     188101.8   -60275.845    5065.7938   -65341.639   0.14416967 
   58000     289.1852    8.5640384    187955.48   -60283.793    5026.3578   -65310.151   0.15140635 
   58200    287.15283    70.345119    187859.78   -60308.727    4991.0331    -65299.76   0.15567759 
   58400    288.33741   0.31928136    187989.12   -60298.602    5011.6224   -65310.225   0.14726529 
   58600     285.6304   -75.807169    188084.24   -60303.639    4964.5714   -65268.211   0.14812285 
   58800    285.17575    25.259255    187929.89    -60327.94    4956.6692   -65284.609   0.15175035 
   59000    287.19031    60.433117    187832.65   -60383.683    4991.6844   -65375.367   0.14585268 
   59200    288.12743    2.9308716    187993.07   -60301.478    5007.9727   -65309.451   0.14144146 
   59400    284.75005   -103.13361    188132.86   -60261.517    4949.2701   -65210.787   0.14690543 
   59600    286.47573    15.703316    187948.81   -60278.757    4979.2643   -65258.022   0.15646552 
   59800     291.5476    105.77614    187771.83   -60254.731     5067.419    -65322.15   0.15273005 
   60000    289.70756   -33.618803    188028.05   -60224.031     5035.437   -65259.468   0.14804438 
   60200    289.65626   -136.28371    188177.55   -60209.059    5034.5453   -65243.605    0.1519197 
   60400    288.32323    30.068054    187847.07    -60157.31    5011.3759   -65168.686   0.15623265 
   60600    291.91716     107.2842    187753.55   -60215.112    5073.8423   -65288.954     0.151691 
   60800    293.34461   -111.09219    188146.82   -60166.436    5098.6529   -65265.089   0.14377867 
   61000    291.73876   -85.812538    188200.44   -60203.352    5070.7416   -65274.094   0.15030528 
   61200    291.78833    161.51037    187734.13   -60212.558     5071.603   -65284.161   0.14907458 
   61400    289.41584    140.75813    187760.82   -60210.104    5030.3666   -65240.471   0.14451661 
   61600    289.13933   -167.84696    188330.78   -60187.999    5025.5606    -65213.56   0.14834817 
   61800    289.04921   -131.85102    188221.23   -60209.557    5023.9942   -65233.551   0.15170042 
   62000     289.7346    239.71533    187600.08    -60235.64     5035.907   -65271.547    0.1495807 
   62200    293.71986    76.759946    187851.68   -60204.027    5105.1752   -65309.202   0.14689266 
   62400    289.24526   -306.92585    188513.59    -60194.76    5027.4018   -65222.162   0.15136004 
   62600     293.3303   -17.476801    188073.19   -60230.241    5098.4043   -65328.645   0.14777252 
   62800    289.07376    367.53811    187422.66   -60155.072     5024.421   -65179.493   0.14559548 
   63000    294.63722   -24.773801    188070.45   -60143.633      5121.12   -65264.753   0.14542552 
   63200    294.02302   -399.03962    188648.47   -60147.702    5110.4445   -65258.146   0.15064904 
   63400    295.03968    100.57061    187820.17   -60107.834    5128.1152    -65235.95    0.1551981 
   63600    300.25535     390.8646    187418.11   -60090.567    5218.7693   -65309.336    0.1464963 
   63800    291.86354    -226.7406    188374.47   -60149.148    5072.9103   -65222.059   0.15156125 
   64000     289.2136   -333.50106    188560.43   -60129.093    5026.8515   -65155.944   0.15826202 
   64200    299.69719    263.34512     187608.6     -60131.2    5209.0679   -65340.268   0.14692984 
   64400    294.26106    260.87727    187615.22   -60132.646    5114.5819   -65247.228   0.14483348 
   64600    291.94213   -266.39043    188485.68   -60152.492    5074.2763   -65226.769   0.14902207 
   64800    294.18511   -167.91122    188307.48   -60175.378    5113.2618   -65288.639   0.15080804 
   65000    292.27442     280.2203    187583.59   -60196.734    5080.0519   -65276.786   0.14357198 
   65200     292.3579    76.420721    187899.56   -60212.013    5081.5028   -65293.516   0.14480651 
   65400    292.74169   -237.51111    188440.93   -60241.397    5088.1736    -65329.57   0.14591633 
   65600     291.0293   -3.1519553    188044.22   -60233.844    5058.4104   -65292.255   0.14667918 
   65800    286.96986    229.76949    187638.89    -60236.32    4987.8529   -65224.173   0.14688518 
   66000    290.34085   -26.040029    188050.48   -60226.644    5046.4443   -65273.088    0.1446827 
   66200    293.11516   -151.64858    188310.52   -60253.795    5094.6649    -65348.46   0.15039389 
   66400    290.45806    43.872395    187914.22   -60286.121    5048.4815   -65334.602   0.14500553 
   66600    288.52039    174.58007    187767.53   -60299.159    5014.8027   -65313.961    0.1360577 
   66800    285.73767    -84.26943    188123.22   -60291.133    4966.4359   -65257.568   0.14467441 
   67000    290.78633    -128.6336    188190.96   -60281.994    5054.1873   -65336.182   0.14525657 
   67200    287.47579    67.036679    187870.29   -60329.541    4996.6465   -65326.187   0.14419552 
   67400    288.11101    79.163419    187831.14   -60336.511    5007.6873   -65344.199    0.1462249 
   67600    290.98247   -70.291664    188121.95   -60289.635    5057.5964   -65347.232     0.148826 
   67800    289.16918   -87.910347    188142.41   -60221.426    5026.0794   -65247.506   0.14745086 
   68000    287.68428    80.027838    187875.39   -60234.735    5000.2702   -65235.005   0.14419149 
   68200    288.19592   -2.6555585    187921.21   -60312.065     5009.163   -65321.228   0.14353468 
   68400    288.64931   -72.554203    188124.28   -60272.812    5017.0436   -65289.856   0.14606668 
   68600    292.65766   -26.004982    188055.14   -60230.676    5086.7131    -65317.39   0.14628907 
   68800    293.79709    97.162634     187896.3   -60190.932    5106.5176    -65297.45   0.13944833 
   69000    291.12753    7.2078936     188018.4   -60246.814    5060.1177   -65306.931   0.14778593 
   69200    286.09353   -72.963075    188137.05   -60276.651    4972.6213   -65249.273   0.14847831 
   69400    285.52746    20.919255    188001.33   -60300.732    4962.7822   -65263.514   0.14234932 
   69600    287.07559    27.512519    187904.01   -60307.397    4989.6905   -65297.087   0.14381288 
   69800    290.10614   -16.510625    188033.44   -60276.583    5042.3648   -65318.948   0.14910204 
   70000     290.8118   -100.54447    188121.91   -60242.534    5054.6299   -65297.164   0.15092415 
   70200    292.74376    26.483404    187966.03   -60232.767    5088.2096   -65320.977   0.14329806 
   70400    288.74853    102.88565    187932.44    -60251.15     5018.768   -65269.918   0.13933667 
   70600    289.50444    -68.39932    188113.93    -60182.01    5031.9066   -65213.917    0.1472474 
   70800     289.1629   -30.158397    188109.03    -60258.31    5025.9702    -65284.28   0.14143132 
   71000    289.08826     64.10735    187902.47   -60294.079    5024.6729   -65318.752   0.13947626 
   71200    281.48897     29.01398    187913.72   -60297.552    4892.5889   -65190.141   0.15032185 
   71400    291.87505   -58.527049    188185.24   -60237.786    5073.1104   -65310.896   0.14596743 
   71600    288.69598    -68.50313     188135.4   -60248.366    5017.8547   -65266.221   0.14637604 
   71800     289.3312    125.18617    187822.15   -60221.944    5028.8955   -65250.839   0.14415531 
   72000    288.08357    33.112625    187937.12   -60270.388    5007.2104   -65277.599   0.14413342 
   72200     290.5777   -118.61452    188230.48   -60282.785    5050.5611   -65333.346   0.14274685 
   72400    292.95543    15.829281    188025.22   -60279.706    5091.8886   -65371.594   0.13725982 
   72600    288.91019    178.11868    187738.52   -60261.535    5021.5778   -65283.113   0.14240294 
   72800    282.42591    -52.24116    188012.34   -60337.996    4908.8739    -65246.87   0.14770315 
   73000    286.48348   -179.17745    188241.95   -60328.087     4979.399   -65307.486   0.14785455 
   73200    285.93668    47.802726    187859.44   -60370.353     4969.895   -65340.248   0.13973172 
   73400    288.10727    159.45718    187692.29   -60335.641    5007.6222   -65343.263   0.14635218 
   73600    287.67828   -92.106836     188147.2   -60306.109    5000.1659   -65306.275   0.15018745 
   73800    283.69915   -194.34202    188283.46   -60313.817    4931.0042   -65244.821   0.14424126 
   74000    286.40395    167.08355    187766.15   -60353.429    4978.0167   -65331.446   0.14164581 
   74200    290.01821    188.50237    187739.81    -60363.88    5040.8365   -65404.717   0.13905232 
   74400    285.42114   -210.57993    188291.63    -60325.32    4960.9343   -65286.255   0.14771484 
   74600    286.06289    -79.58711    188213.35    -60315.37    4972.0887   -65287.458   0.13737515 
   74800    285.21256     200.5405    187673.34   -60340.382     4957.309   -65297.691   0.14126257 
   75000    288.58359    103.59161    187879.01    -60304.62    5015.9012   -65320.521   0.14492828 
   75200    291.80264   -231.26082    188445.58   -60279.598    5071.8518    -65351.45   0.14686393 
   75400    287.32448   -45.826396    188121.07   -60271.595    4994.0164   -65265.612   0.14550395 
   75600    293.58351    308.48632    187593.13    -60248.13    5102.8054   -65350.936   0.14068243 
   75800    288.35324    25.897039    188028.42   -60218.522    5011.8975   -65230.419   0.14791194 
   76000    291.51888   -256.01631    188482.02   -60202.206    5066.9198   -65269.126   0.13988972 
   76200    289.50921     33.23304    187942.17   -60217.412    5031.9896   -65249.402    0.1402813 
   76400    293.23498    321.92423    187560.01   -60170.106    5096.7476   -65266.854   0.14448669 
   76600    287.53222   -124.48606    188182.24   -60221.569    4997.6273   -65219.197   0.15082186 
   76800    291.73957   -271.51344    188412.15   -60206.792    5070.7557   -65277.547   0.14977003 
   77000    287.20316    148.67201    187748.69   -60222.811    4991.9078   -65214.718   0.14860844 
   77200    288.17406    207.71681    187620.71    -60260.18    5008.7831   -65268.963   0.15150724 
   77400    293.70503   -98.748771    188265.42   -60208.961    5104.9174   -65313.879   0.14363534 
   77600    292.75321   -194.59432    188264.86    -60274.93    5088.3738   -65363.304   0.14685997 
   77800     287.4337    224.13116    187612.57   -60285.121    4995.9149   -65281.036   0.14493275 
   78000    288.94938    128.18142    187780.03   -60277.652     5022.259   -65299.911   0.14540159 
   78200    289.39279   -199.36196    188354.65   -60276.029    5029.9661   -65305.995   0.14173854 
   78400    290.37897   -58.355647    188081.29   -60298.605    5047.1069   -65345.712   0.14291009 
   78600    287.87896    232.59366    187581.34   -60311.393     5003.654   -65315.047   0.14707652 
   78800    289.43466     28.80656    187949.48   -60303.835    5030.6937   -65334.528   0.14462331 
   79000    292.65157   -170.70838    188344.25    -60271.63    5086.6071   -65358.237   0.14236405 
   79200     288.7926   -2.2241134    187937.05   -60272.774     5019.534   -65292.308    0.1481034 
   79400    284.94048    181.33884    187630.98   -60241.063    4952.5799   -65193.643   0.15389153 
   79600    289.43522   -44.471385    188105.44     -60242.6    5030.7034   -65273.304   0.14324509 
   79800     292.9084   -184.58556    188349.55   -60268.412    5091.0711   -65359.483   0.13843662 
   80000    288.92634    91.244367    187869.43   -60222.923    5021.8586   -65244.782   0.14592452 
   80200    293.10719    167.25892    187740.55   -60169.177    5094.5263   -65263.703   0.14613266 
   80400    289.36585   -108.05979    188264.13   -60141.536    5029.4977   -65171.034    0.1466782 
   80600    291.74886   -158.38671    188315.05    -60141.98    5070.9171   -65212.897   0.15014933 
   80800    290.33931    140.11504    187786.27   -60110.669    5046.4175   -65157.087   0.15276777 
   81000    290.71285    96.669653    187874.18   -60181.059    5052.9101   -65233.969   0.14596546 
   81200    290.03388   -171.23852    188352.51   -60138.231    5041.1088   -65179.339   0.14474829 
   81400    294.83872   -86.095482    188170.76   -60119.897    5124.6222   -65244.519   0.14751187 
   81600    294.44644    223.09694    187706.92   -60144.032     5117.804   -65261.836   0.14875752 
   81800    293.73551    68.988621     187934.1   -60169.392    5105.4472   -65274.839   0.14516209 
   82000    290.86635   -209.30945    188336.69   -60130.556    5055.5781   -65186.134   0.14836985 
   82200    289.06041   -49.916751    188031.33    -60195.12    5024.1888   -65219.309   0.15017166 
   82400    291.39172    204.21735    187695.73   -60195.895    5064.7096   -65260.605   0.14537871 
   82600    289.53886   -27.266552    188022.71   -60235.906    5032.5049   -65268.411   0.14290844 
   82800     289.1856   -149.17675    188239.74   -60234.764    5026.3649   -65261.129   0.14849635 
   83000    286.71679    23.541396    187909.82   -60238.334    4983.4541   -65221.788   0.15475034 
   83200    286.57153    141.53643    187810.31   -60265.085    4980.9294   -65246.014   0.14492585 
   83400    288.60812    -61.55371    188106.06   -60281.216    5016.3275   -65297.544   0.14345081 
   83600    291.50161   -48.027697    188110.16    -60307.38    5066.6196   -65373.999   0.13978703 
   83800    289.53712     61.25838    187886.23   -60252.099    5032.4746   -65284.574   0.14469844 
   84000    289.19101    49.421708    187952.15   -60284.206    5026.4589   -65310.665   0.14110058 
   84200    288.52565   -64.730038    188141.49   -60265.716    5014.8942    -65280.61   0.14381907 
   84400    293.71992    14.206787    188072.14   -60285.251    5105.1763   -65390.427   0.14170967 
   84600    288.13623    37.902979    187932.22   -60280.968    5008.1255   -65289.094    0.1453305 
   84800     289.5367     9.684078    187972.66    -60273.92    5032.4674   -65306.387   0.14571971 
   85000    294.63545   -41.671047    188069.42   -60230.997    5121.0893   -65352.087   0.14319098 
   85200    289.64904    4.3288129    188005.22   -60203.444    5034.4199   -65237.864   0.14740025 
   85400    291.39958     38.05636    187952.97   -60188.607    5064.8462   -65253.453    0.1467734 
   85600    289.19478   -47.166668    188069.88   -60203.195    5026.5243    -65229.72    0.1458831 
   85800    288.19573   -55.809106    188129.85   -60214.409    5009.1597   -65223.569   0.14742978 
   86000    296.07126    50.760758    188019.09   -60160.451    5146.0452   -65306.496   0.14412824 
   86200     294.2382    64.310567    187984.87   -60160.647    5114.1847   -65274.832   0.14240328 
   86400    290.56513    4.2997152    188104.05   -60152.117    5050.3425    -65202.46   0.14479691 
   86600    294.18692    13.799679    188122.47   -60141.211    5113.2933   -65254.504   0.14991352 
   86800    291.03694    40.644105     187993.5   -60182.053    5058.5432   -65240.596    0.1494001 
   87000    291.05797    12.884243    188025.98   -60209.201    5058.9087   -65268.109   0.14793335 
   87200    291.05271   -68.881219    188167.13   -60169.571    5058.8173   -65228.388   0.14899321 
   87400    288.21715    2.5194092    188094.11    -60143.66     5009.532   -65153.192   0.14708358 
   87600    289.96851    71.342389    187951.24   -60207.433    5039.9727   -65247.406   0.14258404 
   87800    288.37959   -6.5080176    188038.31   -60228.299    5012.3555   -65240.654   0.14318763 
   88000    293.69631   -63.223508    188141.12     -60162.2     5104.766   -65266.966   0.14806192 
   88200    292.98854    17.812566    188051.77   -60173.018    5092.4641   -65265.482   0.14788863 
   88400    288.84151    29.281263       187998   -60169.305    5020.3842   -65189.689   0.14710322 
   88600    290.74629   -61.334538    188106.81   -60168.952    5053.4913   -65222.444   0.14921487 
   88800    290.28908   -43.542388    188122.36   -60142.395    5045.5446    -65187.94   0.15015278 
   89000    292.03252    30.950753    187996.46   -60188.707    5075.8475   -65264.554    0.1446573 
   89200    291.02485    14.804206    188006.57   -60168.562     5058.333   -65226.895   0.14449403 
   89400    288.49906   -33.545886    188164.61   -60128.073     5014.432   -65142.505   0.15032165 
   89600    282.02361   -100.37538    188125.92     -60168.7    4901.8816   -65070.581   0.15583675 
   89800    288.55388    112.12204    187861.27   -60191.522    5015.3848   -65206.907   0.14717065 
   90000    289.17553    80.799262    187892.69   -60215.823    5026.1898   -65242.013   0.14475647 
   90200    290.80407   -105.28314    188211.57   -60260.561    5054.4956   -65315.057   0.14588717 
   90400    290.70215   -33.904736     188113.8   -60289.842     5052.724   -65342.566   0.14577897 
   90600    288.79338    139.06392    187776.76   -60267.512    5019.5476    -65287.06   0.14701185 
   90800    285.32944    48.060889    187912.09   -60328.003    4959.3405   -65287.344   0.14846229 
   91000    287.30031   -131.67792    188226.47   -60328.338    4993.5964   -65321.935   0.14790324 
   91200    287.70308   -3.4311448    188003.71   -60314.123    5000.5971    -65314.72   0.14531642 
   91400     284.6724    119.74808       187734   -60326.925    4947.9204   -65274.845   0.14434397 
   91600    287.70982   -10.869122    188006.63   -60306.113    5000.7141   -65306.827   0.14345836 
   91800    286.43443   -120.85449       188218   -60300.938    4978.5465   -65279.484   0.14588005 
   92000    287.34639    69.595175    187920.79   -60317.261    4994.3974   -65311.658   0.14418607 
   92200    290.53247    145.14125    187782.57   -60309.917    5049.7749   -65359.692   0.14525516 
   92400    288.54304   -62.821672    188149.62   -60292.872    5015.1965   -65308.068   0.14548988 
   92600    288.38173   -132.17759     188240.1   -60336.135    5012.3926   -65348.528   0.14589563 
   92800    290.26487    108.41297     187793.3   -60309.909    5045.1237   -65355.033   0.14437952 
   93000    291.00677     143.8004    187786.87   -60218.038    5058.0187   -65276.057   0.14605676 
   93200      290.483   -168.71939    188309.18    -60252.92    5048.9151   -65301.835   0.15031946 
   93400    289.15632   -106.12413    188192.09   -60223.884     5025.856    -65249.74   0.14845833 
   93600    290.56085    223.79869    187687.29   -60211.906    5050.2682   -65262.174   0.14433988 
   93800    296.17585    80.039833    187912.61   -60215.427     5147.863    -65363.29   0.14565107 
   94000    292.48905   -215.81092    188407.96   -60243.896    5083.7823   -65327.679   0.14758624 
   94200    286.92038    -67.39355    188063.79   -60292.784    4986.9928   -65279.777   0.14642572 
   94400    289.76079    307.07114       187596    -60283.59    5036.3622   -65319.952   0.14601766 
   94600    286.99505   -49.789934    188050.13   -60282.171    4988.2907   -65270.462   0.15018685 
   94800    284.18919    -240.0007    188408.17   -60335.714    4939.5218   -65275.236   0.14811558 
   95000    285.37146    114.12915    187843.93   -60378.495    4960.0709   -65338.566   0.14247578 
   95200    287.94402    233.94925    187584.93   -60367.094    5004.7848   -65371.879   0.14129658 
   95400     284.4426   -160.78438    188193.98   -60371.166    4943.9262   -65315.093   0.14860362 
   95600    287.07448   -164.47273    188297.66   -60334.327    4989.6712   -65323.998   0.14447838 
   95800    286.34386    140.93543    187700.65   -60303.491    4976.9722   -65280.463   0.14781483 
   96000     289.6435    126.66625    187728.27   -60282.897    5034.3237   -65317.221   0.15101609 
   96200    291.60705    -218.4046    188338.65   -60323.452    5068.4522   -65391.904   0.14902522 
   96400    291.13359   -107.12961    188173.06   -60329.703    5060.2231   -65389.926   0.14281602 
   96600    287.72156    247.25507    187561.45   -60349.783    5000.9181   -65350.701   0.13985277 
   96800    282.94217    46.986247    187812.62   -60421.476    4917.8471   -65339.323    0.1478444 
   97000     289.0894    -226.0504    188333.74    -60359.15    5024.6927   -65383.843   0.14341835 
   97200    288.78805   -27.561972    188027.99   -60361.816     5019.455   -65381.271   0.14313486 
   97400    284.08138    229.35172    187581.85   -60310.182    4937.6479    -65247.83   0.14750432 
   97600    293.90332    14.324004    188025.64   -60282.971    5108.3641   -65391.335   0.14486814 
   97800    289.86721   -241.73227    188411.97   -60279.615     5038.212   -65317.827   0.14804703 
   98000    287.22869     58.56086    187860.75    -60240.41    4992.3516   -65232.762   0.14662806 
   98200    288.77095    271.55059    187557.71   -60254.933    5019.1577   -65274.091   0.14877055 
   98400    288.08916   -102.38257    188201.17   -60186.493    5007.3075   -65193.801   0.15173413 
   98600    287.94737   -247.76227    188424.19   -60250.727     5004.843    -65255.57   0.14761777 
   98800     292.2437    192.23528    187711.71   -60210.214     5079.518   -65289.732   0.14750253 
   99000    288.12575    199.22851    187628.65   -60214.667    5007.9434    -65222.61   0.15291042 
   99200    289.85859   -232.49772    188363.45   -60291.215    5038.0622   -65329.277   0.14424306 
   99400    290.54566   -160.36666    188215.81    -60386.92    5050.0042   -65436.924   0.14325529 
   99600     278.6711    270.49505    187463.25   -60404.304    4843.6112   -65247.915   0.14892329 
   99800    284.69713    116.63118    187771.43   -60360.359    4948.3502   -65308.709   0.14931447 
  100000    283.11851   -340.02017    188437.64   -60360.937     4920.912   -65281.849   0.15319088 
  100200    288.19349    7.7147274    187986.94   -60314.803    5009.1208   -65323.924   0.14444985 
  100400    289.53556    299.29097    187441.36   -60310.007    5032.4475   -65342.454   0.14677095 
  100600    291.70662   -27.383548    188059.57   -60257.922    5070.1829   -65328.105   0.14473509 
  100800    289.74226   -299.75881    188515.26   -60279.359    5036.0402   -65315.399   0.14250283 
  101000    290.34238    55.685338     187832.4   -60273.119    5046.4709    -65319.59   0.14821793 
  101200    291.98203    274.41143    187536.52   -60241.458    5074.9699   -65316.427   0.14961082 
  101400    290.91474   -129.38746    188232.54   -60267.426    5056.4192   -65323.845   0.14688587 
  101600    289.28391    -234.5328    188384.74    -60281.28    5028.0735   -65309.354   0.14624399 
  101800     292.1732    181.71276    187775.88    -60245.64    5078.2926   -65323.932   0.14237071 
  102000    290.27887      178.052    187808.94   -60244.573    5045.3671    -65289.94   0.14397579 
  102200      294.363   -141.95177    188357.78   -60219.833    5116.3538   -65336.187   0.14369775 
  102400    289.72525   -85.800937    188237.28   -60184.236    5035.7446   -65219.981   0.14441809 
  102600    296.70956    173.20011    187791.23   -60179.127    5157.1396   -65336.267   0.14465216 
  102800    290.38277    36.058623    187995.28   -60195.274     5047.173   -65242.447   0.14928853 
  103000    289.95547   -151.79732    188333.11   -60197.636     5039.746   -65237.382   0.14738323 
  103200    290.97887   -28.785568    188099.88   -60185.969    5057.5337   -65243.503   0.14425241 
  103400    292.41499    122.60932    187863.46   -60199.983    5082.4952   -65282.478   0.14629233 
  103600    291.23359    -3.764704    188061.05   -60219.987    5061.9611   -65281.948   0.14922983 
  103800    290.58967   -90.128499    188191.82   -60227.428    5050.7691   -65278.197   0.14755139 
  104000     293.3755    39.972747    187984.09   -60238.762      5099.19   -65337.952   0.14567356 
  104200    292.28621    64.648144    187887.47   -60249.796    5080.2568   -65330.053   0.15064149 
  104400    290.19192   -49.247656    188080.08   -60259.904    5043.8558    -65303.76   0.14927862 
  104600    290.95447   -41.657621     188126.7   -60236.084    5057.1098   -65293.194   0.14321495 
  104800    289.05074    44.102015    187907.22   -60227.935    5024.0208   -65251.956   0.14635047 
  105000    290.16584    75.423765    187858.16   -60240.971    5043.4025   -65284.374   0.15221544 
  105200    287.26298   -65.139438    188085.21   -60259.531    4992.9475   -65252.478   0.14943343 
  105400    285.51935   -68.968228     188088.5   -60243.768    4962.6413   -65206.409   0.15149887 
  105600    288.38442    66.432654    187925.09   -60240.789    5012.4394   -65253.229    0.1493426 
  105800    286.67451   0.51937237    187989.68   -60249.852    4982.7193   -65232.571    0.1505443 
  106000    289.12835    -82.18903    188112.17   -60219.556    5025.3698   -65244.926   0.14688523 
  106200    290.68053    31.170805    187984.78   -60206.897    5052.3484   -65259.245   0.14796432 
  106400    287.79078    46.203884    187877.95   -60229.101    5002.1213   -65231.222   0.15178348 
  106600    294.45622    6.1394107    188030.45   -60233.937     5117.974   -65351.911    0.1457908 
  106800    291.99257   -86.479117    188106.67   -60221.071    5075.1531   -65296.224   0.14816361 
  107000    291.68302    58.849222    187919.19   -60187.788    5069.7727   -65257.561   0.14978426 
  107200    291.63877     54.50884    187922.39   -60172.848    5069.0036   -65241.851   0.15145168 
  107400    288.40705   -79.638591     188175.2   -60177.148    5012.8328    -65189.98   0.15042889 
  107600      291.798   -57.733399     188127.1    -60127.16    5071.7713   -65198.932   0.14949287 
  107800    295.17289    115.31699    187887.62   -60147.267    5130.4305   -65277.697   0.15186872 
  108000    289.11818    18.922595    187995.73   -60137.713    5025.1929   -65162.906   0.15173335 
  108200    291.83611   -124.54627    188250.41   -60168.417    5072.4335    -65240.85   0.14375251 
  108400    292.63905    18.546438    188054.46   -60168.034    5086.3895   -65254.424   0.14702436 
  108600     293.8498    100.78078    187808.05   -60146.952    5107.4338   -65254.386   0.15221734 
  108800    294.72525   -14.167727    188090.59   -60165.271      5122.65   -65287.921    0.1480751 
  109000    288.18582    -202.7122    188315.74    -60226.27    5008.9875   -65235.258   0.15006747 
  109200    292.21419    76.124836    187870.25   -60218.515    5079.0051   -65297.521     0.151487 
  109400    288.36808    205.73737    187640.82   -60208.394    5012.1554   -65220.549   0.15201679 
  109600    293.03481   -136.50037    188252.48   -60151.203    5093.2683   -65244.471   0.14525077 
  109800    293.20823   -233.55143    188418.34   -60189.903    5096.2825   -65286.185   0.14487703 
  110000    294.79408    237.20951    187654.74   -60138.597    5123.8463   -65262.444    0.1500802 
  110200    290.82133    250.45789    187619.41   -60122.523    5054.7956   -65177.319   0.15260735 
  110400    291.74294   -269.18079    188494.92   -60202.649    5070.8142   -65273.463   0.14650688 
  110600     290.1868   -192.92629    188325.35   -60272.826    5043.7668   -65316.592    0.1493284 
  110800    289.30113    303.97004    187421.62   -60263.528    5028.3728   -65291.901   0.15525932 
  111000    288.89501    147.27172    187793.05     -60257.8     5021.314   -65279.114   0.14660563 
  111200    287.17356   -419.10793    188657.97   -60254.994    4991.3933   -65246.387   0.14994243 
  111400    285.23435   -41.713864    188129.35    -60324.41    4957.6877   -65282.098    0.1453802 
  111600    283.54604      346.979    187389.55   -60378.493     4928.343   -65306.836   0.15051029 
  111800    289.48256   -5.2664936    187989.56   -60406.139    5031.5264   -65437.665   0.14465188 
  112000    288.75667   -317.91959    188514.13   -60405.514    5018.9096   -65424.423   0.14360974 
  112200    285.57367    86.065775    187832.18   -60363.493    4963.5855   -65327.079   0.14860552 
  112400     288.5974    293.71844    187494.76   -60323.126    5016.1412   -65339.267   0.15131209 
  112600    287.71491   -103.14823    188174.95   -60316.442    5000.8026   -65317.245   0.14662164 
  112800    286.56985   -261.47876    188396.81   -60322.222    4980.9002   -65303.122   0.14879202 
  113000    285.32697    105.60465       187806   -60287.049    4959.2975   -65246.346   0.15582155 
  113200     283.3084    178.50321    187733.01   -60353.637    4924.2127    -65277.85   0.14701418 
  113400    286.23115   -152.08232    188234.95     -60315.2    4975.0132   -65290.213   0.14676777 
  113600    288.82638   -84.687425    188168.76   -60313.486    5020.1211   -65333.607   0.14443122 
  113800    291.25343    204.50429    187737.69   -60300.593     5062.306   -65362.899   0.14341858 
  114000    287.96341    32.817306    187874.21   -60288.642    5005.1218   -65293.764   0.14893388 
  114200    285.87051   -143.16528    188196.09   -60302.297    4968.7448   -65271.041   0.14612229 
  114400    285.83586   -12.181792    188008.87   -60233.606    4968.1427   -65201.748   0.15467431 
  114600    294.37188    172.88533    187777.23   -60202.428     5116.508   -65318.936   0.14902715 
  114800    291.11884    2.0311725    188002.04   -60178.296    5059.9667   -65238.262   0.14961273 
  115000    289.59833   -115.70173    188161.55   -60231.295    5033.5386   -65264.833   0.14772471 
  115200    286.15603    28.327477    187883.84   -60254.935    4973.7075   -65228.642   0.15293604 
  115400    292.94987    85.605048    187773.19   -60260.204     5091.792   -65351.996   0.14877575 
  115600    288.98652   -50.418429     188048.9   -60237.471    5022.9047   -65260.375   0.14994376 
  115800    283.65362   -151.90405     188132.7   -60245.602     4930.213   -65175.815   0.15940638 
  116000    289.88774    104.49923    187864.94   -60235.019    5038.5688   -65273.588   0.14763114 
  116200    289.24541    88.151981    187891.77   -60257.495    5027.4044   -65284.899   0.14768109 
  116400    289.09015   -68.435435    188164.03   -60301.453    5024.7058   -65326.159   0.14661459 
  116600    285.99888   -29.364019     188063.4   -60312.876    4970.9761   -65283.852    0.1505042 
  116800    285.78823    87.975557    187826.93   -60276.557    4967.3148   -65243.872   0.15500103 
  117000    288.94962   -14.799956    187997.64   -60281.813    5022.2632   -65304.076   0.14895496 
  117200    292.21339    -118.1391    188203.73   -60256.127    5078.9911   -65335.118   0.14983667 
  117400    290.02295    52.320967     187988.1   -60286.246    5040.9188   -65327.165   0.14551289 
  117600    285.91176    92.395987    187824.43   -60272.177    4969.4618   -65241.639   0.14901785 
  117800    291.07573    -28.98627    188089.82   -60222.713    5059.2173   -65281.931   0.14889661 
  118000    288.77047   -133.78942     188246.2    -60231.56    5019.1494   -65250.709   0.15227553 
  118200    289.18425    17.647791     187896.7   -60249.667    5026.3413   -65276.009   0.15603536 
  118400    284.28718    137.01637    187738.25   -60314.171    4941.2249   -65255.395   0.14889473 
  118600    287.27551    -77.67067    188142.41   -60358.278    4993.1654   -65351.443   0.14922228 
  118800    286.40874   -158.10384    188231.24   -60394.042    4978.0999   -65372.142   0.14471262 
  119000    284.20734    167.86985    187654.81   -60404.909    4939.8372   -65344.746   0.14326288 
  119200    288.47901    202.53882    187623.03   -60395.728    5014.0834   -65409.811   0.14402336 
  119400    286.34456   -281.75629    188408.65   -60428.239    4976.9844   -65405.224   0.14400359 
  119600    288.13362   -178.75828    188276.57    -60354.24    5008.0802    -65362.32   0.15106991 
  119800    290.36207    366.62043    187322.22   -60350.977    5046.8131    -65397.79     0.146919 
  120000    287.07186    160.54487     187729.8   -60379.588    4989.6257   -65369.214   0.14142155 
  120200    284.42939   -458.30294    188760.91    -60359.05    4943.6967   -65302.747   0.14915294 
  120400    287.65912   -55.602832    188088.37   -60394.238    4999.8328   -65394.071   0.14737866 
  120600    286.89451     522.4175    187130.03   -60385.387    4986.5432   -65371.931   0.14850441 
  120800    286.11844   -42.496769    187994.74   -60364.488    4973.0542   -65337.542   0.14989932 
  121000    287.19141    -447.8161    188714.34   -60362.908    4991.7036   -65354.612   0.15096304 
  121200    286.94662    154.72475    187745.31    -60338.96    4987.4489   -65326.409   0.14901933 
  121400     284.5851    412.77249     187311.2   -60362.555     4946.403   -65308.958    0.1474898 
  121600    284.15881    -193.1527    188274.68   -60327.912    4938.9936   -65266.905   0.14990516 
  121800    287.11563   -292.23819    188475.29   -60334.641    4990.3865   -65325.027   0.15225121 
  122000    288.14919    237.72423    187595.41   -60309.143    5008.3509   -65317.494   0.15362812 
  122200    291.26324    230.68913    187593.61   -60275.496    5062.4765   -65337.972   0.15265544 
  122400    289.98295   -233.44774    188383.81    -60225.18    5040.2237   -65265.403   0.15300273 
  122600     294.9964   -167.38273    188280.59   -60142.239     5127.363   -65269.602   0.15545455 
  122800     292.0493     204.9604    187645.94   -60138.811    5076.1391   -65214.951    0.1490132 
  123000     292.0225    63.667588    187869.03   -60177.044    5075.6733   -65252.717   0.15068256 
  123200    288.33124   -209.22114    188385.56   -60237.307    5011.5151   -65248.822   0.15249261 
  123400    286.12584   -36.722125    188077.84   -60306.059    4973.1827   -65279.242   0.15204483 
  123600    289.89331    205.71073    187666.04   -60259.494    5038.6656   -65298.159   0.15292312 
  123800    286.25627    18.786582    188021.16   -60274.278    4975.4499   -65249.728    0.1478882 
  124000    289.78815   -172.44684    188331.93   -60257.105    5036.8378   -65293.943   0.14977681 
  124200    289.18438    44.851977    187951.07   -60237.657    5026.3436       -65264    0.1486292 
  124400    290.06736    145.61315     187742.7   -60266.644    5041.6908   -65308.335   0.14738865 
  124600    292.35935    -48.72237    188076.15   -60276.436    5081.5281   -65357.964   0.15155663 
  124800    287.75768   -113.80631    188175.34    -60294.32     5001.546   -65295.866   0.14895579 
  125000    289.44216    89.752341    187840.79   -60293.212    5030.8242   -65324.036   0.14813535 
  125200    288.64194    98.865998    187815.72   -60287.261    5016.9154   -65304.177   0.14906219 
  125400    288.34745   -68.110277    188125.27   -60362.082    5011.7969   -65373.879   0.14662061 
  125600    292.15849   -37.172268     188074.8   -60346.781    5078.0369   -65424.817    0.1404738 
  125800    292.96039    113.04112    187803.14   -60326.649    5091.9748   -65418.623   0.14168198 
  126000    286.78807     30.75577    187887.75   -60311.907    4984.6932     -65296.6     0.153765 
  126200    289.07309   -86.550291    188156.01   -60288.381    5024.4092    -65312.79   0.14911422 
  126400    287.20157   -47.860953    188011.03   -60320.075    4991.8801   -65311.955   0.15078932 
  126600    292.45448    145.01691    187760.65   -60343.325    5083.1816   -65426.507    0.1451299 
  126800    285.44001   -41.603214    187987.55   -60315.446    4961.2623   -65276.709   0.15117328 
  127000    283.31313    -138.6482    188167.58   -60346.268    4924.2949   -65270.563   0.15023869 
  127200    286.10135    61.389481    187871.03   -60373.873    4972.7572    -65346.63   0.14668282 
  127400    282.73622    101.62436    187703.78   -60365.419    4914.2675   -65279.686     0.157609 
  127600    285.38125   -59.998096    188051.18   -60375.859    4960.2409     -65336.1   0.15083144 
  127800    289.94989   -93.869188    188175.77   -60340.264     5039.649   -65379.913    0.1448402 
  128000    289.31308    103.83175    187824.65   -60345.797    5028.5805   -65374.378   0.14436615 
  128200    290.04376    88.041255    187787.86   -60315.272    5041.2805   -65356.552    0.1469583 
  128400    286.80191   -134.33223       188164   -60359.417    4984.9337    -65344.35   0.15051121 
  128600    288.36099   -94.588488    188142.62   -60372.734    5012.0322   -65384.766   0.14570116 
  128800    283.32047    157.83318    187732.67   -60400.481    4924.4223   -65324.903   0.14754078 
  129000    279.20279    73.407908    187826.56   -60459.859    4852.8526   -65312.712   0.14916264 
  129200    286.84306   -210.28669    188281.13    -60409.92    4985.6489   -65395.569   0.14801961 
  129400    286.06708   -57.474839    188038.86   -60398.097    4972.1615   -65370.259   0.14390496 
  129600    288.87789    255.52641    187510.12   -60402.318    5021.0165   -65423.335   0.14191415 
  129800    282.72822   -38.169201    187933.92   -60421.722    4914.1284    -65335.85   0.15156801 
  130000    288.75761   -322.97555    188461.99   -60412.618    5018.9258   -65431.544   0.14669085 
  130200    284.13066    51.542897    187803.35   -60435.744    4938.5044   -65374.248   0.14844117 
  130400    285.61063     378.7691    187315.68   -60415.805    4964.2279   -65380.033    0.1528908 
  130600      284.676    -157.2492    188212.25   -60392.738     4947.983   -65340.721   0.15042335 
  130800    284.25919   -345.16433     188608.2   -60407.028    4940.7384   -65347.766   0.14671842 
  131000    285.83189    199.78247    187603.65   -60414.324    4968.0737   -65382.398   0.14839404 
  131200    290.12282    377.96003    187401.78   -60399.509    5042.6546   -65442.163   0.14797966 
  131400     281.6889   -260.15382     188445.1   -60398.126    4896.0639   -65294.189   0.14780021 
  131600    286.17096   -273.38204    188406.82   -60393.573     4973.967    -65367.54   0.14835614 
  131800    289.89161    334.72017    187388.02   -60340.029    5038.6361   -65378.665   0.14565583 
  132000    287.25699    153.97021    187617.56   -60290.454    4992.8435   -65283.298   0.15397205 
  132200    288.28508   -353.40765    188534.65   -60297.266    5010.7128   -65307.979   0.15420806 
  132400     289.7091   -136.43475    188157.62   -60295.805    5035.4638   -65331.269   0.14949351 
  132600     289.7702    336.24695    187433.22   -60270.164    5036.5259    -65306.69   0.15218155 
  132800    286.10822     25.04083    187931.66   -60230.994    4972.8766   -65203.871   0.15317681 
  133000    292.28538   -274.97339     188524.3   -60239.478    5080.2425   -65319.721   0.14779766 
  133200    287.92767   -6.6529014    187991.18   -60193.343    5004.5006   -65197.843   0.14659149 
  133400    290.04321    288.49201    187529.28   -60174.779    5041.2711    -65216.05   0.15006865 
  133600    288.52744   -54.694339    188116.69   -60193.188    5014.9252   -65208.113   0.14888674 
  133800     292.7901   -252.97089    188436.31   -60223.385    5089.0151     -65312.4    0.1478392 
  134000    287.36161     116.6577    187832.35    -60185.13    4994.6619   -65179.792   0.15251565 
  134200    288.48719    165.37685     187668.8    -60208.08    5014.2257   -65222.306   0.15196381 
  134400    288.64873   -128.54523    188247.97   -60194.164    5017.0334   -65211.197   0.15198223 
  134600    294.34434   -166.61683    188318.01   -60222.771    5116.0294     -65338.8   0.14038298 
  134800    289.53246    147.47204     187761.9   -60244.822    5032.3935   -65277.215   0.14668321 
  135000    289.04993    139.37792    187808.23   -60326.464    5024.0067   -65350.471   0.14531043 
  135200    284.17508   -169.33042    188309.28   -60313.963    4939.2764    -65253.24   0.14652257 
  135400    287.83619   -85.459295    188144.86   -60337.763    5002.9105   -65340.674   0.14890132 
  135600    288.42005    224.64846    187680.92   -60318.525    5013.0587   -65331.583   0.14609182 
  135800    287.19619    40.299858    187934.29   -60396.968    4991.7867   -65388.755   0.14444798 
  136000    287.52238   -171.44536    188291.83   -60430.238    4997.4563   -65427.694   0.13994713 
  136200    286.99534    3.0875074    187963.22   -60423.648    4988.2957   -65411.943   0.14357348 
  136400     287.9989    185.67277    187672.29   -60345.856    5005.7387   -65351.595   0.14925382 
  136600    282.50211   -61.996906    188054.96   -60324.411    4910.1984    -65234.61    0.1516571 
  136800    284.11593   -187.87437    188291.02   -60345.731    4938.2483    -65283.98   0.15318008 
  137000    285.54335    68.417215    187858.42   -60351.364    4963.0585   -65314.423    0.1461242 
  137200    287.66983    162.29445    187688.59   -60388.401    5000.0191    -65388.42   0.14825736 
  137400    291.80775   -90.713544    188153.83   -60310.004    5071.9407   -65381.944   0.14345214 
  137600    289.27637   -146.93457    188265.54   -60317.371    5027.9426   -65345.314   0.14912076 
  137800    289.07245    140.95533    187750.58   -60280.213    5024.3981   -65304.611   0.15175147 
  138000    290.25458    158.30698    187764.45   -60271.493    5044.9449   -65316.438   0.14857166 
  138200    288.83622   -168.41909     188282.5   -60320.574    5020.2922   -65340.867   0.15184472 
  138400    289.70715   -93.303075    188109.64   -60321.322    5035.4299   -65356.752   0.14613204 
  138600    290.21624    203.83468    187629.39   -60300.632    5044.2785    -65344.91   0.14682006 
  138800    286.34882    42.323406    187902.99   -60283.233    4977.0585   -65260.292   0.14677713 
  139000    288.15856   -226.59197    188356.77   -60251.265    5008.5137   -65259.778   0.14882554 
  139200    288.18982   0.89823594    188026.25   -60259.899    5009.0571   -65268.956   0.15045108 
  139400    291.25905    233.65753    187652.13   -60277.459    5062.4037   -65339.863   0.14865723 
  139600    287.83491    10.830054    188068.99   -60252.211    5002.8884   -65255.099   0.15028024 
  139800    291.70466   -201.30012    188347.93   -60218.877    5070.1489   -65289.026   0.14734997 
  140000    288.50276     119.7443    187837.73   -60194.116    5014.4963   -65208.613   0.15213752 
  140200    292.45178    200.46821    187676.88   -60227.537    5083.1345   -65310.672   0.14974464 
  140400    284.09254   -156.31975    188169.74   -60279.592    4937.8418   -65217.434   0.15458259 
  140600    287.44695   -131.25082    188167.58   -60269.991    4996.1451   -65266.136   0.15494403 
  140800    291.83415    149.47853    187736.15   -60275.838    5072.3995   -65348.237   0.14912367 
  141000    284.98621    66.550522    187824.85   -60312.447    4953.3748   -65265.821   0.15445166 
  141200     288.2425   -151.47844    188200.69    -60239.55    5009.9726   -65249.523   0.15231698 
  141400    292.61701   -59.435547    188050.89   -60235.995    5086.0066   -65322.002   0.15060231 
  141600    292.78611    145.92114    187740.97   -60239.868    5088.9456   -65328.813    0.1541229 
  141800    291.49753    15.919721     187930.2    -60265.84    5066.5488   -65332.389   0.15033163 
  142000    283.82369   -152.68257    188175.85   -60307.849    4933.1688   -65241.018   0.15495972 
  142200    288.53019    -23.91999    187968.41   -60286.874     5014.973   -65301.847   0.15482998 
  142400    288.27694     86.96426    187784.12   -60309.285    5010.5712   -65319.856   0.14962814 
  142600    289.66686   -2.4526501    187979.52   -60284.491    5034.7296    -65319.22   0.14613095 
  142800    285.01075   -61.620546    188126.16   -60290.048    4953.8013   -65243.849   0.14883214 
  143000    288.31378    45.186696    187931.41   -60338.037    5011.2116   -65349.249    0.1494911 
  143200    286.01076    107.64469    187843.29   -60307.783    4971.1826   -65278.966   0.15022385 
  143400      289.917   -18.358788    188055.98   -60279.388    5039.0773   -65318.465   0.14725554 
  143600    287.94858   -74.215232    188108.03    -60297.73    5004.8641   -65302.594   0.14920276 
  143800    287.54926    44.494079    187916.92   -60299.925    4997.9233   -65297.849    0.1488749 
  144000    286.73255    80.553738    187914.01   -60293.001     4983.728   -65276.729   0.14686955 
  144200    286.64972   -81.560598    188128.11   -60260.405    4982.2885   -65242.693   0.14705732 
  144400    289.16912   -61.488999     188091.9   -60254.955    5026.0783   -65281.033   0.14974767 
  144600    289.60028    140.11675    187864.87    -60215.58    5033.5723   -65249.152   0.14862488 
  144800    287.54126    27.447371     187976.1   -60216.103    4997.7843   -65213.888   0.14945485 
  145000     290.1482   -105.34976    188177.69   -60229.806    5043.0958   -65272.902   0.15208665 
  145200    288.86095    10.215512    188019.56    -60260.96     5020.722   -65281.682    0.1488124 
  145400    287.48639    62.101355    187850.32   -60259.845    4996.8306   -65256.676   0.15275801 
  145600    289.44402    4.2246552    188016.81   -60288.005    5030.8564   -65318.862   0.14765985 
  145800     290.3266   -75.780976    188118.68   -60317.248    5046.1967   -65363.445   0.15156956 
  146000    286.84932    47.070159    187915.43   -60292.342    4985.7576     -65278.1   0.15684424 
  146200    285.95762    88.012034    187852.02    -60334.06     4970.259   -65304.319   0.14851543 
  146400    286.46653   -61.847834     188055.9   -60276.651    4979.1045   -65255.755    0.1518471 
  146600    291.50082   -59.964286    188121.41   -60243.158    5066.6058   -65309.764   0.15203674 
  146800    291.68213    51.855472    187944.98   -60187.123    5069.7572   -65256.881     0.152212 
  147000    292.88506    58.054388    187921.58    -60210.27    5090.6654   -65300.935   0.15262128 
  147200    290.78064   -48.228515    188103.62   -60200.028    5054.0883   -65254.116   0.15603023 
  147400    288.14357   -36.361166    188116.37   -60254.968    5008.2531   -65263.221   0.15181963 
  147600    288.32748    7.3045641    187934.36   -60285.237    5011.4498   -65296.687   0.15329686 
  147800    288.74324     35.96893    187934.98   -60307.471    5018.6761   -65326.147   0.14744401 
  148000    287.99224   -74.063338    188105.58   -60289.101     5005.623   -65294.724   0.14751169 
  148200     288.9476   -18.517074    188059.55   -60323.831    5022.2281   -65346.059   0.14624395 
  148400    292.62079    142.91414    187843.94   -60390.643    5086.0722   -65476.715   0.14059314 
  148600    282.68389    34.040445    187939.15   -60358.925    4913.3579   -65272.283   0.14903521 
  148800    284.92272   -118.27277    188202.01   -60376.622    4952.2712   -65328.893   0.14661339 
  149000    288.60394     5.977191    187994.32   -60377.728    5016.2549   -65393.983   0.14384831 
  149200    282.00744    163.05797    187728.92   -60388.378    4901.6005   -65289.978   0.14608759 
  149400    282.97627   -73.973538    188068.23   -60384.946    4918.4399   -65303.386   0.14948067 
  149600    283.48703   -171.85362    188276.67   -60394.997    4927.3174   -65322.315   0.14828086 
  149800    288.95057    68.644547    187846.95   -60387.419    5022.2797   -65409.699     0.149604 
  150000    288.25365     162.0056    187720.59   -60324.582    5010.1665   -65334.748    0.1518896 
  150200    290.02857   -130.20419    188234.03   -60261.841    5041.0165   -65302.858   0.14756248 
  150400    288.61189     -143.521    188312.29   -60235.892    5016.3932   -65252.286   0.14915148 
  150600    290.78921    205.66599    187743.66   -60273.907    5054.2373   -65328.144   0.14662935 
  150800    289.39469    153.20554    187737.99   -60231.416     5029.999   -65261.415   0.15104621 
  151000    288.16489   -219.12199    188323.17    -60287.66    5008.6238   -65296.284    0.1534879 
  151200    288.87442   -137.30269     188152.9   -60237.931    5020.9561   -65258.887   0.15648892 
  151400    293.23225    261.91856    187599.92   -60176.149    5096.7001   -65272.849   0.15493896 
  151600    290.87967  -0.43597971    187955.95   -60162.624    5055.8097   -65218.433   0.14973869 
  151800    291.96308   -241.46436    188421.89   -60145.863    5074.6405   -65220.504   0.15052134 
  152000    290.51913    15.518631    187996.78    -60177.06     5049.543   -65226.603   0.14662494 
  152200    289.29483    257.55288     187608.1   -60179.337    5028.2634     -65207.6   0.15060637 
  152400    285.91488    -61.30774    188115.02   -60251.329    4969.5161   -65220.845    0.1517969 
  152600    289.96061   -219.37989     188365.9    -60200.02    5039.8354   -65239.855   0.14980571 
  152800    293.76128    131.57667     187809.6   -60162.307    5105.8952   -65268.202   0.15488107 
  153000    291.91629    187.61724    187700.38    -60206.63    5073.8272   -65280.458   0.14685804 
  153200    286.27536   -161.31168    188254.03    -60147.44    4975.7816   -65123.221   0.15028605 
  153400    291.09616   -143.05247    188254.68   -60222.935    5059.5725   -65282.507   0.15153556 
  153600    290.12869    187.82796    187667.12   -60244.975    5042.7567   -65287.732   0.15087137 
  153800    293.36054    140.33069    187790.64   -60258.605    5098.9298   -65357.535   0.14977457 
  154000    288.32498   -193.86024     188367.1    -60276.81    5011.4063   -65288.217    0.1448829 
  154200    289.92865   -63.886493     188143.6   -60226.782    5039.2799   -65266.061   0.14875543 
  154400    295.22125    241.29491    187622.58   -60211.878    5131.2711   -65343.149   0.15192349 
  154600     291.3948    12.422289    187977.75   -60263.473    5064.7632   -65328.237   0.14884119 
  154800    292.20971   -216.72609    188442.01   -60256.976    5078.9272   -65335.903   0.14577172 
  155000    287.33354   -26.738726    187979.57   -60261.929     4994.174   -65256.103   0.15542405 
[...]
  163200    291.08648   -13.139607    187991.66   -60310.699    5059.4041   -65370.103   0.14691591 
  163400    288.36206    163.10585    187740.89   -60358.015    5012.0508   -65370.066   0.14042157 
  163600    283.88141   -34.844342    188004.42   -60300.224    4934.1721   -65234.396   0.15205796 
  163800    284.65432   -182.66834    188256.08   -60360.878    4947.6062   -65308.484   0.14992272 
  164000    284.92995    35.816322    187926.54   -60385.977     4952.397   -65338.374   0.14699742 
  164200    288.83682    186.57948    187712.75   -60368.931    5020.3026   -65389.234   0.14659005 
  164400    288.49128   -107.76642    188191.87   -60325.323    5014.2968    -65339.62   0.15287689 
  164600    287.64071   -208.26396    188369.03   -60315.616    4999.5129   -65315.128   0.14780098 
  164800    290.02038    200.59568    187693.24   -60320.594    5040.8743   -65361.468   0.14816396 
  165000    288.48614    220.41264    187587.92   -60320.092    5014.2074   -65334.299   0.14993775 
  165200    286.08893   -277.70327    188435.24   -60288.321    4972.5413   -65260.862   0.15451348 
  165400    291.32674    -229.8144    188349.82   -60325.831    5063.5802   -65389.411   0.15335187 
  165600    294.34903    400.30503    187390.91   -60256.553    5116.1109   -65372.664   0.14703584 
  165800    288.27663    126.72742    187725.06   -60282.144    5010.5658    -65292.71   0.15611189 
  166000    291.17944   -418.92835    188649.55   -60279.391      5061.02   -65340.411   0.15884163 
  166200     289.9569   -88.645794    188073.43   -60282.488    5039.7709   -65322.259   0.15452476 
  166400    287.50246    431.51076    187256.33   -60291.664      4997.11   -65288.774    0.1518458 
  166600    288.97028   -35.011943    187968.83   -60286.519    5022.6224   -65309.141    0.1618895 
  166800    283.21524    -431.7826    188595.74       -60348    4922.5934   -65270.593   0.15916368 
  167000     284.1776    86.333499    187812.62   -60339.577    4939.3203   -65278.898   0.14922296 
  167200    287.84087    338.93797    187387.32   -60287.334    5002.9919   -65290.326   0.15223564 
  167400    286.90675    -139.2243    188171.86   -60331.631    4986.7558   -65318.387   0.15393478 
  167600    288.65322   -273.79327    188389.87   -60316.891    5017.1114   -65334.002   0.15229502 
  167800    286.87798    180.87368    187648.04   -60379.666    4986.2558   -65365.922   0.14692646 
  168000    284.12865    205.36075    187581.86    -60395.21    4938.4694    -65333.68   0.15224025 
  168200     283.4134    -201.4555    188280.47   -60371.972    4926.0376    -65298.01   0.15471013 
  168400    286.31364   -160.12058    188228.71   -60302.873    4976.4469    -65279.32   0.15181923 
  168600    291.23487    226.40428    187636.38   -60329.866    5061.9834   -65391.849   0.14069092 
  168800    286.07777    116.34667     187776.3   -60368.723    4972.3473    -65341.07   0.15322423 
  169000    284.91959   -188.96216    188267.86   -60356.592    4952.2169   -65308.809   0.14952717 
  169200    285.05889   -98.247317    188042.58   -60329.853    4954.6381   -65284.491   0.15208322 
  169400    284.65167    198.83415     187653.4     -60367.6    4947.5602    -65315.16   0.15262294 
  169600    285.48147     6.967945       187935   -60366.171    4961.9829   -65328.154   0.15254349 
  169800    284.32487   -160.52205    188216.81   -60408.638    4941.8799   -65350.518   0.15380578 
  170000     287.9826     4.341667    187859.78   -60437.671    5005.4553   -65443.126   0.14926675 
  170200    287.68182    204.56436    187611.11   -60423.653    5000.2275   -65423.881   0.15401337 
  170400    287.78987   -55.271453    188028.75   -60407.478    5002.1056   -65409.583   0.15204997 
  170600    281.53391   -176.67021    188195.39   -60392.124    4893.3699   -65285.494   0.15333034 
  170800     290.1601    104.45377    187771.88   -60395.735    5043.3028   -65439.038   0.14673442 
  171000    285.35018    157.45465    187677.05    -60400.16     4959.701   -65359.861   0.15206773 
  171200    286.07341   -118.55697    188119.82   -60418.691    4972.2716   -65390.963   0.15222057 
  171400    281.54861   -135.44207    188157.36   -60439.189    4893.6255   -65332.815   0.14728037 
  171600    286.43197    148.81682    187749.49   -60379.892    4978.5037   -65358.396    0.1532428 
  171800    289.37156    82.098532    187846.26    -60376.49     5029.597   -65406.087   0.15002968 
  172000    286.49915   -177.80943    188266.27   -60379.586    4979.6713   -65359.257   0.15239431 
  172200    284.92354    -73.57235    188095.53    -60344.01    4952.2855   -65296.295   0.14753076 
  172400    282.75357    171.80105    187724.38   -60319.113    4914.5691   -65233.683   0.15350374 
  172600    288.32224    15.704895    187983.99   -60292.227    5011.3586   -65303.586   0.15112304 
  172800    287.64102   -145.55238    188280.83   -60349.319    4999.5184   -65348.837   0.14471782 
  173000    289.34838    53.355274    187926.58   -60342.301    5029.1942   -65371.495    0.1472427 
  173200    285.44869    179.72621     187653.9   -60390.483    4961.4131   -65351.896   0.15097381 
  173400     289.2829   -29.329444    188048.12   -60346.757     5028.056   -65374.813   0.14950664 
  173600     290.3813   -187.58178    188273.87    -60298.06    5047.1473   -65345.207   0.14679873 
  173800    286.36184    41.075744     187877.5   -60327.547    4977.2848   -65304.832    0.1553096 
  174000    287.09813     152.0958    187743.01   -60287.214    4990.0822   -65277.296   0.15197935 
  174200    292.84211    -104.8395    188199.51   -60272.483    5089.9189   -65362.402   0.14862485 
  174400    287.17171   -106.27667     188243.9   -60260.217    4991.3612   -65251.578   0.14420103 
  174600    291.79841    125.04388       187786   -60242.999    5071.7784   -65314.777   0.14945689 
  174800    291.44746    131.67359    187828.54   -60225.986    5065.6785   -65291.664   0.15090544 
  175000     291.3653   -186.00935    188320.68   -60261.293    5064.2504   -65325.543   0.14676831 
  175200    285.17386   -107.64224    188155.31   -60274.836    4956.6363   -65231.472    0.1542326 
  175400    285.84477     225.0998     187600.1   -60316.031    4968.2976   -65284.329   0.15629657 
  175600    291.49431    69.483354    187892.63   -60313.319    5066.4927   -65379.812   0.15324187 
  175800     288.4508   -299.72858    188512.79   -60299.131    5013.5931   -65312.724   0.14483078 
  176000    292.53648     8.401459    188058.92   -60256.819    5084.6069   -65341.426   0.14692737 
  176200    288.52588    363.06688    187426.98   -60235.855    5014.8981   -65250.753   0.15308917 
  176400    288.11324   -70.551902    188115.31   -60273.548     5007.726   -65281.274   0.14694543 
  176600    290.19679   -378.02046    188683.09   -60260.521    5043.9404   -65304.462    0.1467184 
  176800    287.03288    133.95933    187810.17   -60252.693    4988.9482   -65241.641   0.15289694 
  177000    286.46555    375.09341    187355.26   -60287.624    4979.0873   -65266.712    0.1548215 
  177200    287.45518   -247.52852    188380.34   -60305.273    4996.2881   -65301.561   0.14466302 
  177400    286.44211   -376.47064    188616.97   -60370.644    4978.6799   -65349.324   0.14656789 
  177600    290.35428    315.44825    187473.73   -60353.458    5046.6777   -65400.135   0.14723957 
  177800    287.28323      314.817    187488.18   -60334.698    4993.2995   -65327.997   0.14724018 
  178000    286.28181    -369.1089    188609.87   -60289.725    4975.8937   -65265.619   0.14439916 
  178200    288.90241   -251.81805    188381.54   -60310.257    5021.4426   -65331.699   0.14603818 
  178400    289.77756    372.55789    187445.97   -60296.505    5036.6538   -65333.159   0.14853235 
  178600    288.53441    92.517279    187859.49   -60335.145    5015.0465   -65350.191    0.1427245 
  178800    286.97136    -317.2617    188563.59   -60284.964    4987.8788   -65272.843   0.14931601 
  179000    283.04551   -69.856217    188094.51   -60266.134    4919.6433   -65185.777   0.15341776 
  179200    293.13974    266.33431    187586.69   -60292.889    5095.0922   -65387.981   0.14935969 
  179400    284.99065   -41.942753    188067.39   -60256.335    4953.4519   -65209.786   0.14906411 
  179600    288.23443    -211.3565    188375.81   -60256.494    5009.8325   -65266.326   0.15111979 
  179800    289.00082    99.699911    187896.35   -60283.871    5023.1531   -65307.024   0.14679156 
  180000    290.91977     197.3565    187759.57   -60253.895    5056.5066   -65310.402   0.14312386 
  180200    293.92279   -88.775739    188244.92   -60233.264    5108.7025   -65341.967   0.14067934 
  180400    292.89868    -156.0191    188310.95   -60166.912    5090.9023   -65257.814   0.14915816 
  180600    289.54847    62.379429    187861.25   -60256.504     5032.672   -65289.176   0.15323995 
  180800    290.44909    95.159831    187849.75   -60221.833    5048.3256   -65270.158   0.14418535 
  181000    290.33822   -141.86936    188264.22   -60246.333    5046.3987   -65292.732   0.14636005 
  181200    289.35504   -94.268686    188167.37   -60246.333    5029.3098   -65275.642   0.15108704 
  181400    289.24559    122.92705    187774.11   -60291.654    5027.4075   -65319.062   0.14668234 
  181600    287.10521    117.84852    187911.99   -60317.126    4990.2054   -65307.332   0.14342046 
  181800      287.869   -154.63408    188288.56   -60292.971    5003.4808   -65296.451   0.14603085 
  182000    291.85244   -22.165156    188069.01   -60295.869    5072.7175   -65368.587   0.14648305 
  182200    288.31818    165.02623    187708.04    -60325.85     5011.288   -65337.138   0.14454222 
  182400    286.95529    32.709488    187991.41   -60305.341    4987.5996    -65292.94   0.14300811 
  182600    287.07328   -159.29281    188301.16   -60255.381    4989.6503   -65245.032   0.14834124 
  182800    286.74916    42.847423     187983.4   -60219.592    4984.0168   -65203.608   0.15149431 
  183000    288.78941    152.92449    187770.62   -60220.366    5019.4786   -65239.844   0.14688616 
  183200    290.47102   -66.894242     188169.7   -60230.347    5048.7069   -65279.054   0.14297885 
  183400    296.52462   -129.38567     188301.4   -60228.661    5153.9251   -65382.586   0.14401598 
  183600    289.88676    121.96519    187843.29   -60269.172    5038.5517   -65307.723    0.1427408 
  183800     291.7658    145.93635    187807.04   -60280.522    5071.2116   -65351.733   0.13936132 
  184000     288.1283   -165.04632    188267.66   -60329.071    5007.9878   -65337.059   0.14417208 
  184200    282.55905   -122.95002    188192.87   -60358.242    4911.1881    -65269.43   0.14778956 
  184400    292.04681    191.55063    187756.55   -60372.637    5076.0959   -65448.733    0.1389947 
  184600    283.79138    73.205289    187919.26   -60366.639    4932.6074   -65299.246   0.14181397 
  184800    285.73727     -215.348    188333.71   -60358.232    4966.4291   -65324.661   0.14781071 
  185000    284.61541   -63.260589    188075.29   -60346.962    4946.9299   -65293.892    0.1518491 
  185200    287.31711    223.50347    187669.95   -60402.084    4993.8883   -65395.973   0.13935627 
  185400    286.43464   -12.323434    187980.08   -60376.442    4978.5501   -65354.992   0.14336304 
  185600    288.12902   -207.39577    188327.41   -60379.283    5008.0003   -65387.283   0.14685069 
  185800    289.59445    66.750642    187906.76   -60333.918    5033.4711   -65367.389   0.14613175 
  186000     289.4953    218.04354    187654.74   -60307.587    5031.7477   -65339.335   0.14400604 
  186200    289.81227    -97.78891    188243.31   -60303.583     5037.257    -65340.84   0.14407471 
  186400    286.13336   -273.95971     188460.2   -60256.184    4973.3136   -65229.497   0.15618858 
  186600    286.76995    185.33425    187726.54   -60299.182    4984.3782    -65283.56   0.14648384 
  186800    287.46273    255.11544    187595.52   -60302.028    4996.4194   -65298.448   0.14563599 
  187000    291.18454   -234.13974    188460.97   -60278.208    5061.1086   -65339.317   0.14744779 
  187200    287.89503    -240.7325    188446.95   -60295.581    5003.9332   -65299.514   0.14786132 
  187400    290.37566    341.29718    187468.42   -60277.108    5047.0494   -65324.158   0.14738682 
  187600    290.99537    173.39734    187681.62   -60327.185    5057.8206   -65385.005   0.14254958 
  187800    290.66549   -403.44215    188704.74   -60310.766     5052.087   -65362.853   0.15007362 
  188000    290.94282   -93.564631    188260.17   -60286.756    5056.9072   -65343.663   0.14059085 
  188200    289.91333    441.67876    187306.44   -60273.947    5039.0135    -65312.96   0.14676749 
  188400    290.17893    62.177053    187972.21    -60251.52      5043.63    -65295.15   0.14340756 
  188600     286.5227   -460.47942    188795.94   -60283.572    4980.0807   -65263.653   0.15131953 
  188800    287.18664    42.033634    187987.06    -60274.75    4991.6207   -65266.371   0.14552858 
  189000    286.20149    395.69029    187417.27   -60256.019    4974.4977   -65230.516   0.14221589 
  189200    292.46138   -86.382707    188225.12   -60269.701    5083.3016   -65353.003   0.14407303 
  189400    287.70431   -320.26561    188553.43   -60236.191    5000.6184    -65236.81   0.14571217 
  189600    290.53553    146.36694    187815.25   -60250.902     5049.828    -65300.73   0.14253361 
  189800    288.67079    205.97382    187682.24   -60302.636    5017.4169   -65320.053   0.14236841 
  190000    288.91677    -142.9476    188295.06   -60336.026    5021.6923   -65357.718   0.14378323 
  190200    289.03534   -160.95213    188292.07   -60288.175    5023.7531   -65311.928   0.14685447 
  190400    286.82116    138.97483    187807.78   -60295.007    4985.2682   -65280.275   0.14413321 
  190600     290.7329     94.56602     187897.1   -60244.005    5053.2586   -65297.263   0.14391003 
  190800    286.53774   -153.45552    188333.51   -60285.352    4980.3421   -65265.694   0.14675728 
  191000    289.93666   -77.941249    188147.45   -60304.971    5039.4191    -65344.39   0.14463459 
  191200    287.18137    177.63997    187752.76   -60298.383    4991.5291   -65289.913   0.14113623 
  191400    287.90142    6.1293786    188000.78   -60329.837    5004.0443   -65333.882    0.1454215 
  191600    292.19662   -161.78489    188317.53   -60266.538    5078.6997   -65345.238   0.14269102 
  191800    283.92425    8.0931568    187993.35   -60285.217    4934.9168   -65220.134   0.14494462 
  192000    289.71284    185.37943    187721.18   -60276.631    5035.5288    -65312.16   0.14352888 
  192200    289.77024   -48.656255    188111.23   -60278.598    5036.5265   -65315.125   0.14357007 
  192400    287.90269   -194.59096    188267.74   -60295.802    5004.0665   -65299.869   0.14511025 
  192600    287.39131     145.7403    187849.92   -60308.027    4995.1781   -65303.205   0.13929729 
  192800    288.85821    121.46912    187810.72    -60286.07    5020.6745   -65306.744   0.14617456 
  193000    288.93767   -126.61164    188254.79   -60269.375    5022.0554   -65291.431   0.14227075 
  193200    286.69767   -123.55388    188185.44   -60230.056    4983.1218   -65213.177   0.14901472 
  193400    292.34337    174.70191    187755.94    -60221.13    5081.2504    -65302.38    0.1413378 
  193600     288.3199    55.562943    187881.02   -60267.332     5011.318    -65278.65   0.14615619 
  193800    291.45352   -137.04981     188235.9   -60281.517    5065.7837   -65347.301   0.14259169 
  194000     285.2996   0.47094155    188026.47    -60304.12    4958.8218   -65262.942   0.14293413 
  194200     284.8871     133.1158    187737.82   -60309.144    4951.6522   -65260.796   0.14927806 
  194400    289.26471   -24.618605    188028.79   -60283.047    5027.7398   -65310.787   0.14612513 
  194600    290.75152     -171.412    188283.43   -60290.281    5053.5822   -65343.863   0.14580347 
  194800    294.27305     68.98855    187945.23   -60276.735    5114.7903   -65391.526   0.13873102 
  195000    287.49744       171.22     187754.1   -60262.615    4997.0227   -65259.638    0.1450665 
  195200    292.32286   -38.599522    188155.44    -60284.84    5080.8939   -65365.734   0.14020088 
  195400    288.16928   -166.89215    188298.32   -60256.999    5008.7001   -65265.699   0.14360186 
  195600    289.65318    118.55265    187858.65   -60279.971    5034.4918   -65314.462   0.14306797 
  195800    287.35797    134.68879    187813.68   -60297.593    4994.5986   -65292.191    0.1433844 
  196000    285.91293   -152.13884    188293.31   -60267.098    4969.4822    -65236.58   0.14822209 
  196200    287.33009   -113.20713    188241.45   -60263.571     4994.114   -65257.685   0.14192085 
  196400    288.54251    221.64322    187727.66   -60274.227    5015.1872   -65289.414   0.14180072 
  196600    288.69061     73.33898    187868.71   -60332.912    5017.7614   -65350.674   0.14478462 
  196800    288.41509   -223.43994    188357.38   -60312.704    5012.9725   -65325.677   0.14239721 
  197000    286.69184   -49.654207    188063.81   -60357.019    4983.0206    -65340.04   0.14318487 
  197200     285.7837    280.69024    187516.65   -60397.282     4967.236   -65364.518   0.13993342 
  197400    291.59445    17.032905    187935.78   -60361.751    5068.2333   -65429.984   0.14125393 
  197600    288.65846   -302.25558     188535.5   -60251.169    5017.2026   -65268.372   0.14203911 
  197800     287.9223    11.107351     187982.5   -60242.174    5004.4072   -65246.581   0.14303052 
  198000    287.58329    405.91575    187392.24   -60287.925    4998.5148    -65286.44   0.14060048 
  198200    286.08744    -87.80693    188226.37   -60277.333    4972.5153   -65249.848   0.14311402 
  198400    288.71817   -414.40035    188776.52   -60229.352    5018.2405   -65247.593   0.14101034 
  198600     287.7307    207.70344    187722.77   -60225.991    5001.0771   -65227.068   0.14293961 
  198800    287.51592    414.28548    187350.82   -60248.203     4997.344   -65245.547   0.14545745 
  199000    290.67778   -312.89127    188544.47   -60257.404    5052.3006   -65309.705   0.14062825 
  199200    291.50198   -334.82776    188656.14   -60266.994    5066.6261    -65333.62   0.13808749 
  199400    292.13409    345.69107    187468.58   -60280.593    5077.6127   -65358.206   0.14111009 
  199600    289.08041     287.6995    187616.91   -60292.022    5024.5365   -65316.559   0.14128904 
  199800    289.84437   -372.28404    188690.88   -60285.069     5037.815   -65322.884   0.14157175 
  200000    287.62925   -192.65399    188333.61   -60297.003    4999.3138   -65296.317    0.1439437 
Loop time of 149.755 on 6 procs for 200000 steps with 5832 atoms

Performance: 576.944 ns/day, 0.042 hours/ns, 1335.518 timesteps/s
98.2% CPU use with 6 MPI tasks x no OpenMP threads

MPI task timing breakdown:
Section |  min time  |  avg time  |  max time  |%varavg| %total
---------------------------------------------------------------
Pair    | 96.74      | 99.397     | 101.54     |  14.5 | 66.37
Neigh   | 13.625     | 14.062     | 14.497     |   8.2 |  9.39
Comm    | 19.852     | 22.446     | 25.509     |  36.1 | 14.99
Output  | 4.2208     | 4.2224     | 4.2294     |   0.2 |  2.82
Modify  | 7.5615     | 7.5988     | 7.6273     |   0.9 |  5.07
Other   |            | 2.028      |            |       |  1.35

Nlocal:        972.000 ave         984 max         962 min
Histogram: 2 0 1 0 0 0 1 1 0 1
Nghost:        1616.67 ave        1630 max        1605 min
Histogram: 1 1 1 0 0 1 0 0 1 1
Neighs:        0.00000 ave           0 max           0 min
Histogram: 6 0 0 0 0 0 0 0 0 0
FullNghs:      27679.0 ave       28055 max       27363 min
Histogram: 2 0 1 0 0 0 1 1 0 1

Total # of neighbors = 166074
Ave neighs/atom = 28.476337
Neighbor list builds = 12742
Dangerous builds = 0
write_data		data.${NAME}
write_data		data.ice_289K_1atm_LG
System init for write_data ...
Total wall time: 0:03:42
